
  ___ ___ ___ _ _ _  
 |   |   |_  | | | | 
 | | | | | . | | | | 
 |__ |  _|___|_____|  1.3.0b1
 |___|_|             

User:   esb@s65n13.grendel.cscaa.dk
Date:   Thu Nov  9 09:19:02 2017
Arch:   x86_64
Pid:    3459
Python: 2.7.13
gpaw:   /home/esb/DFT/gpaw_git/gpaw
_gpaw:  /home/esb/DFT/gpaw_git/build/bin.linux-x86_64-2.7/gpaw-python
ase:    /home/esb/DFT/ase_git/ase (version 3.15.0b1)
numpy:  /comm/swstack/core/python/2.7.13/lib/python2.7/site-packages/numpy (version 1.13.3)
scipy:  /comm/swstack/core/python/2.7.13/lib/python2.7/site-packages/scipy (version 0.19.1)
units:  Angstrom and eV
cores:  16
Extra parameters: {'blacs': True}

Input parameters:
  basis: dzp
  gpts: [80 80 48]
  kpts: [1 1 1]
  maxiter: 99
  mixer: {backend: pulay,
          beta: 0.05,
          method: separate,
          nmaxold: 5,
          weight: 75}
  mode: lcao
  nbands: -50
  occupations: {name: fermi-dirac,
                width: 0.1}
  poissonsolver: {eps: 1e-07,
                  name: fd,
                  nn: 3,
                  relax: GS}
  xc: PBE

System changes: positions, numbers, cell, pbc, initial_charges, initial_magmoms 

Initialize ...

C-setup:
  name: Carbon
  id: 4aa54d4b901d75f77cc0ea3eec22967b
  Z: 6
  valence: 4
  core: 2
  charge: 0.0
  file: /home/esb/DFT/gpaw-setups-0.8.7929/C.PBE.gz
  cutoffs: 0.64(comp), 1.14(filt), 1.14(core), lmax=2
  valence states:
                energy  radius
    2s(2.00)   -13.751   0.635
    2p(2.00)    -5.284   0.635
    *s          13.461   0.635
    *p          21.927   0.635
    *d           0.000   0.635

  LCAO basis set for C:
    Name: dzp
    File: /home/esb/DFT/gpaw-setups-0.8.7929/C.dzp.basis.gz
    Number of radial functions: 5
    Number of spherical harmonics: 13
      l=0, rc=5.5469 Bohr: 2s-sz confined orbital
      l=1, rc=6.6719 Bohr: 2p-sz confined orbital
      l=0, rc=3.0312 Bohr: 2s-dz split-valence wave
      l=1, rc=3.7500 Bohr: 2p-dz split-valence wave
      l=2, rc=6.6719 Bohr: d-type Gaussian polarization

Reference energy: -24663.074771

Spin-paired calculation

Occupation numbers:
  Fermi-Dirac: width=0.1000 eV

Convergence criteria:
  Maximum total energy change: 0.0005 eV / electron
  Maximum integral of absolute density change: 0.0001 electrons
  Maximum integral of absolute eigenstate change: 4e-08 eV^2
  Maximum number of iterations: 99

Symmetries present (total): 1

  ( 1  0  0)
  ( 0  1  0)
  ( 0  0  1)

1 k-point (Gamma)
1 k-point in the irreducible part of the Brillouin zone
       k-points in crystal coordinates                weights
   0:     0.00000000    0.00000000    0.00000000          1/1

Wave functions: LCAO
  Diagonalizer: Serial LAPACK
  Atomic Correction: dense with blas
  Datatype: float
  Eigensolver: None 

LCAO using direct dense diagonalizer 

Densities:
  Coarse grid: 80*80*48 grid
  Fine grid: 160*160*96 grid
  Total Charge: 0.000000 

Density mixing:
  Method: separate
  Backend: pulay
  Linear mixing parameter: 0.05
  Mixing with 5 old densities
  Damping of long wave oscillations: 75 

Hamiltonian:
  XC and Coulomb potentials evaluated on a 160*160*96 grid
  Using the PBE Exchange-Correlation functional
  Interpolation: tri-quintic (5. degree polynomial)
  Poisson solver: Gauss-Seidel solver with 6 multi-grid levels
    Coarsest grid: 5 x 5 x 3 points
    Stencil: 6*3+1=19 point O(h^6) finite-difference Laplacian
    Max iterations: 1000
    Tolerance: 1.000000e-07 

Memory estimate:
  Process memory now: 77.59 MiB
  Calculator: 15.59 MiB
    Density: 6.13 MiB
      Arrays: 3.81 MiB
      Localized functions: 0.86 MiB
      Mixer: 1.46 MiB
    Hamiltonian: 5.40 MiB
      Arrays: 2.49 MiB
      XC: 0.00 MiB
      Poisson: 2.85 MiB
      vbar: 0.07 MiB
    Wavefunctions: 4.05 MiB
      C [qnM]: 0.23 MiB
      S, T [2 x qmm]: 1.49 MiB
      P [aqMi]: 0.01 MiB
      TCI: 0.00 MiB
      BasisFunctions: 2.33 MiB
      Eigensolver: 0.00 MiB

Total number of cores used: 16
Domain decomposition: 2 x 4 x 2

Number of atoms: 24
Number of atomic orbitals: 312
Number of bands in calculation: 98
Bands to converge: occupied states only
Number of valence electrons: 96

... initialized

Initializing position-dependent things.

Density initialized from atomic densities
           .--------------------------------------.  
          /|                                      |  
         / |                                      |  
        /  |                                      |  
       /   |                                      |  
      /    |                                      |  
     /     |                                      |  
    /      |             C  C                     |  
   /       |           C                          |  
  /        |    C  C    C      C                  |  
 *         |        C     C     C  CC             |  
 |         |  C    C     C    C    C              |  
 |         .-C-C------C---------------------------.  
 |        /          C C                         /   
 |       /     C C                              /    
 |      /                                      /     
 |     /                                      /      
 |    /                                      /       
 |   /                                      /        
 |  /                                      /         
 | /                                      /          
 |/                                      /           
 *--------------------------------------*            

Positions:
   0 C     12.013299    7.072452    5.490225
   1 C     12.066827    8.376397    5.345101
   2 C     10.352994    9.884706    4.753230
   3 C      9.632721    8.694423    4.292235
   4 C      9.381979   10.938170    4.822631
   5 C     11.678592    9.622013    5.209308
   6 C      3.430618    6.367236    5.224453
   7 C      4.721990    4.126056    4.903132
   8 C      4.538842    5.494375    5.231172
   9 C      5.740551    3.387568    4.956784
  10 C      3.535561    7.625926    5.527187
  11 C      3.944378    8.872441    5.859287
  12 C      7.036786    3.769117    5.384702
  13 C      5.881275    6.011394    5.643247
  14 C      7.108986    5.212934    5.743139
  15 C      8.274157    3.142138    5.558936
  16 C      5.317840    8.640212    6.091316
  17 C      6.038032    7.372145    5.963123
  18 C      8.558352    9.994768    7.241098
  19 C      7.309711   10.459733    7.004496
  20 C      8.479059    7.237264    6.527302
  21 C      8.383408    5.815244    6.177413
  22 C      6.676280    9.281223    6.551234
  23 C      7.279238    7.958209    6.384313

Unit cell:
           periodic     x           y           z      points  spacing
  1. axis:    yes   16.000000    0.000000    0.000000    80     0.2000
  2. axis:    yes    0.000000   16.000000    0.000000    80     0.2000
  3. axis:    yes    0.000000    0.000000   10.000000    48     0.2083

Effective grid spacing dv^(1/3) = 0.2027

                     log10-error:    total        iterations:
           time      wfs    density  energy       fermi  poisson
iter:   1  09:19:04          +inf  -171.302082    2      6      
iter:   2  09:19:05         -0.85  -170.057400    2      3      
iter:   3  09:19:05         -0.90  -168.122406    3      3      
iter:   4  09:19:06         -1.01  -167.535601    4      3      
iter:   5  09:19:07         -1.08  -166.806238    34     4      
iter:   6  09:19:07         -1.33  -166.627850    3      3      
iter:   7  09:19:08         -1.45  -166.571520    4      3      
iter:   8  09:19:09         -1.66  -166.513665    3      2      
iter:   9  09:19:09         -1.81  -166.508531    2      3      
iter:  10  09:19:10         -1.96  -166.487658    3      2      
iter:  11  09:19:11         -2.10  -166.473005    3      2      
iter:  12  09:19:11         -2.35  -166.464748    2      2      
iter:  13  09:19:12         -2.45  -166.464264    3      2      
iter:  14  09:19:12         -2.63  -166.463991    3      2      
iter:  15  09:19:13         -2.90  -166.473430    2      1      
iter:  16  09:19:14         -3.00  -166.461108    2      2      
iter:  17  09:19:14         -3.25  -166.455655    2      1      
iter:  18  09:19:15         -3.36  -166.458925    2      1      
iter:  19  09:19:15         -3.46  -166.457669    2      1      
iter:  20  09:19:16         -3.52  -166.457267    2      1      
iter:  21  09:19:17         -3.59  -166.461921    2      1      
iter:  22  09:19:17         -3.78  -166.460042    2      1      
iter:  23  09:19:18         -3.87  -166.458872    2      1      
iter:  24  09:19:18         -4.12  -166.459742    2      1      

Converged after 24 iterations.

Dipole moment: (-0.356752, -0.285978, -0.239639) |e|*Ang

Energy contributions relative to reference atoms: (reference = -24663.074771)

Kinetic:        +94.511425
Potential:     -106.791598
External:        +0.000000
XC:            -156.908253
Entropy (-ST):   -0.179373
Local:           +2.818369
--------------------------
Free energy:   -166.549428
Extrapolated:  -166.459742

Fermi level: -4.90826

 Band  Eigenvalues  Occupancy
    0    -23.32869    2.00000
    1    -22.29784    2.00000
    2    -21.43602    2.00000
    3    -21.22386    2.00000
    4    -20.25284    2.00000
    5    -20.16866    2.00000
    6    -19.44474    2.00000
    7    -19.10444    2.00000
    8    -18.61467    2.00000
    9    -18.32996    2.00000
   10    -16.92771    2.00000
   11    -16.82934    2.00000
   12    -16.47002    2.00000
   13    -15.39150    2.00000
   14    -14.81527    2.00000
   15    -14.64890    2.00000
   16    -14.05602    2.00000
   17    -13.44471    2.00000
   18    -13.16306    2.00000
   19    -12.97284    2.00000
   20    -12.54553    2.00000
   21    -11.97060    2.00000
   22    -11.11080    2.00000
   23    -10.96034    2.00000
   24    -10.58520    2.00000
   25    -10.29547    2.00000
   26     -9.92535    2.00000
   27     -9.88719    2.00000
   28     -9.40733    2.00000
   29     -9.09483    2.00000
   30     -8.43542    2.00000
   31     -8.07342    2.00000
   32     -7.98544    2.00000
   33     -7.82108    2.00000
   34     -7.56317    2.00000
   35     -7.44087    2.00000
   36     -7.34552    2.00000
   37     -7.01052    2.00000
   38     -6.88575    2.00000
   39     -6.76527    2.00000
   40     -6.62476    2.00000
   41     -6.37092    2.00000
   42     -6.22506    2.00000
   43     -6.07564    1.99998
   44     -5.54745    1.99666
   45     -5.43740    1.98998
   46     -5.30535    1.96298
   47     -5.13550    1.81313
   48     -4.67838    0.18244
   49     -4.51914    0.04003
   50     -4.40695    0.01321
   51     -4.15565    0.00108
   52     -4.07686    0.00049
   53     -3.78518    0.00003
   54     -3.49554    0.00000
   55     -3.10213    0.00000
   56     -2.65828    0.00000
   57     -2.54022    0.00000
   58     -1.94715    0.00000
   59     -1.70048    0.00000
   60     -1.66318    0.00000
   61     -1.18488    0.00000
   62     -0.12617    0.00000
   63      0.19386    0.00000
   64      0.36776    0.00000
   65      0.85458    0.00000
   66      1.71773    0.00000
   67      2.57047    0.00000
   68      3.23879    0.00000
   69      3.28764    0.00000
   70      4.07791    0.00000
   71      4.14265    0.00000
   72      4.31085    0.00000
   73      5.03339    0.00000
   74      5.66873    0.00000
   75      5.84239    0.00000
   76      6.01249    0.00000
   77      6.33984    0.00000
   78      6.63883    0.00000
   79      7.03215    0.00000
   80      7.20989    0.00000
   81      7.50198    0.00000
   82      7.70734    0.00000
   83      7.80677    0.00000
   84      8.18579    0.00000
   85      8.35006    0.00000
   86      8.36509    0.00000
   87      8.61915    0.00000
   88      8.73539    0.00000
   89      8.95622    0.00000
   90      8.98767    0.00000
   91      9.20708    0.00000
   92      9.34300    0.00000
   93      9.46950    0.00000
   94      9.49192    0.00000
   95      9.59326    0.00000
   96      9.66557    0.00000
   97      9.71467    0.00000


Forces in eV/Ang:
  0 C     0.42790   -0.62044    0.27200
  1 C     1.65491   -0.94256    0.74370
  2 C    -2.99809    2.17032   -0.35961
  3 C     0.51178    2.44000    0.55826
  4 C     0.64580   -2.35648   -0.22773
  5 C    -0.33521   -1.02448   -0.58623
  6 C     0.37846   -0.14150    0.00499
  7 C     0.11456   -0.52427   -0.07457
  8 C    -0.10592    0.18054    0.00131
  9 C    -0.60641    0.05973   -0.07342
 10 C    -0.36871    0.19553   -0.10184
 11 C     0.36242   -0.48686    0.01517
 12 C     1.82361   -0.58400    0.28190
 13 C    -0.32133    0.47360   -0.00838
 14 C     1.51977    0.49152    0.45069
 15 C    -0.91415    0.61642   -0.09663
 16 C     0.16294    0.67616    0.23894
 17 C     0.42395   -0.40506    0.09757
 18 C    -0.54040    2.05421    0.01691
 19 C     0.88962   -1.61293   -0.08016
 20 C    -1.15807   -5.27445   -1.86338
 21 C    -2.09806    4.61163    0.58035
 22 C    -0.28013    0.55823    0.15066
 23 C     0.80955   -0.53648    0.02828

System changes: positions 

Initializing position-dependent things.

Density initialized from wave functions
           .--------------------------------------.  
          /|                                      |  
         / |                                      |  
        /  |                                      |  
       /   |                                      |  
      /    |                                      |  
     /     |                                      |  
    /      |             C  C                     |  
   /       |           C                          |  
  /        |    C  C    C      C                  |  
 *         |        C     C     C  CC             |  
 |         |  C    C     C    C    C              |  
 |         .-C-C------C---------------------------.  
 |        /          C C                         /   
 |       /     C C                              /    
 |      /                                      /     
 |     /                                      /      
 |    /                                      /       
 |   /                                      /        
 |  /                                      /         
 | /                                      /          
 |/                                      /           
 *--------------------------------------*            

Positions:
   0 C     12.016295    7.068108    5.492130
   1 C     12.078415    8.369797    5.350308
   2 C     10.332001    9.899903    4.750712
   3 C      9.636304    8.711508    4.296144
   4 C      9.386501   10.921669    4.821037
   5 C     11.676245    9.614840    5.205203
   6 C      3.433268    6.366245    5.224488
   7 C      4.722792    4.122385    4.902609
   8 C      4.538100    5.495639    5.231181
   9 C      5.736305    3.387987    4.956270
  10 C      3.532979    7.627295    5.526474
  11 C      3.946916    8.869032    5.859393
  12 C      7.049556    3.765028    5.386676
  13 C      5.879025    6.014710    5.643189
  14 C      7.119628    5.216376    5.746295
  15 C      8.267756    3.146454    5.558259
  16 C      5.318981    8.644947    6.092989
  17 C      6.041001    7.369309    5.963806
  18 C      8.554568   10.009151    7.241217
  19 C      7.315940   10.448439    7.003934
  20 C      8.470950    7.200331    6.514255
  21 C      8.368717    5.847535    6.181477
  22 C      6.674318    9.285132    6.552289
  23 C      7.284906    7.954453    6.384511

Unit cell:
           periodic     x           y           z      points  spacing
  1. axis:    yes   16.000000    0.000000    0.000000    80     0.2000
  2. axis:    yes    0.000000   16.000000    0.000000    80     0.2000
  3. axis:    yes    0.000000    0.000000   10.000000    48     0.2083

Effective grid spacing dv^(1/3) = 0.2027

                     log10-error:    total        iterations:
           time      wfs    density  energy       fermi  poisson
iter:   1  09:19:20          +inf  -167.463891    4      5      
iter:   2  09:19:21         -1.72  -167.284257    3      2      
iter:   3  09:19:22         -1.93  -167.178955    3      2      
iter:   4  09:19:22         -2.23  -167.171953    2      2      
iter:   5  09:19:23         -2.35  -167.163175    2      2      
iter:   6  09:19:24         -2.53  -167.164317    3      2      
iter:   7  09:19:24         -2.61  -167.159065    2      1      
iter:   8  09:19:25         -2.69  -167.160122    2      2      
iter:   9  09:19:25         -3.03  -167.159712    2      1      
iter:  10  09:19:26         -3.12  -167.160664    2      2      
iter:  11  09:19:27         -3.40  -167.161793    2      1      
iter:  12  09:19:27         -3.47  -167.161601    2      1      
iter:  13  09:19:28         -3.63  -167.161161    2      1      
iter:  14  09:19:28         -3.75  -167.162014    2      1      
iter:  15  09:19:29         -3.98  -167.160869    2      1      
iter:  16  09:19:29         -4.13  -167.161226    2      1      

Converged after 16 iterations.

Dipole moment: (-0.382553, -0.356963, -0.222600) |e|*Ang

Energy contributions relative to reference atoms: (reference = -24663.074771)

Kinetic:        +99.996330
Potential:     -111.242314
External:        +0.000000
XC:            -158.685452
Entropy (-ST):   -0.122334
Local:           +2.831376
--------------------------
Free energy:   -167.222393
Extrapolated:  -167.161226

Fermi level: -4.85220

 Band  Eigenvalues  Occupancy
    0    -23.33974    2.00000
    1    -22.29327    2.00000
    2    -21.42230    2.00000
    3    -21.28162    2.00000
    4    -20.38289    2.00000
    5    -20.21475    2.00000
    6    -19.51799    2.00000
    7    -19.20684    2.00000
    8    -18.81659    2.00000
    9    -18.39515    2.00000
   10    -16.97297    2.00000
   11    -16.80079    2.00000
   12    -16.55705    2.00000
   13    -15.45807    2.00000
   14    -14.90473    2.00000
   15    -14.72715    2.00000
   16    -14.14156    2.00000
   17    -13.37347    2.00000
   18    -13.29903    2.00000
   19    -12.99948    2.00000
   20    -12.58054    2.00000
   21    -11.99952    2.00000
   22    -11.25801    2.00000
   23    -10.99431    2.00000
   24    -10.59354    2.00000
   25    -10.36905    2.00000
   26     -9.97956    2.00000
   27     -9.92830    2.00000
   28     -9.40503    2.00000
   29     -9.15423    2.00000
   30     -8.33466    2.00000
   31     -8.12546    2.00000
   32     -7.98115    2.00000
   33     -7.84832    2.00000
   34     -7.56768    2.00000
   35     -7.45132    2.00000
   36     -7.38048    2.00000
   37     -7.05242    2.00000
   38     -6.95915    2.00000
   39     -6.85091    2.00000
   40     -6.64253    2.00000
   41     -6.37016    2.00000
   42     -6.23319    2.00000
   43     -6.20156    2.00000
   44     -5.63250    1.99918
   45     -5.42181    1.99330
   46     -5.28281    1.97339
   47     -5.14471    1.89814
   48     -4.54881    0.09184
   49     -4.40589    0.02279
   50     -4.38165    0.01793
   51     -4.17240    0.00223
   52     -4.10584    0.00115
   53     -3.79302    0.00005
   54     -3.48333    0.00000
   55     -3.07818    0.00000
   56     -2.61419    0.00000
   57     -2.42874    0.00000
   58     -1.89984    0.00000
   59     -1.65417    0.00000
   60     -1.62684    0.00000
   61     -1.24295    0.00000
   62      0.03794    0.00000
   63      0.18288    0.00000
   64      0.45899    0.00000
   65      1.00174    0.00000
   66      1.72300    0.00000
   67      2.62134    0.00000
   68      3.16558    0.00000
   69      3.28847    0.00000
   70      4.07165    0.00000
   71      4.14887    0.00000
   72      4.30269    0.00000
   73      5.07987    0.00000
   74      5.61200    0.00000
   75      5.79764    0.00000
   76      6.19029    0.00000
   77      6.42593    0.00000
   78      6.58643    0.00000
   79      7.18049    0.00000
   80      7.28485    0.00000
   81      7.56807    0.00000
   82      7.75126    0.00000
   83      7.81549    0.00000
   84      8.28264    0.00000
   85      8.37657    0.00000
   86      8.41606    0.00000
   87      8.66291    0.00000
   88      8.74594    0.00000
   89      8.94158    0.00000
   90      9.02929    0.00000
   91      9.17671    0.00000
   92      9.37516    0.00000
   93      9.44480    0.00000
   94      9.52921    0.00000
   95      9.57876    0.00000
   96      9.67510    0.00000
   97      9.77862    0.00000


Forces in eV/Ang:
  0 C     0.43709   -0.70049    0.29812
  1 C     1.33763   -0.56001    0.58965
  2 C    -1.38492    1.21647   -0.16397
  3 C     0.29824    2.24357    0.37945
  4 C    -0.28184   -1.44997   -0.20242
  5 C    -0.49218   -1.05418   -0.59196
  6 C     0.26896   -0.04410    0.00774
  7 C    -0.18616   -0.12385   -0.03867
  8 C    -0.04812    0.07046   -0.01783
  9 C     0.18649   -0.11140    0.06909
 10 C    -0.23945    0.04448   -0.11141
 11 C     0.26004   -0.30749    0.03094
 12 C     0.72891   -0.25865    0.08774
 13 C    -0.04318    0.11954   -0.01585
 14 C     1.22850    0.25825    0.33857
 15 C    -0.34207    0.21865   -0.04504
 16 C     0.28801    0.41236    0.21978
 17 C     0.48524   -0.01768    0.17671
 18 C     0.21396    1.81955    0.19701
 19 C     0.24069   -1.15082   -0.15695
 20 C    -1.27609   -4.00180   -1.48892
 21 C    -2.04941    3.46921    0.33525
 22 C    -0.16026    0.12401    0.08491
 23 C     0.47886   -0.22696    0.01676

System changes: positions 

Initializing position-dependent things.

Density initialized from wave functions
           .--------------------------------------.  
          /|                                      |  
         / |                                      |  
        /  |                                      |  
       /   |                                      |  
      /    |                                      |  
     /     |                                      |  
    /      |             C  C                     |  
   /       |           C                          |  
  /        |    C  C    C      C                  |  
 *         |        C     C     C  CC             |  
 |         |  C    C     C    C    C              |  
 |         .-C-C------C---------------------------.  
 |        /          C C                         /   
 |       /     C C                              /    
 |      /                                      /     
 |     /                                      /      
 |    /                                      /       
 |   /                                      /        
 |  /                                      /         
 | /                                      /          
 |/                                      /           
 *--------------------------------------*            

Positions:
   0 C     12.020567    7.061085    5.495097
   1 C     12.090557    8.365386    5.355623
   2 C     10.322890    9.909153    4.749646
   3 C      9.638627    8.732780    4.299349
   4 C      9.381263   10.910023    4.819138
   5 C     11.671040    9.604516    5.199435
   6 C      3.435586    6.366079    5.224571
   7 C      4.720172    4.122260    4.902330
   8 C      4.537788    5.496027    5.230956
   9 C      5.740254    3.386443    4.957325
  10 C      3.531001    7.627320    5.525366
  11 C      3.949167    8.866527    5.859736
  12 C      7.053689    3.763391    5.387006
  13 C      5.879355    6.014918    5.643014
  14 C      7.130780    5.218257    5.749283
  15 C      8.265973    3.147507    5.557960
  16 C      5.322116    8.648243    6.095073
  17 C      6.045881    7.370181    5.965737
  18 C      8.558680   10.026199    7.243616
  19 C      7.316530   10.438502    7.002202
  20 C      8.458232    7.164875    6.500796
  21 C      8.348934    5.878167    6.184074
  22 C      6.673084    9.285167    6.552937
  23 C      7.288668    7.953081    6.384643

Unit cell:
           periodic     x           y           z      points  spacing
  1. axis:    yes   16.000000    0.000000    0.000000    80     0.2000
  2. axis:    yes    0.000000   16.000000    0.000000    80     0.2000
  3. axis:    yes    0.000000    0.000000   10.000000    48     0.2083

Effective grid spacing dv^(1/3) = 0.2027

                     log10-error:    total        iterations:
           time      wfs    density  energy       fermi  poisson
iter:   1  09:19:32          +inf  -167.851655    3      5      
iter:   2  09:19:32         -1.85  -167.731661    3      2      
iter:   3  09:19:33         -2.02  -167.634089    3      2      
iter:   4  09:19:33         -2.29  -167.631415    2      2      
iter:   5  09:19:34         -2.43  -167.624426    2      2      
iter:   6  09:19:35         -2.59  -167.622050    2      2      
iter:   7  09:19:35         -2.76  -167.617512    2      1      
iter:   8  09:19:36         -2.83  -167.620685    2      2      
iter:   9  09:19:36         -3.23  -167.621659    2      1      
iter:  10  09:19:37         -3.34  -167.619105    2      1      
iter:  11  09:19:38         -3.62  -167.622160    2      1      
iter:  12  09:19:38         -3.66  -167.622708    2      1      
iter:  13  09:19:39         -3.80  -167.621296    2      1      
iter:  14  09:19:39         -3.98  -167.622099    2      1      
iter:  15  09:19:40         -4.13  -167.622157    2      1      

Converged after 15 iterations.

Dipole moment: (-0.348115, -0.405573, -0.201778) |e|*Ang

Energy contributions relative to reference atoms: (reference = -24663.074771)

Kinetic:       +105.004071
Potential:     -115.235497
External:        +0.000000
XC:            -160.188691
Entropy (-ST):   -0.093929
Local:           +2.844924
--------------------------
Free energy:   -167.669121
Extrapolated:  -167.622157

Fermi level: -4.80567

 Band  Eigenvalues  Occupancy
    0    -23.36489    2.00000
    1    -22.29122    2.00000
    2    -21.46620    2.00000
    3    -21.32923    2.00000
    4    -20.50222    2.00000
    5    -20.21025    2.00000
    6    -19.55378    2.00000
    7    -19.27911    2.00000
    8    -18.94459    2.00000
    9    -18.39761    2.00000
   10    -17.00189    2.00000
   11    -16.79236    2.00000
   12    -16.60044    2.00000
   13    -15.50250    2.00000
   14    -14.93544    2.00000
   15    -14.80041    2.00000
   16    -14.18781    2.00000
   17    -13.39853    2.00000
   18    -13.39706    2.00000
   19    -13.00893    2.00000
   20    -12.58595    2.00000
   21    -12.02325    2.00000
   22    -11.40460    2.00000
   23    -11.01725    2.00000
   24    -10.61356    2.00000
   25    -10.37372    2.00000
   26    -10.02152    2.00000
   27     -9.93135    2.00000
   28     -9.42940    2.00000
   29     -9.20742    2.00000
   30     -8.30629    2.00000
   31     -8.16327    2.00000
   32     -7.96308    2.00000
   33     -7.84075    2.00000
   34     -7.57215    2.00000
   35     -7.46025    2.00000
   36     -7.38998    2.00000
   37     -7.11584    2.00000
   38     -6.97852    2.00000
   39     -6.94961    2.00000
   40     -6.63555    2.00000
   41     -6.40741    2.00000
   42     -6.29773    2.00000
   43     -6.22167    2.00000
   44     -5.66336    1.99962
   45     -5.40844    1.99519
   46     -5.23062    1.97186
   47     -5.15444    1.94067
   48     -4.41734    0.04034
   49     -4.40427    0.03548
   50     -4.28968    0.01142
   51     -4.18714    0.00411
   52     -4.06665    0.00123
   53     -3.78820    0.00008
   54     -3.44321    0.00000
   55     -3.10574    0.00000
   56     -2.56454    0.00000
   57     -2.30129    0.00000
   58     -1.85876    0.00000
   59     -1.62860    0.00000
   60     -1.60798    0.00000
   61     -1.30076    0.00000
   62      0.07504    0.00000
   63      0.14119    0.00000
   64      0.54340    0.00000
   65      1.13008    0.00000
   66      1.74101    0.00000
   67      2.64636    0.00000
   68      3.14845    0.00000
   69      3.32263    0.00000
   70      4.10734    0.00000
   71      4.18911    0.00000
   72      4.30480    0.00000
   73      5.12203    0.00000
   74      5.50213    0.00000
   75      5.83189    0.00000
   76      6.28936    0.00000
   77      6.51684    0.00000
   78      6.59355    0.00000
   79      7.18885    0.00000
   80      7.30064    0.00000
   81      7.63731    0.00000
   82      7.73956    0.00000
   83      7.83866    0.00000
   84      8.37243    0.00000
   85      8.40087    0.00000
   86      8.46675    0.00000
   87      8.68076    0.00000
   88      8.80153    0.00000
   89      8.92835    0.00000
   90      9.08926    0.00000
   91      9.17267    0.00000
   92      9.42882    0.00000
   93      9.43735    0.00000
   94      9.53053    0.00000
   95      9.59253    0.00000
   96      9.70407    0.00000
   97      9.82863    0.00000


Forces in eV/Ang:
  0 C     0.45335   -0.52180    0.28158
  1 C     1.15711   -0.58917    0.49741
  2 C    -0.41508    0.89035   -0.01462
  3 C     0.04297    1.91209    0.21149
  4 C    -0.78895   -0.96771   -0.17152
  5 C    -0.48078   -1.02220   -0.52891
  6 C     0.18630   -0.02164   -0.00052
  7 C     0.24841   -0.39228   -0.00446
  8 C     0.02215    0.06263   -0.00556
  9 C    -0.20921    0.14532    0.02892
 10 C    -0.10691    0.05386   -0.08210
 11 C     0.25251   -0.20565    0.05636
 12 C     0.57679   -0.13234    0.08202
 13 C     0.17518    0.04402    0.02063
 14 C     0.72676    0.04313    0.16753
 15 C    -0.18750    0.07776   -0.03409
 16 C     0.19266    0.26421    0.17057
 17 C     0.41197   -0.05730    0.13569
 18 C     0.35322    1.77419    0.21270
 19 C     0.20039   -0.87873   -0.09420
 20 C    -1.15332   -1.74485   -0.88257
 21 C    -1.90185    1.35933   -0.11130
 22 C    -0.10651   -0.07606    0.05146
 23 C     0.33574   -0.07912    0.02349

System changes: positions 

Initializing position-dependent things.

Density initialized from wave functions
           .--------------------------------------.  
          /|                                      |  
         / |                                      |  
        /  |                                      |  
       /   |                                      |  
      /    |                                      |  
     /     |                                      |  
    /      |             C  C                     |  
   /       |           C                          |  
  /        |    C  C    C      C                  |  
 *         |        C     C     C  CC             |  
 |         |  C    C     C    C    C              |  
 |         .-C-C------C---------------------------.  
 |        /          C C                         /   
 |       /     C C                              /    
 |      /                                      /     
 |     /                                      /      
 |    /                                      /       
 |   /                                      /        
 |  /                                      /         
 | /                                      /          
 |/                                      /           
 *--------------------------------------*            

Positions:
   0 C     12.028649    7.051749    5.500140
   1 C     12.110536    8.355528    5.364176
   2 C     10.318557    9.923282    4.749768
   3 C      9.638936    8.766319    4.302747
   4 C      9.365504   10.894504    4.816143
   5 C     11.662238    9.586305    5.190048
   6 C      3.438685    6.365863    5.224563
   7 C      4.724271    4.115835    4.902324
   8 C      4.538306    5.496957    5.230830
   9 C      5.737677    3.388850    4.958058
  10 C      3.529366    7.628033    5.523902
  11 C      3.953485    8.863207    5.860774
  12 C      7.062082    3.761624    5.388142
  13 C      5.883015    6.015087    5.643384
  14 C      7.143019    5.218553    5.752007
  15 C      8.263643    3.148178    5.557444
  16 C      5.325709    8.652447    6.098055
  17 C      6.053277    7.369783    5.968263
  18 C      8.566257   10.057340    7.247701
  19 C      7.319010   10.423748    7.000427
  20 C      8.437581    7.136861    6.485966
  21 C      8.315259    5.899601    6.181511
  22 C      6.671409    9.283019    6.553730
  23 C      7.294036    7.952244    6.385044

Unit cell:
           periodic     x           y           z      points  spacing
  1. axis:    yes   16.000000    0.000000    0.000000    80     0.2000
  2. axis:    yes    0.000000   16.000000    0.000000    80     0.2000
  3. axis:    yes    0.000000    0.000000   10.000000    48     0.2083

Effective grid spacing dv^(1/3) = 0.2027

                     log10-error:    total        iterations:
           time      wfs    density  energy       fermi  poisson
iter:   1  09:19:42          +inf  -168.150911    2      5      
iter:   2  09:19:43         -1.90  -168.064719    2      2      
iter:   3  09:19:43         -2.05  -167.986741    2      2      
iter:   4  09:19:44         -2.27  -167.984863    2      2      
iter:   5  09:19:45         -2.42  -167.978960    2      2      
iter:   6  09:19:45         -2.57  -167.975414    2      2      
iter:   7  09:19:46         -2.78  -167.976361    2      2      
iter:   8  09:19:46         -2.90  -167.975526    2      2      
iter:   9  09:19:47         -3.19  -167.974143    2      1      
iter:  10  09:19:48         -3.31  -167.974391    2      1      
iter:  11  09:19:48         -3.53  -167.976554    2      1      
iter:  12  09:19:49         -3.60  -167.976889    2      1      
iter:  13  09:19:49         -3.72  -167.976826    2      1      
iter:  14  09:19:50         -3.82  -167.976642    1      1      
iter:  15  09:19:51         -3.87  -167.976900    2      1      
iter:  16  09:19:51         -3.92  -167.976517    2      1      
iter:  17  09:19:52         -4.00  -167.975994    1      1      

Converged after 17 iterations.

Dipole moment: (-0.312819, -0.410535, -0.183213) |e|*Ang

Energy contributions relative to reference atoms: (reference = -24663.074771)

Kinetic:       +112.706003
Potential:     -121.283512
External:        +0.000000
XC:            -162.240272
Entropy (-ST):   -0.082575
Local:           +2.883074
--------------------------
Free energy:   -168.017282
Extrapolated:  -167.975994

Fermi level: -4.79296

 Band  Eigenvalues  Occupancy
    0    -23.40206    2.00000
    1    -22.28515    2.00000
    2    -21.56229    2.00000
    3    -21.40446    2.00000
    4    -20.61800    2.00000
    5    -20.20268    2.00000
    6    -19.57850    2.00000
    7    -19.37824    2.00000
    8    -19.03891    2.00000
    9    -18.41718    2.00000
   10    -17.03360    2.00000
   11    -16.82738    2.00000
   12    -16.66681    2.00000
   13    -15.54087    2.00000
   14    -14.93805    2.00000
   15    -14.83690    2.00000
   16    -14.25183    2.00000
   17    -13.50361    2.00000
   18    -13.48708    2.00000
   19    -13.01992    2.00000
   20    -12.58992    2.00000
   21    -12.05239    2.00000
   22    -11.52126    2.00000
   23    -11.04745    2.00000
   24    -10.62514    2.00000
   25    -10.35235    2.00000
   26    -10.07611    2.00000
   27     -9.93286    2.00000
   28     -9.48166    2.00000
   29     -9.27823    2.00000
   30     -8.32809    2.00000
   31     -8.18962    2.00000
   32     -7.94517    2.00000
   33     -7.81857    2.00000
   34     -7.58447    2.00000
   35     -7.48552    2.00000
   36     -7.39241    2.00000
   37     -7.16033    2.00000
   38     -7.02964    2.00000
   39     -7.00183    2.00000
   40     -6.61445    2.00000
   41     -6.44848    2.00000
   42     -6.35396    2.00000
   43     -6.22896    2.00000
   44     -5.70482    1.99978
   45     -5.41362    1.99598
   46     -5.20649    1.96851
   47     -5.17096    1.95537
   48     -4.42761    0.05050
   49     -4.32986    0.01930
   50     -4.22914    0.00709
   51     -4.14023    0.00292
   52     -3.96355    0.00050
   53     -3.72460    0.00005
   54     -3.36949    0.00000
   55     -3.03109    0.00000
   56     -2.50824    0.00000
   57     -2.10466    0.00000
   58     -1.82333    0.00000
   59     -1.60067    0.00000
   60     -1.56946    0.00000
   61     -1.26805    0.00000
   62     -0.02129    0.00000
   63      0.15842    0.00000
   64      0.62470    0.00000
   65      1.32083    0.00000
   66      1.78668    0.00000
   67      2.65773    0.00000
   68      3.10801    0.00000
   69      3.37725    0.00000
   70      4.13974    0.00000
   71      4.27458    0.00000
   72      4.34759    0.00000
   73      5.15914    0.00000
   74      5.44440    0.00000
   75      5.95588    0.00000
   76      6.25547    0.00000
   77      6.53719    0.00000
   78      6.68526    0.00000
   79      7.15870    0.00000
   80      7.31587    0.00000
   81      7.71628    0.00000
   82      7.73887    0.00000
   83      7.86317    0.00000
   84      8.41478    0.00000
   85      8.49787    0.00000
   86      8.55453    0.00000
   87      8.71428    0.00000
   88      8.86473    0.00000
   89      8.93494    0.00000
   90      9.13321    0.00000
   91      9.22691    0.00000
   92      9.42543    0.00000
   93      9.50362    0.00000
   94      9.55735    0.00000
   95      9.62568    0.00000
   96      9.73517    0.00000
   97      9.86712    0.00000


Forces in eV/Ang:
  0 C     0.44173   -0.52001    0.27892
  1 C     0.84499   -0.21367    0.33151
  2 C     0.70067    0.78070    0.20534
  3 C    -0.36585    1.40338   -0.00830
  4 C    -1.19624   -0.59002   -0.13465
  5 C    -0.40793   -1.11946   -0.42277
  6 C     0.10562   -0.00155   -0.01197
  7 C    -0.42437    0.30109    0.01108
  8 C     0.20785   -0.08905   -0.00786
  9 C     0.70614   -0.27761    0.13698
 10 C     0.01856    0.03753   -0.05516
 11 C     0.16370   -0.09242    0.07205
 12 C     0.01311   -0.04468   -0.03942
 13 C     0.16054   -0.05904    0.00153
 14 C    -0.07856   -0.33019   -0.11151
 15 C     0.10956   -0.12489   -0.00020
 16 C     0.19634   -0.00556    0.11055
 17 C     0.16574    0.00643    0.08519
 18 C     0.59288    1.70179    0.24063
 19 C     0.04705   -0.52899   -0.02309
 20 C    -0.64003    0.72682   -0.12390
 21 C    -1.31057   -0.88457   -0.48760
 22 C    -0.07704   -0.24034    0.01489
 23 C     0.02080    0.13688    0.01196

System changes: positions 

Initializing position-dependent things.

Density initialized from wave functions
           .--------------------------------------.  
          /|                                      |  
         / |                                      |  
        /  |                                      |  
       /   |                                      |  
      /    |                                      |  
     /     |                                      |  
    /      |             C  C                     |  
   /       |           C                          |  
  /        |    C  C    C      C                  |  
 *         |        C     C     C  CC             |  
 |         |  C    C     C    C    C              |  
 |         .-C--C-----C---------------------------.  
 |        /          C C                         /   
 |       /     C C                              /    
 |      /                                      /     
 |     /                                      /      
 |    /                                      /       
 |   /                                      /        
 |  /                                      /         
 | /                                      /          
 |/                                      /           
 *--------------------------------------*            

Positions:
   0 C     12.038424    7.039937    5.506314
   1 C     12.132569    8.347309    5.373270
   2 C     10.320375    9.943345    4.751858
   3 C      9.635164    8.802511    4.305021
   4 C      9.344913   10.876085    4.812764
   5 C     11.652809    9.562416    5.179705
   6 C      3.442018    6.365489    5.224411
   7 C      4.719812    4.116879    4.902311
   8 C      4.541097    5.496409    5.230669
   9 C      5.745636    3.385826    4.960103
  10 C      3.528249    7.629155    5.522403
  11 C      3.957971    8.859763    5.862149
  12 C      7.068755    3.759207    5.388532
  13 C      5.885799    6.015258    5.643496
  14 C      7.149572    5.215196    5.752428
  15 C      8.262515    3.147940    5.557068
  16 C      5.330086    8.655251    6.101133
  17 C      6.059081    7.369024    5.970564
  18 C      8.576068   10.095819    7.252512
  19 C      7.322204   10.407961    6.999265
  20 C      8.419058    7.125223    6.474983
  21 C      8.281056    5.905351    6.175296
  22 C      6.669190    9.280109    6.554524
  23 C      7.297864    7.952724    6.385401

Unit cell:
           periodic     x           y           z      points  spacing
  1. axis:    yes   16.000000    0.000000    0.000000    80     0.2000
  2. axis:    yes    0.000000   16.000000    0.000000    80     0.2000
  3. axis:    yes    0.000000    0.000000   10.000000    48     0.2083

Effective grid spacing dv^(1/3) = 0.2027

                     log10-error:    total        iterations:
           time      wfs    density  energy       fermi  poisson
iter:   1  09:19:54          +inf  -168.314605    2      5      
iter:   2  09:19:54         -2.05  -168.279954    2      2      
iter:   3  09:19:55         -2.17  -168.244453    2      2      
iter:   4  09:19:56         -2.39  -168.242808    2      2      
iter:   5  09:19:56         -2.56  -168.238833    2      1      
iter:   6  09:19:57         -2.65  -168.238597    2      2      
iter:   7  09:19:57         -2.89  -168.236327    2      1      
iter:   8  09:19:58         -3.02  -168.239517    2      2      
iter:   9  09:19:59         -3.30  -168.239669    2      1      
iter:  10  09:19:59         -3.41  -168.239284    1      1      
iter:  11  09:20:00         -3.59  -168.238361    1      1      
iter:  12  09:20:00         -3.82  -168.239685    2      1      
iter:  13  09:20:01         -3.88  -168.240594    2      1      
iter:  14  09:20:02         -4.05  -168.239453    1      1      

Converged after 14 iterations.

Dipole moment: (-0.284832, -0.409759, -0.170372) |e|*Ang

Energy contributions relative to reference atoms: (reference = -24663.074771)

Kinetic:       +117.212824
Potential:     -124.736918
External:        +0.000000
XC:            -163.536220
Entropy (-ST):   -0.083033
Local:           +2.862377
--------------------------
Free energy:   -168.280970
Extrapolated:  -168.239453

Fermi level: -4.79691

 Band  Eigenvalues  Occupancy
    0    -23.43519    2.00000
    1    -22.29374    2.00000
    2    -21.65721    2.00000
    3    -21.45790    2.00000
    4    -20.66513    2.00000
    5    -20.21005    2.00000
    6    -19.56953    2.00000
    7    -19.46537    2.00000
    8    -19.02971    2.00000
    9    -18.42629    2.00000
   10    -17.09214    2.00000
   11    -16.86259    2.00000
   12    -16.70863    2.00000
   13    -15.54094    2.00000
   14    -14.94834    2.00000
   15    -14.81031    2.00000
   16    -14.31291    2.00000
   17    -13.63261    2.00000
   18    -13.52849    2.00000
   19    -13.04533    2.00000
   20    -12.60241    2.00000
   21    -12.10336    2.00000
   22    -11.56614    2.00000
   23    -11.06916    2.00000
   24    -10.63273    2.00000
   25    -10.32933    2.00000
   26    -10.11888    2.00000
   27     -9.93503    2.00000
   28     -9.52971    2.00000
   29     -9.32594    2.00000
   30     -8.34676    2.00000
   31     -8.19663    2.00000
   32     -7.94672    2.00000
   33     -7.78376    2.00000
   34     -7.59275    2.00000
   35     -7.48934    2.00000
   36     -7.37288    2.00000
   37     -7.15052    2.00000
   38     -7.03315    2.00000
   39     -6.99610    2.00000
   40     -6.57886    2.00000
   41     -6.50297    2.00000
   42     -6.35583    2.00000
   43     -6.20774    2.00000
   44     -5.72459    1.99981
   45     -5.41945    1.99605
   46     -5.24026    1.97653
   47     -5.15110    1.94371
   48     -4.45167    0.06139
   49     -4.30970    0.01520
   50     -4.21871    0.00615
   51     -4.02859    0.00092
   52     -3.88187    0.00021
   53     -3.65559    0.00002
   54     -3.28845    0.00000
   55     -3.06040    0.00000
   56     -2.47066    0.00000
   57     -1.85026    0.00000
   58     -1.80765    0.00000
   59     -1.55693    0.00000
   60     -1.49294    0.00000
   61     -1.27261    0.00000
   62     -0.16607    0.00000
   63      0.14327    0.00000
   64      0.68781    0.00000
   65      1.42707    0.00000
   66      1.82493    0.00000
   67      2.65133    0.00000
   68      3.08257    0.00000
   69      3.41091    0.00000
   70      4.15779    0.00000
   71      4.35397    0.00000
   72      4.43006    0.00000
   73      5.19727    0.00000
   74      5.48042    0.00000
   75      6.02603    0.00000
   76      6.13654    0.00000
   77      6.59113    0.00000
   78      6.81004    0.00000
   79      7.15103    0.00000
   80      7.36127    0.00000
   81      7.71181    0.00000
   82      7.83693    0.00000
   83      7.89577    0.00000
   84      8.45817    0.00000
   85      8.59396    0.00000
   86      8.63207    0.00000
   87      8.75742    0.00000
   88      8.92135    0.00000
   89      8.97802    0.00000
   90      9.18499    0.00000
   91      9.28413    0.00000
   92      9.42495    0.00000
   93      9.51153    0.00000
   94      9.62799    0.00000
   95      9.71773    0.00000
   96      9.78324    0.00000
   97      9.90295    0.00000


Forces in eV/Ang:
  0 C     0.45617   -0.29004    0.26458
  1 C     0.60302   -0.28522    0.23605
  2 C     1.78740    0.55416    0.40858
  3 C    -0.75463    1.00993   -0.18338
  4 C    -1.54178   -0.32021   -0.12905
  5 C    -0.51510   -0.91763   -0.35468
  6 C     0.06152    0.12954    0.00939
  7 C     0.41954   -0.33463    0.04816
  8 C     0.23130   -0.01518    0.01491
  9 C    -0.14734    0.22752    0.05571
 10 C     0.06407   -0.08818   -0.06588
 11 C     0.15332   -0.00940    0.09613
 12 C    -0.29077    0.02184   -0.09053
 13 C     0.10765   -0.09901   -0.01482
 14 C    -0.93139   -0.63752   -0.37620
 15 C     0.42310   -0.28948    0.04584
 16 C     0.13265   -0.17564    0.06096
 17 C    -0.07536    0.01014    0.02443
 18 C     0.82282    1.60924    0.23517
 19 C    -0.07478   -0.22734    0.03246
 20 C    -0.11208    1.61650    0.23156
 21 C    -0.48501   -1.48129   -0.44237
 22 C    -0.07914   -0.32886   -0.01481
 23 C    -0.28198    0.30460   -0.00530

System changes: positions 

Initializing position-dependent things.

Density initialized from wave functions
           .--------------------------------------.  
          /|                                      |  
         / |                                      |  
        /  |                                      |  
       /   |                                      |  
      /    |                                      |  
     /     |                                      |  
    /      |             C  C                     |  
   /       |           C                          |  
  /        |    C  C    C      C                  |  
 *         |        C     C     C  CC             |  
 |         |  C    C     C    C    C              |  
 |         .-C--C-----C---------------------------.  
 |        /          C C                         /   
 |       /     C C                              /    
 |      /                                      /     
 |     /                                      /      
 |    /                                      /       
 |   /                                      /        
 |  /                                      /         
 | /                                      /          
 |/                                      /           
 *--------------------------------------*            

Positions:
   0 C     12.048364    7.030044    5.512397
   1 C     12.152759    8.338316    5.381670
   2 C     10.330609    9.962474    4.755663
   3 C      9.627958    8.835543    4.305898
   4 C      9.322089   10.858952    4.809369
   5 C     11.642414    9.540237    5.169911
   6 C      3.445112    6.366284    5.224470
   7 C      4.722650    4.112291    4.902585
   8 C      4.544076    5.496582    5.230720
   9 C      5.745945    3.387158    4.961396
  10 C      3.527330    7.629154    5.520765
  11 C      3.962425    8.856869    5.863722
  12 C      7.073255    3.757035    5.388515
  13 C      5.887547    6.015357    5.643389
  14 C      7.148521    5.209162    5.750502
  15 C      8.263913    3.146508    5.557098
  16 C      5.333942    8.656712    6.103813
  17 C      6.062544    7.368120    5.972278
  18 C      8.587539   10.133855    7.257166
  19 C      7.324682   10.394409    6.998623
  20 C      8.405657    7.118922    6.466532
  21 C      8.254628    5.908347    6.170157
  22 C      6.666784    9.276859    6.555116
  23 C      7.299092    7.954488    6.385585

Unit cell:
           periodic     x           y           z      points  spacing
  1. axis:    yes   16.000000    0.000000    0.000000    80     0.2000
  2. axis:    yes    0.000000   16.000000    0.000000    80     0.2000
  3. axis:    yes    0.000000    0.000000   10.000000    48     0.2083

Effective grid spacing dv^(1/3) = 0.2027

                     log10-error:    total        iterations:
           time      wfs    density  energy       fermi  poisson
iter:   1  09:20:04          +inf  -168.494041    3      5      
iter:   2  09:20:04         -2.21  -168.481212    2      1      
iter:   3  09:20:05         -2.31  -168.468416    2      2      
iter:   4  09:20:06         -2.52  -168.471067    2      2      
iter:   5  09:20:06         -2.60  -168.467978    3      2      
iter:   6  09:20:07         -2.54  -168.466866    2      2      
iter:   7  09:20:07         -3.12  -168.466318    2      1      
iter:   8  09:20:08         -3.25  -168.464699    2      1      
iter:   9  09:20:09         -3.58  -168.467012    2      1      
iter:  10  09:20:09         -3.63  -168.467962    2      1      
iter:  11  09:20:10         -3.81  -168.466989    2      1      
iter:  12  09:20:10         -3.96  -168.467727    2      1      
iter:  13  09:20:11         -4.05  -168.467749    2      1      

Converged after 13 iterations.

Dipole moment: (-0.278017, -0.409015, -0.161518) |e|*Ang

Energy contributions relative to reference atoms: (reference = -24663.074771)

Kinetic:       +120.183440
Potential:     -127.024612
External:        +0.000000
XC:            -164.454005
Entropy (-ST):   -0.088105
Local:           +2.871480
--------------------------
Free energy:   -168.511802
Extrapolated:  -168.467749

Fermi level: -4.80261

 Band  Eigenvalues  Occupancy
    0    -23.47422    2.00000
    1    -22.32007    2.00000
    2    -21.72663    2.00000
    3    -21.48835    2.00000
    4    -20.69635    2.00000
    5    -20.20817    2.00000
    6    -19.57252    2.00000
    7    -19.48124    2.00000
    8    -19.04556    2.00000
    9    -18.44162    2.00000
   10    -17.12704    2.00000
   11    -16.89951    2.00000
   12    -16.73861    2.00000
   13    -15.54868    2.00000
   14    -14.97116    2.00000
   15    -14.70050    2.00000
   16    -14.37399    2.00000
   17    -13.74872    2.00000
   18    -13.56446    2.00000
   19    -13.06349    2.00000
   20    -12.61426    2.00000
   21    -12.15227    2.00000
   22    -11.57903    2.00000
   23    -11.09405    2.00000
   24    -10.64425    2.00000
   25    -10.32938    2.00000
   26    -10.14704    2.00000
   27     -9.94956    2.00000
   28     -9.56509    2.00000
   29     -9.35497    2.00000
   30     -8.36352    2.00000
   31     -8.19884    2.00000
   32     -7.94805    2.00000
   33     -7.76548    2.00000
   34     -7.60003    2.00000
   35     -7.48427    2.00000
   36     -7.37768    2.00000
   37     -7.13215    2.00000
   38     -7.03450    2.00000
   39     -6.99392    2.00000
   40     -6.55734    2.00000
   41     -6.52998    2.00000
   42     -6.36209    2.00000
   43     -6.19305    2.00000
   44     -5.74331    1.99984
   45     -5.43424    1.99639
   46     -5.26046    1.97967
   47     -5.13592    1.93110
   48     -4.47533    0.07303
   49     -4.30483    0.01368
   50     -4.21947    0.00585
   51     -3.93008    0.00032
   52     -3.81066    0.00010
   53     -3.58370    0.00001
   54     -3.19958    0.00000
   55     -3.01781    0.00000
   56     -2.44278    0.00000
   57     -1.80896    0.00000
   58     -1.64244    0.00000
   59     -1.51154    0.00000
   60     -1.37827    0.00000
   61     -1.22748    0.00000
   62     -0.27290    0.00000
   63      0.08837    0.00000
   64      0.71672    0.00000
   65      1.50523    0.00000
   66      1.86307    0.00000
   67      2.62233    0.00000
   68      3.05785    0.00000
   69      3.44867    0.00000
   70      4.16189    0.00000
   71      4.42262    0.00000
   72      4.51038    0.00000
   73      5.22956    0.00000
   74      5.51522    0.00000
   75      5.73340    0.00000
   76      6.22425    0.00000
   77      6.57975    0.00000
   78      6.89916    0.00000
   79      7.16313    0.00000
   80      7.39017    0.00000
   81      7.71212    0.00000
   82      7.89519    0.00000
   83      7.93330    0.00000
   84      8.50103    0.00000
   85      8.65087    0.00000
   86      8.68199    0.00000
   87      8.78161    0.00000
   88      8.96799    0.00000
   89      9.03714    0.00000
   90      9.22837    0.00000
   91      9.31774    0.00000
   92      9.42442    0.00000
   93      9.51636    0.00000
   94      9.64926    0.00000
   95      9.79432    0.00000
   96      9.81414    0.00000
   97      9.96975    0.00000


Forces in eV/Ang:
  0 C     0.45343   -0.20588    0.22229
  1 C     0.37860   -0.06965    0.08423
  2 C     2.22081    0.49403    0.50045
  3 C    -1.01243    0.93203   -0.23003
  4 C    -1.53942   -0.45206   -0.13121
  5 C    -0.47127   -0.90721   -0.22670
  6 C     0.05519    0.04880   -0.01255
  7 C     0.06691    0.02375    0.05112
  8 C     0.23163   -0.09481   -0.00688
  9 C     0.23481   -0.01579    0.08131
 10 C     0.12161   -0.00771   -0.02809
 11 C     0.09685    0.01943    0.08541
 12 C    -0.51178   -0.02960   -0.14637
 13 C    -0.00317   -0.16112   -0.04933
 14 C    -1.36004   -0.77052   -0.49967
 15 C     0.53155   -0.35678    0.05747
 16 C     0.06428   -0.31736    0.01099
 17 C    -0.22591    0.05218   -0.00992
 18 C     0.77530    1.56479    0.17026
 19 C     0.01622   -0.03846    0.11800
 20 C     0.24932    2.04620    0.41874
 21 C     0.13214   -1.76057   -0.37445
 22 C    -0.06719   -0.33870   -0.02197
 23 C    -0.43784    0.33941   -0.02519

System changes: positions 

Initializing position-dependent things.

Density initialized from wave functions
           .--------------------------------------.  
          /|                                      |  
         / |                                      |  
        /  |                                      |  
       /   |                                      |  
      /    |                                      |  
     /     |                                      |  
    /      |             C  C                     |  
   /       |           C                          |  
  /        |    C  C    C     C                   |  
 *         |        C     C     C  CC             |  
 |         |  C    C     C    C    C              |  
 |         .-C--C-----C---------------------------.  
 |        /          C C                         /   
 |       /     C C                              /    
 |      /                                      /     
 |     /                                      /      
 |    /                                      /       
 |   /                                      /        
 |  /                                      /         
 | /                                      /          
 |/                                      /           
 *--------------------------------------*            

Positions:
   0 C     12.058437    7.020901    5.518142
   1 C     12.171316    8.330936    5.388840
   2 C     10.344133    9.981766    4.760261
   3 C      9.618342    8.868619    4.306496
   4 C      9.299511   10.839680    4.805872
   5 C     11.632315    9.517901    5.161191
   6 C      3.448276    6.366249    5.224319
   7 C      4.722641    4.110554    4.902874
   8 C      4.546988    5.496106    5.230568
   9 C      5.749090    3.386466    4.962830
  10 C      3.526854    7.630018    5.519467
  11 C      3.966481    8.854088    5.865202
  12 C      7.076402    3.754136    5.388092
  13 C      5.888110    6.015052    5.642952
  14 C      7.143645    5.201976    5.747484
  15 C      8.266026    3.144653    5.557208
  16 C      5.337108    8.657028    6.106072
  17 C      6.064640    7.367403    5.973659
  18 C      8.598271   10.172182    7.261151
  19 C      7.328471   10.382166    6.998828
  20 C      8.395474    7.115126    6.459306
  21 C      8.233663    5.910135    6.165898
  22 C      6.664390    9.273728    6.555691
  23 C      7.299074    7.956393    6.385585

Unit cell:
           periodic     x           y           z      points  spacing
  1. axis:    yes   16.000000    0.000000    0.000000    80     0.2000
  2. axis:    yes    0.000000   16.000000    0.000000    80     0.2000
  3. axis:    yes    0.000000    0.000000   10.000000    48     0.2083

Effective grid spacing dv^(1/3) = 0.2027

                     log10-error:    total        iterations:
           time      wfs    density  energy       fermi  poisson
iter:   1  09:20:13          +inf  -168.710661    2      5      
iter:   2  09:20:14         -2.30  -168.703694    2      1      
iter:   3  09:20:14         -2.38  -168.693870    2      2      
iter:   4  09:20:15         -2.63  -168.696706    2      2      
iter:   5  09:20:15         -2.68  -168.693605    2      2      
iter:   6  09:20:16         -2.67  -168.692952    1      2      
iter:   7  09:20:17         -3.13  -168.691777    1      1      
iter:   8  09:20:17         -3.47  -168.692696    2      1      
iter:   9  09:20:18         -3.63  -168.693332    2      1      
iter:  10  09:20:18         -3.70  -168.692851    2      1      
iter:  11  09:20:19         -3.89  -168.693341    1      1      
iter:  12  09:20:20         -3.86  -168.693576    1      1      
iter:  13  09:20:20         -4.13  -168.693576    2      1      

Converged after 13 iterations.

Dipole moment: (-0.273674, -0.411841, -0.155194) |e|*Ang

Energy contributions relative to reference atoms: (reference = -24663.074771)

Kinetic:       +121.624127
Potential:     -128.097021
External:        +0.000000
XC:            -165.039027
Entropy (-ST):   -0.094020
Local:           +2.865355
--------------------------
Free energy:   -168.740586
Extrapolated:  -168.693576

Fermi level: -4.80899

 Band  Eigenvalues  Occupancy
    0    -23.50958    2.00000
    1    -22.35044    2.00000
    2    -21.79246    2.00000
    3    -21.50550    2.00000
    4    -20.71758    2.00000
    5    -20.21209    2.00000
    6    -19.60394    2.00000
    7    -19.45882    2.00000
    8    -19.04431    2.00000
    9    -18.45107    2.00000
   10    -17.15324    2.00000
   11    -16.93873    2.00000
   12    -16.75447    2.00000
   13    -15.55671    2.00000
   14    -15.00223    2.00000
   15    -14.60388    2.00000
   16    -14.42527    2.00000
   17    -13.81133    2.00000
   18    -13.59062    2.00000
   19    -13.08289    2.00000
   20    -12.62765    2.00000
   21    -12.19971    2.00000
   22    -11.57550    2.00000
   23    -11.11526    2.00000
   24    -10.66133    2.00000
   25    -10.33965    2.00000
   26    -10.16470    2.00000
   27     -9.96573    2.00000
   28     -9.59736    2.00000
   29     -9.37200    2.00000
   30     -8.37376    2.00000
   31     -8.20236    2.00000
   32     -7.95734    2.00000
   33     -7.75877    2.00000
   34     -7.60161    2.00000
   35     -7.47535    2.00000
   36     -7.37654    2.00000
   37     -7.11065    2.00000
   38     -7.03826    2.00000
   39     -6.96897    2.00000
   40     -6.57037    2.00000
   41     -6.51595    2.00000
   42     -6.35902    2.00000
   43     -6.17261    2.00000
   44     -5.75186    1.99984
   45     -5.45531    1.99689
   46     -5.27239    1.98076
   47     -5.12623    1.91956
   48     -4.49562    0.08348
   49     -4.31074    0.01362
   50     -4.22228    0.00565
   51     -3.87065    0.00017
   52     -3.72006    0.00004
   53     -3.52203    0.00001
   54     -3.13198    0.00000
   55     -2.98448    0.00000
   56     -2.42050    0.00000
   57     -1.81863    0.00000
   58     -1.57526    0.00000
   59     -1.42327    0.00000
   60     -1.26688    0.00000
   61     -1.03638    0.00000
   62     -0.36563    0.00000
   63      0.01336    0.00000
   64      0.74051    0.00000
   65      1.55024    0.00000
   66      1.89367    0.00000
   67      2.57138    0.00000
   68      3.04215    0.00000
   69      3.47675    0.00000
   70      4.15907    0.00000
   71      4.48497    0.00000
   72      4.57064    0.00000
   73      5.26341    0.00000
   74      5.39611    0.00000
   75      5.58169    0.00000
   76      6.28705    0.00000
   77      6.58838    0.00000
   78      6.96228    0.00000
   79      7.15776    0.00000
   80      7.42124    0.00000
   81      7.71648    0.00000
   82      7.93180    0.00000
   83      7.98588    0.00000
   84      8.53564    0.00000
   85      8.68491    0.00000
   86      8.70112    0.00000
   87      8.80517    0.00000
   88      9.01086    0.00000
   89      9.11880    0.00000
   90      9.26864    0.00000
   91      9.34348    0.00000
   92      9.43065    0.00000
   93      9.52682    0.00000
   94      9.65761    0.00000
   95      9.80244    0.00000
   96      9.83676    0.00000
   97     10.00507    0.00000


Forces in eV/Ang:
  0 C     0.46565   -0.11107    0.21651
  1 C     0.23393   -0.02917   -0.00007
  2 C     2.46914    0.44718    0.57841
  3 C    -1.21954    0.94809   -0.26364
  4 C    -1.41892   -0.65862   -0.15988
  5 C    -0.44336   -0.81342   -0.13634
  6 C     0.03564    0.10213   -0.00755
  7 C     0.20003   -0.05444    0.05995
  8 C     0.18655   -0.10300   -0.01609
  9 C     0.03705    0.02851    0.04188
 10 C     0.14294   -0.07999   -0.03057
 11 C     0.05178    0.08709    0.08040
 12 C    -0.60109   -0.06957   -0.16884
 13 C    -0.07131   -0.20042   -0.06937
 14 C    -1.52696   -0.74283   -0.53388
 15 C     0.59955   -0.39575    0.06604
 16 C    -0.01174   -0.40251   -0.02909
 17 C    -0.33081    0.05948   -0.04221
 18 C     0.73567    1.51057    0.10178
 19 C     0.05436    0.10945    0.16589
 20 C     0.53114    2.26498    0.55241
 21 C     0.48532   -1.93335   -0.34074
 22 C    -0.02757   -0.29862   -0.00765
 23 C    -0.52143    0.32513   -0.04325

System changes: positions 

Initializing position-dependent things.

Density initialized from wave functions
           .--------------------------------------.  
          /|                                      |  
         / |                                      |  
        /  |                                      |  
       /   |                                      |  
      /    |                                      |  
     /     |                                      |  
    /      |             C  C                     |  
   /       |           C                          |  
  /        |    C  C    C     C                   |  
 *         |        C     C      C CC             |  
 |         |  C    C     C    C    C              |  
 |         .-C--C-----C---------------------------.  
 |        /          C C                         /   
 |       /     C C                              /    
 |      /                                      /     
 |     /                                      /      
 |    /                                      /       
 |   /                                      /        
 |  /                                      /         
 | /                                      /          
 |/                                      /           
 *--------------------------------------*            

Positions:
   0 C     12.068800    7.012355    5.523981
   1 C     12.188964    8.323784    5.395417
   2 C     10.359532   10.001044    4.765576
   3 C      9.606809    8.902737    4.306888
   4 C      9.278052   10.817839    4.802003
   5 C     11.622369    9.496051    5.153131
   6 C      3.451310    6.366806    5.224229
   7 C      4.723703    4.108153    4.903235
   8 C      4.549459    5.495540    5.230318
   9 C      5.750556    3.386051    4.963919
  10 C      3.526513    7.630084    5.518083
  11 C      3.970160    8.851926    5.866647
  12 C      7.078910    3.750782    5.387476
  13 C      5.888072    6.014374    5.642326
  14 C      7.137841    5.195284    5.744331
  15 C      8.268661    3.142483    5.557378
  16 C      5.339643    8.656651    6.108016
  17 C      6.065931    7.366758    5.974796
  18 C      8.608729   10.210641    7.264547
  19 C      7.332645   10.370971    6.999420
  20 C      8.387505    7.112629    6.453006
  21 C      8.215062    5.910755    6.161847
  22 C      6.662381    9.271027    6.556455
  23 C      7.298461    7.958058    6.385416

Unit cell:
           periodic     x           y           z      points  spacing
  1. axis:    yes   16.000000    0.000000    0.000000    80     0.2000
  2. axis:    yes    0.000000   16.000000    0.000000    80     0.2000
  3. axis:    yes    0.000000    0.000000   10.000000    48     0.2083

Effective grid spacing dv^(1/3) = 0.2027

                     log10-error:    total        iterations:
           time      wfs    density  energy       fermi  poisson
iter:   1  09:20:22          +inf  -168.936214    2      5      
iter:   2  09:20:23         -2.38  -168.931181    2      1      
iter:   3  09:20:24         -2.45  -168.923128    2      2      
iter:   4  09:20:24         -2.67  -168.925107    2      2      
iter:   5  09:20:25         -2.77  -168.921656    2      2      
iter:   6  09:20:25         -2.67  -168.922825    2      2      
iter:   7  09:20:26         -3.23  -168.922141    1      1      
iter:   8  09:20:27         -3.55  -168.922533    2      1      
iter:   9  09:20:27         -3.68  -168.922936    1      1      
iter:  10  09:20:28         -3.75  -168.922674    2      1      
iter:  11  09:20:28         -3.95  -168.922922    2      1      
iter:  12  09:20:29         -3.98  -168.923082    2      1      
iter:  13  09:20:30         -4.28  -168.923050    1      1      

Converged after 13 iterations.

Dipole moment: (-0.272938, -0.413995, -0.151598) |e|*Ang

Energy contributions relative to reference atoms: (reference = -24663.074771)

Kinetic:       +122.522295
Potential:     -128.752641
External:        +0.000000
XC:            -165.506800
Entropy (-ST):   -0.099896
Local:           +2.864044
--------------------------
Free energy:   -168.972998
Extrapolated:  -168.923050

Fermi level: -4.81561

 Band  Eigenvalues  Occupancy
    0    -23.54051    2.00000
    1    -22.37813    2.00000
    2    -21.86723    2.00000
    3    -21.51702    2.00000
    4    -20.73260    2.00000
    5    -20.21308    2.00000
    6    -19.64761    2.00000
    7    -19.42559    2.00000
    8    -19.04425    2.00000
    9    -18.45968    2.00000
   10    -17.16978    2.00000
   11    -16.98755    2.00000
   12    -16.77013    2.00000
   13    -15.56288    2.00000
   14    -15.02698    2.00000
   15    -14.57684    2.00000
   16    -14.46483    2.00000
   17    -13.78320    2.00000
   18    -13.61021    2.00000
   19    -13.09840    2.00000
   20    -12.64140    2.00000
   21    -12.23639    2.00000
   22    -11.56852    2.00000
   23    -11.13323    2.00000
   24    -10.67726    2.00000
   25    -10.35407    2.00000
   26    -10.17450    2.00000
   27     -9.98116    2.00000
   28     -9.63154    2.00000
   29     -9.38383    2.00000
   30     -8.38200    2.00000
   31     -8.20713    2.00000
   32     -7.96645    2.00000
   33     -7.76403    2.00000
   34     -7.60206    2.00000
   35     -7.47076    2.00000
   36     -7.37940    2.00000
   37     -7.09566    2.00000
   38     -7.04338    2.00000
   39     -6.93804    2.00000
   40     -6.58954    2.00000
   41     -6.49262    2.00000
   42     -6.35396    2.00000
   43     -6.15362    2.00000
   44     -5.76023    1.99984
   45     -5.48744    1.99759
   46     -5.28149    1.98122
   47     -5.11898    1.90815
   48     -4.51478    0.09411
   49     -4.31595    0.01343
   50     -4.22664    0.00552
   51     -3.84314    0.00012
   52     -3.61043    0.00001
   53     -3.46330    0.00000
   54     -3.08231    0.00000
   55     -2.92066    0.00000
   56     -2.39338    0.00000
   57     -1.82745    0.00000
   58     -1.55664    0.00000
   59     -1.34195    0.00000
   60     -1.23993    0.00000
   61     -0.65522    0.00000
   62     -0.43774    0.00000
   63     -0.07244    0.00000
   64      0.75687    0.00000
   65      1.58528    0.00000
   66      1.92221    0.00000
   67      2.49193    0.00000
   68      3.03130    0.00000
   69      3.50414    0.00000
   70      4.14955    0.00000
   71      4.53307    0.00000
   72      4.61643    0.00000
   73      5.08785    0.00000
   74      5.30473    0.00000
   75      5.61351    0.00000
   76      6.33563    0.00000
   77      6.58352    0.00000
   78      7.00930    0.00000
   79      7.12833    0.00000
   80      7.44209    0.00000
   81      7.72022    0.00000
   82      7.95548    0.00000
   83      8.03170    0.00000
   84      8.56139    0.00000
   85      8.68235    0.00000
   86      8.72141    0.00000
   87      8.83873    0.00000
   88      9.04783    0.00000
   89      9.20264    0.00000
   90      9.30803    0.00000
   91      9.36084    0.00000
   92      9.44546    0.00000
   93      9.54555    0.00000
   94      9.65294    0.00000
   95      9.77467    0.00000
   96      9.85341    0.00000
   97     10.01092    0.00000


Forces in eV/Ang:
  0 C     0.44374   -0.03200    0.20573
  1 C     0.05640    0.07986   -0.09087
  2 C     2.59664    0.40617    0.59820
  3 C    -1.40297    1.02049   -0.25158
  4 C    -1.24987   -0.91906   -0.16685
  5 C    -0.40168   -0.80115   -0.02016
  6 C     0.01514    0.06386   -0.02332
  7 C     0.13848    0.01120    0.05908
  8 C     0.13905   -0.13330   -0.03177
  9 C     0.04908   -0.04501    0.02432
 10 C     0.17007   -0.04207   -0.00898
 11 C    -0.00384    0.09913    0.06135
 12 C    -0.66786   -0.11147   -0.18721
 13 C    -0.13476   -0.21675   -0.08436
 14 C    -1.60047   -0.71698   -0.54482
 15 C     0.62589   -0.41203    0.07086
 16 C    -0.07801   -0.45962   -0.06090
 17 C    -0.41275    0.04954   -0.07233
 18 C     0.63000    1.47794    0.02942
 19 C     0.14652    0.24446    0.20616
 20 C     0.71836    2.28807    0.61527
 21 C     0.80463   -1.94934   -0.27851
 22 C     0.01404   -0.25707    0.00695
 23 C    -0.55843    0.28416   -0.05773

System changes: positions 

Initializing position-dependent things.

Density initialized from wave functions
           .--------------------------------------.  
          /|                                      |  
         / |                                      |  
        /  |                                      |  
       /   |                                      |  
      /    |                                      |  
     /     |                                      |  
    /      |             C  C                     |  
   /       |           C                          |  
  /        |    C  C    C     C                   |  
 *         |        C     C      C CC             |  
 |         |  C    C     C    C    C              |  
 |         .-C--C-----C---------------------------.  
 |        /          C C                         /   
 |       /     C C                              /    
 |      /                                      /     
 |     /                                      /      
 |    /                                      /       
 |   /                                      /        
 |  /                                      /         
 | /                                      /          
 |/                                      /           
 *--------------------------------------*            

Positions:
   0 C     12.079041    7.004314    5.529837
   1 C     12.205366    8.317428    5.401393
   2 C     10.376004   10.020096    4.770990
   3 C      9.593744    8.937963    4.307455
   4 C      9.257669   10.793716    4.798079
   5 C     11.612618    9.473893    5.145912
   6 C      3.454172    6.366986    5.223988
   7 C      4.724374    4.106120    4.903585
   8 C      4.551568    5.494740    5.229942
   9 C      5.752076    3.385101    4.964885
  10 C      3.526396    7.630565    5.516876
  11 C      3.973423    8.849755    5.867937
  12 C      7.080957    3.747143    5.386730
  13 C      5.887670    6.013601    5.641613
  14 C      7.131758    5.188778    5.741151
  15 C      8.271490    3.140172    5.557586
  16 C      5.341720    8.655903    6.109762
  17 C      6.066692    7.365977    5.975719
  18 C      8.618461   10.249331    7.267440
  19 C      7.337574   10.360723    7.000269
  20 C      8.380572    7.110138    6.447041
  21 C      8.198398    5.911238    6.158158
  22 C      6.660726    9.268577    6.557348
  23 C      7.297679    7.959377    6.385146

Unit cell:
           periodic     x           y           z      points  spacing
  1. axis:    yes   16.000000    0.000000    0.000000    80     0.2000
  2. axis:    yes    0.000000   16.000000    0.000000    80     0.2000
  3. axis:    yes    0.000000    0.000000   10.000000    48     0.2083

Effective grid spacing dv^(1/3) = 0.2027

                     log10-error:    total        iterations:
           time      wfs    density  energy       fermi  poisson
iter:   1  09:20:32          +inf  -169.165295    2      5      
iter:   2  09:20:32         -2.40  -169.161145    2      1      
iter:   3  09:20:33         -2.47  -169.154728    2      2      
iter:   4  09:20:33         -2.67  -169.153190    2      2      
iter:   5  09:20:34         -2.82  -169.151801    2      2      
iter:   6  09:20:35         -3.03  -169.153283    2      1      
iter:   7  09:20:35         -3.17  -169.152177    2      1      
iter:   8  09:20:36         -3.40  -169.152943    2      1      
iter:   9  09:20:36         -3.64  -169.153249    2      1      
iter:  10  09:20:37         -3.72  -169.152968    2      1      
iter:  11  09:20:38         -3.90  -169.153255    2      1      
iter:  12  09:20:38         -3.99  -169.153198    2      1      
iter:  13  09:20:39         -4.08  -169.153049    1      1      

Converged after 13 iterations.

Dipole moment: (-0.271463, -0.418496, -0.151093) |e|*Ang

Energy contributions relative to reference atoms: (reference = -24663.074771)

Kinetic:       +123.050891
Potential:     -129.123554
External:        +0.000000
XC:            -165.899343
Entropy (-ST):   -0.106348
Local:           +2.872130
--------------------------
Free energy:   -169.206223
Extrapolated:  -169.153049

Fermi level: -4.82135

 Band  Eigenvalues  Occupancy
    0    -23.56664    2.00000
    1    -22.40283    2.00000
    2    -21.95111    2.00000
    3    -21.52605    2.00000
    4    -20.74526    2.00000
    5    -20.21533    2.00000
    6    -19.70035    2.00000
    7    -19.38815    2.00000
    8    -19.04203    2.00000
    9    -18.46530    2.00000
   10    -17.18182    2.00000
   11    -17.04249    2.00000
   12    -16.78120    2.00000
   13    -15.56964    2.00000
   14    -15.04938    2.00000
   15    -14.60610    2.00000
   16    -14.51481    2.00000
   17    -13.67127    2.00000
   18    -13.61121    2.00000
   19    -13.11261    2.00000
   20    -12.65483    2.00000
   21    -12.26650    2.00000
   22    -11.55985    2.00000
   23    -11.14827    2.00000
   24    -10.69270    2.00000
   25    -10.36850    2.00000
   26    -10.17896    2.00000
   27     -9.99465    2.00000
   28     -9.66650    2.00000
   29     -9.39254    2.00000
   30     -8.38933    2.00000
   31     -8.21731    2.00000
   32     -7.97994    2.00000
   33     -7.77874    2.00000
   34     -7.60286    2.00000
   35     -7.47363    2.00000
   36     -7.38210    2.00000
   37     -7.09715    2.00000
   38     -7.03796    2.00000
   39     -6.90563    2.00000
   40     -6.60731    2.00000
   41     -6.46883    2.00000
   42     -6.34705    2.00000
   43     -6.13102    2.00000
   44     -5.76693    1.99984
   45     -5.52424    1.99823
   46     -5.28528    1.98086
   47     -5.11234    1.89667
   48     -4.53224    0.10519
   49     -4.32321    0.01364
   50     -4.23166    0.00548
   51     -3.82831    0.00010
   52     -3.49942    0.00000
   53     -3.40306    0.00000
   54     -3.05411    0.00000
   55     -2.83833    0.00000
   56     -2.35503    0.00000
   57     -1.83729    0.00000
   58     -1.54623    0.00000
   59     -1.26134    0.00000
   60     -1.22219    0.00000
   61     -0.52835    0.00000
   62     -0.20632    0.00000
   63     -0.12532    0.00000
   64      0.77310    0.00000
   65      1.61428    0.00000
   66      1.94850    0.00000
   67      2.38509    0.00000
   68      3.02287    0.00000
   69      3.52846    0.00000
   70      4.13542    0.00000
   71      4.55988    0.00000
   72      4.65255    0.00000
   73      4.81527    0.00000
   74      5.33382    0.00000
   75      5.64788    0.00000
   76      6.37505    0.00000
   77      6.57804    0.00000
   78      7.04719    0.00000
   79      7.07121    0.00000
   80      7.46168    0.00000
   81      7.72344    0.00000
   82      7.96948    0.00000
   83      8.07100    0.00000
   84      8.57706    0.00000
   85      8.66564    0.00000
   86      8.73622    0.00000
   87      8.87194    0.00000
   88      9.08058    0.00000
   89      9.26991    0.00000
   90      9.34504    0.00000
   91      9.36755    0.00000
   92      9.47020    0.00000
   93      9.56130    0.00000
   94      9.64207    0.00000
   95      9.74576    0.00000
   96      9.86518    0.00000
   97     10.01696    0.00000


Forces in eV/Ang:
  0 C     0.44909    0.06894    0.18449
  1 C    -0.06708    0.10035   -0.14755
  2 C     2.62649    0.35220    0.63905
  3 C    -1.53989    1.15872   -0.24331
  4 C    -1.03544   -1.19376   -0.20419
  5 C    -0.38695   -0.67443    0.04997
  6 C    -0.01212    0.07123   -0.03190
  7 C     0.13641    0.02069    0.05847
  8 C     0.08887   -0.14771   -0.04575
  9 C    -0.00591   -0.07585    0.00327
 10 C     0.18043   -0.07245   -0.00590
 11 C    -0.06281    0.14716    0.05117
 12 C    -0.70018   -0.14342   -0.19597
 13 C    -0.18890   -0.23597   -0.09787
 14 C    -1.63729   -0.65329   -0.53054
 15 C     0.62048   -0.41681    0.07214
 16 C    -0.12871   -0.49288   -0.08081
 17 C    -0.47890    0.04761   -0.09713
 18 C     0.51182    1.42089   -0.02455
 19 C     0.23836    0.31958    0.24349
 20 C     0.88481    2.34605    0.67850
 21 C     1.05553   -1.99046   -0.23513
 22 C     0.06437   -0.20841    0.02691
 23 C    -0.57589    0.23772   -0.07124

System changes: positions 

Initializing position-dependent things.

Density initialized from wave functions
           .--------------------------------------.  
          /|                                      |  
         / |                                      |  
        /  |                                      |  
       /   |                                      |  
      /    |                                      |  
     /     |                                      |  
    /      |             C  C                     |  
   /       |           C                          |  
  /        |    C  C    C                         |  
 *         |        C     C   C  C CC             |  
 |         |  C    C     C    C    C              |  
 |         .-C--C-----C---------------------------.  
 |        /          C C                         /   
 |       /     C C                              /    
 |      /                                      /     
 |     /                                      /      
 |    /                                      /       
 |   /                                      /        
 |  /                                      /         
[...]

Energy contributions relative to reference atoms: (reference = -24663.074771)

Kinetic:       +109.533400
Potential:     -118.617458
External:        +0.000000
XC:            -172.686759
Entropy (-ST):   -0.152181
Local:           +2.966892
--------------------------
Free energy:   -178.956107
Extrapolated:  -178.880016

Fermi level: -4.62749

 Band  Eigenvalues  Occupancy
    0    -23.70606    2.00000
    1    -23.06398    2.00000
    2    -22.86500    2.00000
    3    -21.47016    2.00000
    4    -21.11774    2.00000
    5    -19.98701    2.00000
    6    -19.71328    2.00000
    7    -19.55126    2.00000
    8    -19.03333    2.00000
    9    -18.51701    2.00000
   10    -18.06673    2.00000
   11    -17.48338    2.00000
   12    -16.97596    2.00000
   13    -16.39879    2.00000
   14    -15.92388    2.00000
   15    -15.20041    2.00000
   16    -14.86608    2.00000
   17    -14.00621    2.00000
   18    -13.51255    2.00000
   19    -13.12746    2.00000
   20    -12.52455    2.00000
   21    -11.77510    2.00000
   22    -11.01178    2.00000
   23    -10.93644    2.00000
   24    -10.85250    2.00000
   25    -10.56196    2.00000
   26    -10.28263    2.00000
   27    -10.20212    2.00000
   28    -10.02305    2.00000
   29    -10.00168    2.00000
   30     -9.88549    2.00000
   31     -9.67586    2.00000
   32     -9.07032    2.00000
   33     -8.76937    2.00000
   34     -8.12460    2.00000
   35     -7.68489    2.00000
   36     -7.61203    2.00000
   37     -7.36536    2.00000
   38     -7.22435    2.00000
   39     -7.16539    2.00000
   40     -7.07634    2.00000
   41     -6.42355    2.00000
   42     -6.26005    2.00000
   43     -5.86310    1.99999
   44     -5.45824    1.99951
   45     -5.38350    1.99896
   46     -5.32833    1.99819
   47     -4.82527    1.75689
   48     -4.43078    0.24540
   49     -3.87124    0.00104
   50     -3.44610    0.00001
   51     -3.28820    0.00000
   52     -3.21435    0.00000
   53     -2.95960    0.00000
   54     -2.37594    0.00000
   55     -1.45522    0.00000
   56     -1.29826    0.00000
   57     -0.77418    0.00000
   58     -0.72982    0.00000
   59      0.01294    0.00000
   60      0.53311    0.00000
   61      1.39549    0.00000
   62      1.70925    0.00000
   63      1.92795    0.00000
   64      2.64164    0.00000
   65      2.90754    0.00000
   66      3.27586    0.00000
   67      3.46877    0.00000
   68      3.53777    0.00000
   69      3.76903    0.00000
   70      4.07281    0.00000
   71      4.15854    0.00000
   72      4.75114    0.00000
   73      4.99278    0.00000
   74      5.64774    0.00000
   75      5.92764    0.00000
   76      6.22201    0.00000
   77      6.74545    0.00000
   78      7.05686    0.00000
   79      7.20181    0.00000
   80      7.43569    0.00000
   81      7.89579    0.00000
   82      8.18054    0.00000
   83      8.35155    0.00000
   84      8.41152    0.00000
   85      8.74789    0.00000
   86      8.81961    0.00000
   87      8.82768    0.00000
   88      9.10846    0.00000
   89      9.14031    0.00000
   90      9.18547    0.00000
   91      9.27900    0.00000
   92      9.45407    0.00000
   93      9.48443    0.00000
   94      9.68984    0.00000
   95      9.80479    0.00000
   96      9.83961    0.00000
   97      9.98815    0.00000


Forces in eV/Ang:
  0 C     0.02373    0.07296    0.03101
  1 C     0.05333   -0.07104   -0.00281
  2 C     0.08277   -0.06238   -0.01931
  3 C     0.10687    0.03976   -0.00787
  4 C    -0.06638   -0.06845    0.04116
  5 C    -0.04486    0.18034   -0.02742
  6 C     0.04563   -0.01626    0.02694
  7 C     0.00965    0.00598    0.02788
  8 C    -0.00659   -0.02247   -0.03110
  9 C     0.00055   -0.02908   -0.00125
 10 C    -0.04429   -0.01137    0.01822
 11 C    -0.03406   -0.05248   -0.03672
 12 C    -0.00286    0.06538   -0.04620
 13 C    -0.03004   -0.01031   -0.01190
 14 C    -0.09233    0.07744    0.02273
 15 C    -0.03938   -0.06975   -0.01529
 16 C    -0.06453   -0.01568    0.01934
 17 C     0.02202   -0.03838    0.07937
 18 C    -0.07455   -0.08160    0.01286
 19 C     0.04971    0.07158   -0.01403
 20 C     0.00279    0.04139    0.00176
 21 C     0.00381    0.03589    0.01567
 22 C     0.04300   -0.01892   -0.03860
 23 C     0.05496    0.00135    0.03620

System changes: positions 

Initializing position-dependent things.

Density initialized from wave functions
           .--------------------------------------.  
          /|                                      |  
         / |                                      |  
        /  |                                      |  
       /   |                                      |  
      /    |                                      |  
     /     |                                      |  
    /      |                       C              |  
   /       |                    C   C             |  
  /        |              C  C       C            |  
 *         |   C C  C   C             C           |  
 |         | C      C   C              C          |  
 |         .---C--C------C------------------------.  
 |        /  CC   C C   C                        /   
 |       /      C                               /    
 |      /                                      /     
 |     /                                      /      
 |    /                                      /       
 |   /                                      /        
 |  /                                      /         
 | /                                      /          
 |/                                      /           
 *--------------------------------------*            

Positions:
   0 C     13.416937    8.172522    5.012789
   1 C     12.796974    9.314494    5.251825
   2 C     11.251201   11.393908    5.658435
   3 C     10.531130   12.628608    5.874540
   4 C      9.738956   11.473898    5.685049
   5 C     12.098632   10.399695    5.475829
   6 C      3.407034    6.095368    5.834351
   7 C      4.050967    3.595443    5.878967
   8 C      4.280381    4.983132    5.780920
   9 C      4.802709    2.548103    5.939230
  10 C      3.777326    7.329026    5.783357
  11 C      4.500778    8.473704    5.722819
  12 C      6.301072    2.845945    5.783515
  13 C      5.738948    5.275627    5.611039
  14 C      6.770285    4.177397    5.602144
  15 C      5.874318    1.570826    5.984607
  16 C      5.807548    8.011840    5.556567
  17 C      6.227806    6.586876    5.492693
  18 C      8.752589   10.567803    5.579410
  19 C      7.977791    9.567542    5.507718
  20 C      8.449736    5.873409    5.378205
  21 C      8.079201    4.651205    5.456174
  22 C      7.248412    8.425854    5.455016
  23 C      7.616688    6.981529    5.386613

Unit cell:
           periodic     x           y           z      points  spacing
  1. axis:    yes   16.000000    0.000000    0.000000    80     0.2000
  2. axis:    yes    0.000000   16.000000    0.000000    80     0.2000
  3. axis:    yes    0.000000    0.000000   10.000000    48     0.2083

Effective grid spacing dv^(1/3) = 0.2027

                     log10-error:    total        iterations:
           time      wfs    density  energy       fermi  poisson
iter:   1  09:57:23          +inf  -178.879094    2      4      
iter:   2  09:57:23         -3.03  -178.879770    2      1      
iter:   3  09:57:24         -3.16  -178.880792    2      1      
iter:   4  09:57:24         -3.37  -178.880572    2      1      
iter:   5  09:57:25         -3.51  -178.880237    2      1      
iter:   6  09:57:26         -3.74  -178.880364    2      1      
iter:   7  09:57:26         -4.06  -178.880828    2      1      

Converged after 7 iterations.

Dipole moment: (-0.655888, -0.659391, 0.016207) |e|*Ang

Energy contributions relative to reference atoms: (reference = -24663.074771)

Kinetic:       +109.708811
Potential:     -118.743527
External:        +0.000000
XC:            -172.728904
Entropy (-ST):   -0.153557
Local:           +2.959571
--------------------------
Free energy:   -178.957606
Extrapolated:  -178.880828

Fermi level: -4.62579

 Band  Eigenvalues  Occupancy
    0    -23.71310    2.00000
    1    -23.06263    2.00000
    2    -22.85336    2.00000
    3    -21.47368    2.00000
    4    -21.11775    2.00000
    5    -19.98862    2.00000
    6    -19.71333    2.00000
    7    -19.55137    2.00000
    8    -19.04069    2.00000
    9    -18.51609    2.00000
   10    -18.06800    2.00000
   11    -17.48953    2.00000
   12    -16.97649    2.00000
   13    -16.40236    2.00000
   14    -15.92555    2.00000
   15    -15.20266    2.00000
   16    -14.86522    2.00000
   17    -14.00822    2.00000
   18    -13.51735    2.00000
   19    -13.13071    2.00000
   20    -12.52981    2.00000
   21    -11.77399    2.00000
   22    -11.01550    2.00000
   23    -10.93159    2.00000
   24    -10.84888    2.00000
   25    -10.56834    2.00000
   26    -10.28408    2.00000
   27    -10.21111    2.00000
   28    -10.01902    2.00000
   29     -9.99777    2.00000
   30     -9.88649    2.00000
   31     -9.67924    2.00000
   32     -9.07172    2.00000
   33     -8.77143    2.00000
   34     -8.12490    2.00000
   35     -7.68542    2.00000
   36     -7.61251    2.00000
   37     -7.36751    2.00000
   38     -7.22343    2.00000
   39     -7.16845    2.00000
   40     -7.08103    2.00000
   41     -6.42415    2.00000
   42     -6.26321    2.00000
   43     -5.85011    1.99999
   44     -5.45649    1.99951
   45     -5.38616    1.99900
   46     -5.32951    1.99824
   47     -4.82186    1.75321
   48     -4.43072    0.24895
   49     -3.87268    0.00107
   50     -3.44313    0.00001
   51     -3.28823    0.00000
   52     -3.21150    0.00000
   53     -2.96419    0.00000
   54     -2.37478    0.00000
   55     -1.46181    0.00000
   56     -1.30208    0.00000
   57     -0.77030    0.00000
   58     -0.72075    0.00000
   59      0.01337    0.00000
   60      0.53061    0.00000
   61      1.39510    0.00000
   62      1.70944    0.00000
   63      1.93839    0.00000
   64      2.63904    0.00000
   65      2.91718    0.00000
   66      3.27439    0.00000
   67      3.49066    0.00000
   68      3.53647    0.00000
   69      3.76702    0.00000
   70      4.06136    0.00000
   71      4.16182    0.00000
   72      4.75158    0.00000
   73      4.99585    0.00000
   74      5.64592    0.00000
   75      5.92489    0.00000
   76      6.21787    0.00000
   77      6.74277    0.00000
   78      7.06713    0.00000
   79      7.20097    0.00000
   80      7.43635    0.00000
   81      7.90045    0.00000
   82      8.17984    0.00000
   83      8.35245    0.00000
   84      8.40640    0.00000
   85      8.74724    0.00000
   86      8.82227    0.00000
   87      8.82682    0.00000
   88      9.10938    0.00000
   89      9.14055    0.00000
   90      9.18672    0.00000
   91      9.27714    0.00000
   92      9.45525    0.00000
   93      9.48420    0.00000
   94      9.68859    0.00000
   95      9.81351    0.00000
   96      9.84621    0.00000
   97      9.98536    0.00000


Forces in eV/Ang:
  0 C     0.04726   -0.03797    0.03100
  1 C     0.01364    0.01883    0.00467
  2 C     0.03081   -0.03164   -0.01927
  3 C     0.05910   -0.01131   -0.00480
  4 C    -0.05705   -0.05353    0.02723
  5 C    -0.01413    0.13407   -0.00359
  6 C     0.04367   -0.03272    0.01937
  7 C    -0.01286    0.01501    0.01475
  8 C    -0.01215   -0.00511   -0.00491
  9 C    -0.01141   -0.02078    0.00810
 10 C    -0.01305    0.01703    0.00898
 11 C    -0.06726   -0.02875   -0.02580
 12 C    -0.01040   -0.02140   -0.03252
 13 C    -0.01295    0.01352   -0.02442
 14 C    -0.03000    0.09106    0.02490
 15 C    -0.01629   -0.04137   -0.01881
 16 C    -0.04651   -0.03218    0.00628
 17 C     0.00578   -0.00881    0.07013
 18 C     0.00181   -0.00269    0.02705
 19 C     0.04393    0.06269   -0.01444
 20 C     0.02302    0.03621   -0.01018
 21 C    -0.03177   -0.00460    0.01413
 22 C     0.00167   -0.04051   -0.02282
 23 C     0.03276   -0.02223    0.03702

System changes: positions 

Initializing position-dependent things.

Density initialized from wave functions
           .--------------------------------------.  
          /|                                      |  
         / |                                      |  
        /  |                                      |  
       /   |                                      |  
      /    |                                      |  
     /     |                                      |  
    /      |                       C              |  
   /       |                    C   C             |  
  /        |              C  C       C            |  
 *         |   C C  C   C             C           |  
 |         | C      C   C              C          |  
 |         .---C--C------C------------------------.  
 |        /  CC   C C   C                        /   
 |       /      C                               /    
 |      /                                      /     
 |     /                                      /      
 |    /                                      /       
 |   /                                      /        
 |  /                                      /         
 | /                                      /          
 |/                                      /           
 *--------------------------------------*            

Positions:
   0 C     13.390290    8.157625    5.021558
   1 C     12.785727    9.308245    5.253553
   2 C     11.257447   11.399429    5.647680
   3 C     10.538895   12.633431    5.863358
   4 C      9.743172   11.476613    5.685144
   5 C     12.100749   10.404670    5.464484
   6 C      3.405607    6.092851    5.825830
   7 C      4.051992    3.593928    5.873977
   8 C      4.279040    4.981456    5.774536
   9 C      4.802615    2.545724    5.932772
  10 C      3.773138    7.327846    5.780752
  11 C      4.498051    8.471674    5.718856
  12 C      6.298912    2.848964    5.778984
  13 C      5.737535    5.278391    5.614855
  14 C      6.766871    4.182581    5.605176
  15 C      5.875374    1.570767    5.978541
  16 C      5.807119    8.013350    5.565567
  17 C      6.229993    6.589274    5.507721
  18 C      8.756516   10.570898    5.577663
  19 C      7.979213    9.571891    5.507034
  20 C      8.452988    5.878006    5.390189
  21 C      8.077128    4.656896    5.465523
  22 C      7.250012    8.428908    5.461050
  23 C      7.619345    6.985291    5.401612

Unit cell:
           periodic     x           y           z      points  spacing
  1. axis:    yes   16.000000    0.000000    0.000000    80     0.2000
  2. axis:    yes    0.000000   16.000000    0.000000    80     0.2000
  3. axis:    yes    0.000000    0.000000   10.000000    48     0.2083

Effective grid spacing dv^(1/3) = 0.2027

                     log10-error:    total        iterations:
           time      wfs    density  energy       fermi  poisson
iter:   1  09:57:28          +inf  -178.881294    2      5      
iter:   2  09:57:29         -2.80  -178.880571    2      1      
iter:   3  09:57:29         -2.90  -178.880427    2      1      
iter:   4  09:57:30         -3.12  -178.881225    2      1      
iter:   5  09:57:31         -3.33  -178.880470    2      1      
iter:   6  09:57:31         -3.53  -178.880403    2      1      
iter:   7  09:57:32         -3.63  -178.880503    2      1      
iter:   8  09:57:32         -3.83  -178.880552    2      1      
iter:   9  09:57:33         -3.93  -178.880359    2      1      
iter:  10  09:57:33         -4.10  -178.880474    2      1      

Converged after 10 iterations.

Dipole moment: (-0.662581, -0.659432, 0.018716) |e|*Ang

Energy contributions relative to reference atoms: (reference = -24663.074771)

Kinetic:       +109.599298
Potential:     -118.641526
External:        +0.000000
XC:            -172.713555
Entropy (-ST):   -0.154319
Local:           +2.952468
--------------------------
Free energy:   -178.957633
Extrapolated:  -178.880474

Fermi level: -4.62110

 Band  Eigenvalues  Occupancy
    0    -23.72158    2.00000
    1    -23.05819    2.00000
    2    -22.83868    2.00000
    3    -21.47965    2.00000
    4    -21.11760    2.00000
    5    -19.98800    2.00000
    6    -19.71182    2.00000
    7    -19.54732    2.00000
    8    -19.04891    2.00000
    9    -18.51524    2.00000
   10    -18.06766    2.00000
   11    -17.49127    2.00000
   12    -16.97418    2.00000
   13    -16.40666    2.00000
   14    -15.92430    2.00000
   15    -15.20357    2.00000
   16    -14.85894    2.00000
   17    -14.01576    2.00000
   18    -13.52353    2.00000
   19    -13.13584    2.00000
   20    -12.53870    2.00000
   21    -11.77386    2.00000
   22    -11.01977    2.00000
   23    -10.92395    2.00000
   24    -10.84255    2.00000
   25    -10.57338    2.00000
   26    -10.28347    2.00000
   27    -10.22151    2.00000
   28    -10.01382    2.00000
   29     -9.99608    2.00000
   30     -9.89074    2.00000
   31     -9.68611    2.00000
   32     -9.07399    2.00000
   33     -8.77315    2.00000
   34     -8.12506    2.00000
   35     -7.68127    2.00000
   36     -7.61138    2.00000
   37     -7.36767    2.00000
   38     -7.21722    2.00000
   39     -7.17025    2.00000
   40     -7.08724    2.00000
   41     -6.42209    2.00000
   42     -6.26886    2.00000
   43     -5.83892    1.99999
   44     -5.45469    1.99952
   45     -5.39000    1.99908
   46     -5.32501    1.99825
   47     -4.81620    1.75112
   48     -4.42691    0.25087
   49     -3.87458    0.00114
   50     -3.43930    0.00001
   51     -3.28951    0.00000
   52     -3.21627    0.00000
   53     -2.96895    0.00000
   54     -2.37603    0.00000
   55     -1.47365    0.00000
   56     -1.31079    0.00000
   57     -0.76795    0.00000
   58     -0.70433    0.00000
   59      0.00970    0.00000
   60      0.52523    0.00000
   61      1.39347    0.00000
   62      1.70394    0.00000
   63      1.94624    0.00000
   64      2.63549    0.00000
   65      2.91822    0.00000
   66      3.27164    0.00000
   67      3.52756    0.00000
   68      3.53749    0.00000
   69      3.75886    0.00000
   70      4.04824    0.00000
   71      4.16453    0.00000
   72      4.74379    0.00000
   73      4.99608    0.00000
   74      5.64604    0.00000
   75      5.92240    0.00000
   76      6.21010    0.00000
   77      6.73207    0.00000
   78      7.08124    0.00000
   79      7.21246    0.00000
   80      7.42734    0.00000
   81      7.89865    0.00000
   82      8.17491    0.00000
   83      8.34841    0.00000
   84      8.39232    0.00000
   85      8.74400    0.00000
   86      8.82417    0.00000
   87      8.82861    0.00000
   88      9.11204    0.00000
   89      9.13514    0.00000
   90      9.18840    0.00000
   91      9.27164    0.00000
   92      9.45795    0.00000
   93      9.48367    0.00000
   94      9.68747    0.00000
   95      9.82535    0.00000
   96      9.86505    0.00000
   97      9.98309    0.00000


Forces in eV/Ang:
  0 C     0.05552   -0.06281    0.00566
  1 C     0.01929    0.06551   -0.00531
  2 C    -0.05241    0.04222    0.00085
  3 C     0.00131   -0.06309   -0.02044
  4 C    -0.00022    0.01146    0.01065
  5 C     0.04747    0.02642   -0.02594
  6 C     0.00835    0.02209   -0.00009
  7 C    -0.02615    0.02499    0.00226
  8 C    -0.00040    0.01647    0.03472
  9 C    -0.01655   -0.00591    0.02682
 10 C     0.02595   -0.00553   -0.00116
 11 C    -0.08831   -0.01634   -0.00990
 12 C     0.00089   -0.06360   -0.01497
 13 C    -0.01031    0.02896   -0.01031
 14 C     0.04420    0.01247    0.01002
 15 C     0.02568   -0.00577   -0.02560
 16 C     0.00764   -0.03668   -0.02781
 17 C    -0.00464    0.03284    0.03559
 18 C     0.02389    0.00379    0.02118
 19 C     0.03123    0.03498    0.00068
 20 C     0.00965   -0.03134   -0.00613
 21 C    -0.02982    0.00289    0.01211
 22 C    -0.02659   -0.00354   -0.00832
 23 C    -0.02951   -0.02448    0.01513

