
  ___ ___ ___ _ _ _  
 |   |   |_  | | | | 
 | | | | | . | | | | 
 |__ |  _|___|_____|  1.3.0b1
 |___|_|             

User:   esb@s65n53.grendel.cscaa.dk
Date:   Wed Nov  8 16:14:54 2017
Arch:   x86_64
Pid:    92680
Python: 2.7.13
gpaw:   /home/esb/DFT/gpaw_git/gpaw
_gpaw:  /home/esb/DFT/gpaw_git/build/bin.linux-x86_64-2.7/gpaw-python
ase:    /home/esb/DFT/ase_git/ase (version 3.15.0b1)
numpy:  /comm/swstack/core/python/2.7.13/lib/python2.7/site-packages/numpy (version 1.13.3)
scipy:  /comm/swstack/core/python/2.7.13/lib/python2.7/site-packages/scipy (version 0.19.1)
units:  Angstrom and eV
cores:  16
Extra parameters: {'blacs': True}

Input parameters:
  basis: dzp
  gpts: [80 80 48]
  kpts: [1 1 1]
  maxiter: 99
  mixer: {backend: pulay,
          beta: 0.05,
          method: separate,
          nmaxold: 5,
          weight: 75}
  mode: lcao
  nbands: -50
  occupations: {name: fermi-dirac,
                width: 0.1}
  poissonsolver: {eps: 1e-07,
                  name: fd,
                  nn: 3,
                  relax: GS}
  xc: PBE

System changes: positions, numbers, cell, pbc, initial_charges, initial_magmoms 

Initialize ...

C-setup:
  name: Carbon
  id: 4aa54d4b901d75f77cc0ea3eec22967b
  Z: 6
  valence: 4
  core: 2
  charge: 0.0
  file: /home/esb/DFT/gpaw-setups-0.8.7929/C.PBE.gz
  cutoffs: 0.64(comp), 1.14(filt), 1.14(core), lmax=2
  valence states:
                energy  radius
    2s(2.00)   -13.751   0.635
    2p(2.00)    -5.284   0.635
    *s          13.461   0.635
    *p          21.927   0.635
    *d           0.000   0.635

  LCAO basis set for C:
    Name: dzp
    File: /home/esb/DFT/gpaw-setups-0.8.7929/C.dzp.basis.gz
    Number of radial functions: 5
    Number of spherical harmonics: 13
      l=0, rc=5.5469 Bohr: 2s-sz confined orbital
      l=1, rc=6.6719 Bohr: 2p-sz confined orbital
      l=0, rc=3.0312 Bohr: 2s-dz split-valence wave
      l=1, rc=3.7500 Bohr: 2p-dz split-valence wave
      l=2, rc=6.6719 Bohr: d-type Gaussian polarization

Reference energy: -24663.074771

Spin-paired calculation

Occupation numbers:
  Fermi-Dirac: width=0.1000 eV

Convergence criteria:
  Maximum total energy change: 0.0005 eV / electron
  Maximum integral of absolute density change: 0.0001 electrons
  Maximum integral of absolute eigenstate change: 4e-08 eV^2
  Maximum number of iterations: 99

Symmetries present (total): 1

  ( 1  0  0)
  ( 0  1  0)
  ( 0  0  1)

1 k-point (Gamma)
1 k-point in the irreducible part of the Brillouin zone
       k-points in crystal coordinates                weights
   0:     0.00000000    0.00000000    0.00000000          1/1

Wave functions: LCAO
  Diagonalizer: Serial LAPACK
  Atomic Correction: dense with blas
  Datatype: float
  Eigensolver: None 

LCAO using direct dense diagonalizer 

Densities:
  Coarse grid: 80*80*48 grid
  Fine grid: 160*160*96 grid
  Total Charge: 0.000000 

Density mixing:
  Method: separate
  Backend: pulay
  Linear mixing parameter: 0.05
  Mixing with 5 old densities
  Damping of long wave oscillations: 75 

Hamiltonian:
  XC and Coulomb potentials evaluated on a 160*160*96 grid
  Using the PBE Exchange-Correlation functional
  Interpolation: tri-quintic (5. degree polynomial)
  Poisson solver: Gauss-Seidel solver with 6 multi-grid levels
    Coarsest grid: 5 x 5 x 3 points
    Stencil: 6*3+1=19 point O(h^6) finite-difference Laplacian
    Max iterations: 1000
    Tolerance: 1.000000e-07 

Memory estimate:
  Process memory now: 77.59 MiB
  Calculator: 15.59 MiB
    Density: 6.13 MiB
      Arrays: 3.81 MiB
      Localized functions: 0.86 MiB
      Mixer: 1.46 MiB
    Hamiltonian: 5.40 MiB
      Arrays: 2.49 MiB
      XC: 0.00 MiB
      Poisson: 2.85 MiB
      vbar: 0.07 MiB
    Wavefunctions: 4.05 MiB
      C [qnM]: 0.23 MiB
      S, T [2 x qmm]: 1.49 MiB
      P [aqMi]: 0.01 MiB
      TCI: 0.00 MiB
      BasisFunctions: 2.33 MiB
      Eigensolver: 0.00 MiB

Total number of cores used: 16
Domain decomposition: 2 x 4 x 2

Number of atoms: 24
Number of atomic orbitals: 312
Number of bands in calculation: 98
Bands to converge: occupied states only
Number of valence electrons: 96

... initialized

Initializing position-dependent things.

Density initialized from atomic densities
           .--------------------------------------.  
          /|                                      |  
         / |                                      |  
        /  |                                      |  
       /   |                                      |  
      /    |                                      |  
     /     |                                      |  
    /      |                                      |  
   /       |                                      |  
  /        |           C  C   C                   |  
 *         |  C C   C      C   C                  |  
 |         | C       C   C  C    C                |  
 |         .---C---C-C--------C-------------------.  
 |        /    C C   C        C                  /   
 |       /             C  C                     /    
 |      /                                      /     
 |     /                                      /      
 |    /                                      /       
 |   /                                      /        
 |  /                                      /         
 | /                                      /          
 |/                                      /           
 *--------------------------------------*            

Positions:
   0 C      5.679253    3.437032    5.309392
   1 C     10.726437    5.232759    5.649679
   2 C      9.804456    8.588518    6.205694
   3 C      8.231229    3.193640    5.166810
   4 C      9.566873    6.171946    5.751354
   5 C      8.187501    6.278243    5.673598
   6 C      7.020895    3.892263    5.339407
   7 C      9.489486    3.319451    5.320676
   8 C     10.382163    7.408801    6.006993
   9 C     11.454974    6.415528    5.935323
  10 C      7.030295    5.348430    5.504043
  11 C     10.697761    3.903902    5.296983
  12 C      5.495636    8.689150    5.818119
  13 C      3.537909    7.528178    5.687544
  14 C      7.622854    9.807095    5.802140
  15 C      6.375922    9.789677    5.940044
  16 C      5.833599    6.079579    5.484298
  17 C      7.778894    7.476540    5.450777
  18 C      4.474201    5.498887    5.461761
  19 C      6.313855    7.469667    5.597377
  20 C      4.071908    8.709465    5.847802
  21 C      4.616837    4.088007    5.355297
  22 C      8.496992    8.748068    5.468537
  23 C      3.259175    6.251518    5.560335

Unit cell:
           periodic     x           y           z      points  spacing
  1. axis:    yes   16.000000    0.000000    0.000000    80     0.2000
  2. axis:    yes    0.000000   16.000000    0.000000    80     0.2000
  3. axis:    yes    0.000000    0.000000   10.000000    48     0.2083

Effective grid spacing dv^(1/3) = 0.2027

                     log10-error:    total        iterations:
           time      wfs    density  energy       fermi  poisson
iter:   1  16:14:56          +inf  -186.624811    2      6      
iter:   2  16:14:56         -0.89  -185.631247    3      3      
iter:   3  16:14:57         -0.93  -183.576114    35     3      
iter:   4  16:14:58         -1.06  -183.088505    4      3      
iter:   5  16:14:58         -1.11  -182.371084    33     4      
iter:   6  16:14:59         -1.52  -182.310066    3      3      
iter:   7  16:15:00         -1.58  -182.213270    3      3      
iter:   8  16:15:00         -1.83  -182.213314    3      3      
iter:   9  16:15:01         -1.95  -182.180496    3      2      
iter:  10  16:15:02         -2.18  -182.165084    3      2      
iter:  11  16:15:02         -2.35  -182.156776    3      2      
iter:  12  16:15:03         -2.64  -182.155978    3      2      
iter:  13  16:15:03         -2.84  -182.147214    2      1      
iter:  14  16:15:04         -2.93  -182.159151    2      1      
iter:  15  16:15:05         -3.05  -182.162313    2      1      
iter:  16  16:15:05         -3.12  -182.157633    2      1      
iter:  17  16:15:06         -3.31  -182.163896    2      1      
iter:  18  16:15:06         -3.42  -182.155300    2      1      
iter:  19  16:15:07         -3.49  -182.152412    2      1      
iter:  20  16:15:08         -3.75  -182.155632    2      1      
iter:  21  16:15:08         -3.99  -182.154159    2      1      
iter:  22  16:15:09         -4.09  -182.152887    2      1      

Converged after 22 iterations.

Dipole moment: (0.412359, -0.092962, -0.004128) |e|*Ang

Energy contributions relative to reference atoms: (reference = -24663.074771)

Kinetic:       +133.937732
Potential:     -136.866567
External:        +0.000000
XC:            -182.144201
Entropy (-ST):   -0.182969
Local:           +3.011633
--------------------------
Free energy:   -182.244372
Extrapolated:  -182.152887

Fermi level: -4.51853

 Band  Eigenvalues  Occupancy
    0    -23.73110    2.00000
    1    -22.89107    2.00000
    2    -21.71921    2.00000
    3    -21.16173    2.00000
    4    -20.50036    2.00000
    5    -20.39499    2.00000
    6    -19.70635    2.00000
    7    -19.37081    2.00000
    8    -18.59327    2.00000
    9    -18.24007    2.00000
   10    -17.68041    2.00000
   11    -17.41227    2.00000
   12    -16.44596    2.00000
   13    -16.15917    2.00000
   14    -15.30030    2.00000
   15    -14.63701    2.00000
   16    -14.53223    2.00000
   17    -13.88856    2.00000
   18    -13.39398    2.00000
   19    -12.65039    2.00000
   20    -12.36237    2.00000
   21    -11.97953    2.00000
   22    -11.80304    2.00000
   23    -11.43914    2.00000
   24    -11.11778    2.00000
   25    -11.06755    2.00000
   26    -10.79547    2.00000
   27    -10.40389    2.00000
   28    -10.30250    2.00000
   29     -9.92974    2.00000
   30     -9.69371    2.00000
   31     -9.50350    2.00000
   32     -9.19700    2.00000
   33     -8.78751    2.00000
   34     -8.43273    2.00000
   35     -8.08409    2.00000
   36     -7.52604    2.00000
   37     -7.23659    2.00000
   38     -7.05813    2.00000
   39     -7.04650    2.00000
   40     -6.50133    2.00000
   41     -6.38283    2.00000
   42     -6.20994    2.00000
   43     -5.85372    2.00000
   44     -5.64465    1.99997
   45     -5.13659    1.99587
   46     -4.87156    1.94308
   47     -4.72823    1.78123
   48     -4.33318    0.27093
   49     -3.97765    0.00891
   50     -3.20908    0.00000
   51     -3.09351    0.00000
   52     -2.83764    0.00000
   53     -2.80676    0.00000
   54     -2.60324    0.00000
   55     -1.17412    0.00000
   56     -1.10531    0.00000
   57     -0.94493    0.00000
   58     -0.74808    0.00000
   59      0.28948    0.00000
   60      0.71010    0.00000
   61      1.91332    0.00000
   62      2.01069    0.00000
   63      3.08132    0.00000
   64      3.28296    0.00000
   65      3.56237    0.00000
   66      3.82415    0.00000
   67      4.61552    0.00000
   68      4.70718    0.00000
   69      5.12318    0.00000
   70      5.36585    0.00000
   71      5.95897    0.00000
   72      6.34448    0.00000
   73      6.63950    0.00000
   74      6.69293    0.00000
   75      6.90286    0.00000
   76      7.21856    0.00000
   77      7.56590    0.00000
   78      7.88527    0.00000
   79      8.14429    0.00000
   80      8.25398    0.00000
   81      8.56406    0.00000
   82      8.67389    0.00000
   83      8.74112    0.00000
   84      8.84445    0.00000
   85      8.99817    0.00000
   86      9.23348    0.00000
   87      9.41755    0.00000
   88      9.43819    0.00000
   89      9.57049    0.00000
   90      9.67447    0.00000
   91      9.79936    0.00000
   92      9.94329    0.00000
   93     10.00531    0.00000
   94     10.21048    0.00000
   95     10.34070    0.00000
   96     10.38483    0.00000
   97     10.50756    0.00000


Forces in eV/Ang:
  0 C     0.85149   -0.63639   -0.06058
  1 C    -0.06456   -0.80047    0.03835
  2 C    -1.50043    0.83071   -2.19874
  3 C     0.21969    0.01253    0.00932
  4 C     1.18552   -0.13993    0.43308
  5 C     3.12845   -7.52179   -0.35601
  6 C     0.26128   -0.10000    0.10292
  7 C    -0.28522   -0.01271    0.04690
  8 C     0.20189   -1.58239   -0.11190
  9 C     0.36213    0.17059    0.09321
 10 C     0.72547   -2.35397   -0.01168
 11 C     0.14751    0.42203    0.03640
 12 C     0.20173    0.06150    0.00617
 13 C    -0.21366    0.32206    0.18101
 14 C    -0.14764    0.12779   -0.51429
 15 C     0.18366    0.28045   -0.44805
 16 C    -0.05615    1.48388    0.40181
 17 C    -4.93130    8.55557   -0.12007
 18 C    -0.75009   -0.16323    0.02391
 19 C    -1.49579    0.86555   -0.78942
 20 C    -0.03821   -0.27933    0.01100
 21 C    -0.50269    0.49677    0.06660
 22 C     2.10202    0.26438    3.30146
 23 C     0.50242   -0.26452   -0.25179

System changes: positions 

Initializing position-dependent things.

Density initialized from wave functions
           .--------------------------------------.  
          /|                                      |  
         / |                                      |  
        /  |                                      |  
       /   |                                      |  
      /    |                                      |  
     /     |                                      |  
    /      |                                      |  
   /       |                                      |  
  /        |           C  C   C                   |  
 *         |  C C   C      C   C                  |  
 |         | C       C   C  C    C                |  
 |         .---C---C-C--------C-------------------.  
 |        /    C C   C        C                  /   
 |       /             C  C                     /    
 |      /                                      /     
 |     /                                      /      
 |    /                                      /       
 |   /                                      /        
 |  /                                      /         
 | /                                      /          
 |/                                      /           
 *--------------------------------------*            

Positions:
   0 C      5.682701    3.434454    5.309147
   1 C     10.726176    5.229517    5.649834
   2 C      9.798379    8.591883    6.196788
   3 C      8.232119    3.193691    5.166847
   4 C      9.571674    6.171379    5.753108
   5 C      8.200173    6.247777    5.672156
   6 C      7.021953    3.891858    5.339824
   7 C      9.488331    3.319399    5.320866
   8 C     10.382980    7.402391    6.006539
   9 C     11.456441    6.416219    5.935700
  10 C      7.033234    5.338895    5.503996
  11 C     10.698359    3.905611    5.297131
  12 C      5.496453    8.689399    5.818144
  13 C      3.537044    7.529482    5.688277
  14 C      7.622256    9.807612    5.800057
  15 C      6.376666    9.790813    5.938229
  16 C      5.833371    6.085589    5.485925
  17 C      7.758921    7.511193    5.450291
  18 C      4.471163    5.498225    5.461858
  19 C      6.307796    7.473173    5.594179
  20 C      4.071754    8.708334    5.847847
  21 C      4.614801    4.090019    5.355567
  22 C      8.505506    8.749139    5.481909
  23 C      3.261210    6.250446    5.559315

Unit cell:
           periodic     x           y           z      points  spacing
  1. axis:    yes   16.000000    0.000000    0.000000    80     0.2000
  2. axis:    yes    0.000000   16.000000    0.000000    80     0.2000
  3. axis:    yes    0.000000    0.000000   10.000000    48     0.2083

Effective grid spacing dv^(1/3) = 0.2027

                     log10-error:    total        iterations:
           time      wfs    density  energy       fermi  poisson
iter:   1  16:15:11          +inf  -182.810830    2      5      
iter:   2  16:15:12         -2.29  -182.801373    2      1      
iter:   3  16:15:12         -2.39  -182.792725    2      2      
iter:   4  16:15:13         -2.54  -182.792174    2      2      
iter:   5  16:15:13         -2.71  -182.790034    2      2      
iter:   6  16:15:14         -2.87  -182.792366    2      2      
iter:   7  16:15:15         -2.81  -182.789819    2      2      
iter:   8  16:15:15         -3.20  -182.789702    1      1      
iter:   9  16:15:16         -3.32  -182.789705    2      2      
iter:  10  16:15:17         -3.69  -182.789732    2      1      
iter:  11  16:15:17         -3.80  -182.789758    2      1      
iter:  12  16:15:18         -3.91  -182.789736    2      1      
iter:  13  16:15:18         -4.02  -182.789691    2      1      

Converged after 13 iterations.

Dipole moment: (0.415373, -0.097863, -0.008901) |e|*Ang

Energy contributions relative to reference atoms: (reference = -24663.074771)

Kinetic:       +130.334363
Potential:     -134.304285
External:        +0.000000
XC:            -181.716052
Entropy (-ST):   -0.184936
Local:           +2.988751
--------------------------
Free energy:   -182.882158
Extrapolated:  -182.789691

Fermi level: -4.52190

 Band  Eigenvalues  Occupancy
    0    -23.64801    2.00000
    1    -22.81740    2.00000
    2    -21.72186    2.00000
    3    -21.09521    2.00000
    4    -20.49697    2.00000
    5    -20.39733    2.00000
    6    -19.69495    2.00000
    7    -19.38497    2.00000
    8    -18.51009    2.00000
    9    -18.23705    2.00000
   10    -17.70640    2.00000
   11    -17.41897    2.00000
   12    -16.45790    2.00000
   13    -16.12300    2.00000
   14    -15.28681    2.00000
   15    -14.61602    2.00000
   16    -14.52634    2.00000
   17    -13.86745    2.00000
   18    -13.39821    2.00000
   19    -12.62699    2.00000
   20    -12.36976    2.00000
   21    -12.03120    2.00000
   22    -11.81860    2.00000
   23    -11.42247    2.00000
   24    -11.01392    2.00000
   25    -10.96634    2.00000
   26    -10.81880    2.00000
   27    -10.45290    2.00000
   28    -10.38293    2.00000
   29     -9.94262    2.00000
   30     -9.66819    2.00000
   31     -9.40386    2.00000
   32     -9.28087    2.00000
   33     -8.74002    2.00000
   34     -8.43350    2.00000
   35     -8.06959    2.00000
   36     -7.53107    2.00000
   37     -7.23061    2.00000
   38     -7.06040    2.00000
   39     -7.05155    2.00000
   40     -6.43754    2.00000
   41     -6.36004    2.00000
   42     -6.19425    2.00000
   43     -5.87480    2.00000
   44     -5.63812    1.99997
   45     -5.15512    1.99645
   46     -4.88923    1.95047
   47     -4.72454    1.76709
   48     -4.33801    0.27436
   49     -4.00795    0.01165
   50     -3.13695    0.00000
   51     -3.07588    0.00000
   52     -2.84126    0.00000
   53     -2.77840    0.00000
   54     -2.60164    0.00000
   55     -1.18006    0.00000
   56     -1.10334    0.00000
   57     -0.89602    0.00000
   58     -0.74454    0.00000
   59      0.29413    0.00000
   60      0.64403    0.00000
   61      1.91138    0.00000
   62      2.01036    0.00000
   63      3.14007    0.00000
   64      3.38385    0.00000
   65      3.57214    0.00000
   66      3.85565    0.00000
   67      4.65751    0.00000
   68      4.74032    0.00000
   69      5.06758    0.00000
   70      5.50585    0.00000
   71      5.97572    0.00000
   72      6.43526    0.00000
   73      6.66535    0.00000
   74      6.74039    0.00000
   75      6.89109    0.00000
   76      7.26025    0.00000
   77      7.58659    0.00000
   78      7.92272    0.00000
   79      8.20522    0.00000
   80      8.26449    0.00000
   81      8.58387    0.00000
   82      8.72355    0.00000
   83      8.78042    0.00000
   84      8.86873    0.00000
   85      9.03185    0.00000
   86      9.24879    0.00000
   87      9.42294    0.00000
   88      9.45888    0.00000
   89      9.58888    0.00000
   90      9.69662    0.00000
   91      9.85903    0.00000
   92      9.97496    0.00000
   93     10.00242    0.00000
   94     10.22656    0.00000
   95     10.35473    0.00000
   96     10.41080    0.00000
   97     10.50866    0.00000


Forces in eV/Ang:
  0 C     0.28315   -0.34919   -0.03128
  1 C     0.23974   -0.73421    0.10589
  2 C    -0.87511    0.32852   -1.93939
  3 C     0.20842   -0.00763    0.00834
  4 C     1.00095   -0.22932    0.35894
  5 C     1.38302   -3.23661   -0.97283
  6 C     0.17575   -0.31171    0.06140
  7 C    -0.16265   -0.04631    0.03338
  8 C     0.07607   -0.98613   -0.10566
  9 C     0.27036    0.10926    0.07716
 10 C     0.52623   -1.78682   -0.02401
 11 C     0.06059    0.35308    0.02764
 12 C    -0.00315    0.22545    0.00083
 13 C    -0.27753    0.16118    0.15721
 14 C    -0.10497    0.28751   -0.46478
 15 C     0.09183    0.31281   -0.42223
 16 C     0.13560    1.00952    0.38581
 17 C    -3.05359    3.67539    0.52310
 18 C    -0.50670   -0.08265    0.02304
 19 C    -1.36052    0.93428   -0.70688
 20 C     0.02453   -0.18606    0.03093
 21 C    -0.00076    0.10670    0.03866
 22 C     1.60810    0.56155    2.98567
 23 C     0.37702   -0.08517   -0.22211

System changes: positions 

Initializing position-dependent things.

Density initialized from wave functions
           .--------------------------------------.  
          /|                                      |  
         / |                                      |  
        /  |                                      |  
       /   |                                      |  
      /    |                                      |  
     /     |                                      |  
    /      |                                      |  
   /       |                                      |  
  /        |           C  C   C                   |  
 *         |  C C   C      C   C                  |  
 |         | C       C   C  C    C                |  
 |         .---C---C-C--------C-------------------.  
 |        /    C C   C        C                  /   
 |       /             C  C                     /    
 |      /                                      /     
 |     /                                      /      
 |    /                                      /       
 |   /                                      /        
 |  /                                      /         
 | /                                      /          
 |/                                      /           
 *--------------------------------------*            

Positions:
   0 C      5.683076    3.431721    5.308922
   1 C     10.730805    5.220819    5.651512
   2 C      9.791011    8.593180    6.174276
   3 C      8.234630    3.193486    5.166945
   4 C      9.583015    6.168058    5.757131
   5 C      8.207659    6.231357    5.656763
   6 C      7.023653    3.886848    5.340354
   7 C      9.486997    3.318643    5.321204
   8 C     10.383228    7.393494    6.005270
   9 C     11.459274    6.417231    5.936564
  10 C      7.038635    5.319956    5.503632
  11 C     10.698629    3.909590    5.297424
  12 C      5.495289    8.693082    5.818125
  13 C      3.533268    7.530588    5.690087
  14 C      7.621195    9.812038    5.794593
  15 C      6.377295    9.794851    5.933160
  16 C      5.836098    6.095444    5.490599
  17 C      7.731543    7.529761    5.460278
  18 C      4.466246    5.497648    5.462138
  19 C      6.291748    7.485081    5.585908
  20 C      4.072401    8.706549    5.848338
  21 C      4.617547    4.089194    5.355891
  22 C      8.522641    8.757701    5.517024
  23 C      3.265175    6.250380    5.556736

Unit cell:
           periodic     x           y           z      points  spacing
  1. axis:    yes   16.000000    0.000000    0.000000    80     0.2000
  2. axis:    yes    0.000000   16.000000    0.000000    80     0.2000
  3. axis:    yes    0.000000    0.000000   10.000000    48     0.2083

Effective grid spacing dv^(1/3) = 0.2027

                     log10-error:    total        iterations:
           time      wfs    density  energy       fermi  poisson
iter:   1  16:15:20          +inf  -183.278892    2      5      
iter:   2  16:15:21         -2.12  -183.250151    3      2      
iter:   3  16:15:22         -2.26  -183.233530    2      2      
iter:   4  16:15:22         -2.43  -183.229049    2      2      
iter:   5  16:15:23         -2.65  -183.228409    2      2      
iter:   6  16:15:24         -2.78  -183.227191    2      2      
iter:   7  16:15:24         -3.01  -183.226597    2      1      
iter:   8  16:15:25         -3.09  -183.227217    2      2      
iter:   9  16:15:25         -3.45  -183.227087    2      1      
iter:  10  16:15:26         -3.59  -183.226932    1      1      
iter:  11  16:15:27         -3.76  -183.227654    2      1      
iter:  12  16:15:27         -3.85  -183.227680    2      1      
iter:  13  16:15:28         -3.97  -183.227419    2      1      
iter:  14  16:15:28         -4.11  -183.227483    2      1      

Converged after 14 iterations.

Dipole moment: (0.422863, -0.087348, -0.007689) |e|*Ang

Energy contributions relative to reference atoms: (reference = -24663.074771)

Kinetic:       +129.333618
Potential:     -133.672012
External:        +0.000000
XC:            -181.802748
Entropy (-ST):   -0.192242
Local:           +3.009779
--------------------------
Free energy:   -183.323604
Extrapolated:  -183.227483

Fermi level: -4.51115

 Band  Eigenvalues  Occupancy
    0    -23.61972    2.00000
    1    -22.75526    2.00000
    2    -21.71643    2.00000
    3    -21.05621    2.00000
    4    -20.49210    2.00000
    5    -20.41308    2.00000
    6    -19.70308    2.00000
    7    -19.39088    2.00000
    8    -18.43159    2.00000
    9    -18.25741    2.00000
   10    -17.72669    2.00000
   11    -17.38751    2.00000
   12    -16.47383    2.00000
   13    -16.10653    2.00000
   14    -15.27123    2.00000
   15    -14.63584    2.00000
   16    -14.51734    2.00000
   17    -13.84198    2.00000
   18    -13.40907    2.00000
   19    -12.61603    2.00000
   20    -12.38759    2.00000
   21    -12.13217    2.00000
   22    -11.83027    2.00000
   23    -11.38587    2.00000
   24    -10.97566    2.00000
   25    -10.87111    2.00000
   26    -10.80233    2.00000
   27    -10.56563    2.00000
   28    -10.41325    2.00000
   29     -9.97221    2.00000
   30     -9.65761    2.00000
   31     -9.37755    2.00000
   32     -9.34425    2.00000
   33     -8.72383    2.00000
   34     -8.43004    2.00000
   35     -8.08623    2.00000
   36     -7.53063    2.00000
   37     -7.22234    2.00000
   38     -7.06149    2.00000
   39     -7.05241    2.00000
   40     -6.39392    2.00000
   41     -6.34551    2.00000
   42     -6.20329    2.00000
   43     -5.88985    2.00000
   44     -5.62689    1.99997
   45     -5.16316    1.99706
   46     -4.87809    1.95028
   47     -4.70546    1.74938
   48     -4.33314    0.28858
   49     -4.02076    0.01473
   50     -3.11662    0.00000
   51     -3.01255    0.00000
   52     -2.80818    0.00000
   53     -2.70392    0.00000
   54     -2.61944    0.00000
   55     -1.18806    0.00000
   56     -1.07331    0.00000
   57     -0.86647    0.00000
   58     -0.65597    0.00000
   59      0.31808    0.00000
   60      0.66384    0.00000
   61      1.92341    0.00000
   62      2.05343    0.00000
   63      3.18473    0.00000
   64      3.43368    0.00000
   65      3.61603    0.00000
   66      3.94045    0.00000
   67      4.61977    0.00000
   68      4.79038    0.00000
   69      5.14148    0.00000
   70      5.52753    0.00000
   71      5.98172    0.00000
   72      6.44229    0.00000
   73      6.67041    0.00000
   74      6.80389    0.00000
   75      6.90995    0.00000
   76      7.37784    0.00000
   77      7.60772    0.00000
   78      7.94355    0.00000
   79      8.13583    0.00000
   80      8.29481    0.00000
   81      8.60814    0.00000
   82      8.78729    0.00000
   83      8.85645    0.00000
   84      8.89309    0.00000
   85      9.07433    0.00000
   86      9.26930    0.00000
   87      9.43437    0.00000
   88      9.46176    0.00000
   89      9.61220    0.00000
   90      9.74124    0.00000
   91      9.92307    0.00000
   92     10.01048    0.00000
   93     10.03910    0.00000
   94     10.23905    0.00000
   95     10.37186    0.00000
   96     10.46295    0.00000
   97     10.53214    0.00000


Forces in eV/Ang:
  0 C     0.28424   -0.40053   -0.01834
  1 C     0.45598   -0.34190    0.20850
  2 C     0.10699   -0.12509   -1.38503
  3 C     0.13127   -0.10040   -0.01104
  4 C     0.35128   -0.21354    0.24961
  5 C     0.73991   -1.50965   -1.00353
  6 C     0.05467   -0.53452    0.00851
  7 C     0.07749   -0.04360    0.00304
  8 C    -0.03476   -0.43831   -0.05255
  9 C     0.22426    0.02534    0.02149
 10 C     0.18556   -0.67369   -0.03695
 11 C    -0.02395   -0.01646   -0.01167
 12 C    -0.26208    0.49293   -0.05732
 13 C    -0.25800    0.14338    0.13535
 14 C     0.00153    0.41427   -0.33499
 15 C    -0.02575    0.33484   -0.34856
 16 C     0.07725    0.21771    0.27612
 17 C    -1.43424    1.87867    0.63620
 18 C    -0.04867   -0.06773    0.01602
 19 C    -0.90266    0.57974   -0.50177
 20 C    -0.04527   -0.11391    0.04840
 21 C    -0.06180    0.17997    0.03939
 22 C     0.32468    0.33367    2.23063
 23 C     0.18037    0.02713   -0.17425

System changes: positions 

Initializing position-dependent things.

Density initialized from wave functions
           .--------------------------------------.  
          /|                                      |  
         / |                                      |  
        /  |                                      |  
       /   |                                      |  
      /    |                                      |  
     /     |                                      |  
    /      |                                      |  
   /       |                                      |  
  /        |           C  C   C                   |  
 *         |  C C   C      C   C                  |  
 |         | C       C   C  C    C                |  
 |         .---C---C-C--------C-------------------.  
 |        /    C C   C        C                  /   
 |       /             C  C                     /    
 |      /                                      /     
 |     /                                      /      
 |    /                                      /       
 |   /                                      /        
 |  /                                      /         
 | /                                      /          
 |/                                      /           
 *--------------------------------------*            

Positions:
   0 C      5.686041    3.425707    5.308693
   1 C     10.739830    5.214677    5.655374
   2 C      9.794397    8.589495    6.150204
   3 C      8.236980    3.191707    5.166761
   4 C      9.589099    6.163930    5.761377
   5 C      8.214930    6.218831    5.636732
   6 C      7.024408    3.876773    5.340396
   7 C      9.488624    3.317745    5.321233
   8 C     10.382242    7.387453    6.004317
   9 C     11.462954    6.417524    5.936932
  10 C      7.041475    5.309174    5.502942
  11 C     10.697955    3.909346    5.297216
  12 C      5.490101    8.702208    5.817136
  13 C      3.528442    7.532558    5.692418
  14 C      7.621292    9.819867    5.788725
  15 C      6.376598    9.800891    5.927011
  16 C      5.838216    6.098216    5.495528
  17 C      7.711646    7.546717    5.473822
  18 C      4.465900    5.496729    5.462424
  19 C      6.275857    7.495904    5.577142
  20 C      4.071884    8.704811    5.849255
  21 C      4.618334    4.090902    5.356487
  22 C      8.527638    8.764891    5.556054
  23 C      3.268076    6.251425    5.553715

Unit cell:
           periodic     x           y           z      points  spacing
  1. axis:    yes   16.000000    0.000000    0.000000    80     0.2000
  2. axis:    yes    0.000000   16.000000    0.000000    80     0.2000
  3. axis:    yes    0.000000    0.000000   10.000000    48     0.2083

Effective grid spacing dv^(1/3) = 0.2027

                     log10-error:    total        iterations:
           time      wfs    density  energy       fermi  poisson
iter:   1  16:15:30          +inf  -183.515750    3      5      
iter:   2  16:15:31         -2.17  -183.489994    2      2      
iter:   3  16:15:32         -2.34  -183.476514    2      2      
iter:   4  16:15:32         -2.53  -183.474542    2      2      
iter:   5  16:15:33         -2.76  -183.473705    2      1      
iter:   6  16:15:34         -2.86  -183.473722    2      2      
iter:   7  16:15:34         -3.11  -183.473678    2      1      
iter:   8  16:15:35         -3.18  -183.473644    2      2      
iter:   9  16:15:35         -3.56  -183.473717    2      1      
iter:  10  16:15:36         -3.63  -183.473419    2      1      
iter:  11  16:15:37         -3.89  -183.473565    2      1      
iter:  12  16:15:37         -3.98  -183.473662    2      1      
iter:  13  16:15:38         -4.10  -183.473548    2      1      

Converged after 13 iterations.

Dipole moment: (0.423115, -0.078660, -0.001936) |e|*Ang

Energy contributions relative to reference atoms: (reference = -24663.074771)

Kinetic:       +128.166868
Potential:     -132.796465
External:        +0.000000
XC:            -181.755736
Entropy (-ST):   -0.204094
Local:           +3.013831
--------------------------
Free energy:   -183.575595
Extrapolated:  -183.473548

Fermi level: -4.50816

 Band  Eigenvalues  Occupancy
    0    -23.58255    2.00000
    1    -22.68351    2.00000
    2    -21.70901    2.00000
    3    -21.02533    2.00000
    4    -20.49428    2.00000
    5    -20.39698    2.00000
    6    -19.70267    2.00000
    7    -19.40361    2.00000
    8    -18.38226    2.00000
    9    -18.25842    2.00000
   10    -17.73681    2.00000
   11    -17.35738    2.00000
   12    -16.49302    2.00000
   13    -16.09474    2.00000
   14    -15.25288    2.00000
   15    -14.64031    2.00000
   16    -14.51531    2.00000
   17    -13.82648    2.00000
   18    -13.41321    2.00000
   19    -12.60425    2.00000
   20    -12.40552    2.00000
   21    -12.21194    2.00000
   22    -11.83596    2.00000
   23    -11.36920    2.00000
   24    -10.94926    2.00000
   25    -10.90348    2.00000
   26    -10.70976    2.00000
   27    -10.62897    2.00000
   28    -10.41127    2.00000
   29     -9.98561    2.00000
   30     -9.65006    2.00000
   31     -9.42846    2.00000
   32     -9.28193    2.00000
   33     -8.70762    2.00000
   34     -8.43306    2.00000
   35     -8.08229    2.00000
   36     -7.53675    2.00000
   37     -7.20474    2.00000
   38     -7.06893    2.00000
   39     -7.05899    2.00000
   40     -6.36997    2.00000
   41     -6.30706    2.00000
   42     -6.21179    2.00000
   43     -5.87886    2.00000
   44     -5.61326    1.99997
   45     -5.16876    1.99730
   46     -4.86090    1.94292
   47     -4.69328    1.72853
   48     -4.34037    0.31474
   49     -4.02951    0.01654
   50     -3.09331    0.00000
   51     -2.96452    0.00000
   52     -2.81102    0.00000
   53     -2.65029    0.00000
   54     -2.62458    0.00000
   55     -1.20101    0.00000
   56     -1.05083    0.00000
   57     -0.83737    0.00000
   58     -0.55005    0.00000
   59      0.32127    0.00000
   60      0.68092    0.00000
   61      1.97029    0.00000
   62      2.07951    0.00000
   63      3.19158    0.00000
   64      3.42488    0.00000
   65      3.65108    0.00000
   66      4.04187    0.00000
   67      4.59998    0.00000
   68      4.83685    0.00000
   69      5.18115    0.00000
   70      5.52141    0.00000
   71      5.94738    0.00000
   72      6.41965    0.00000
   73      6.67007    0.00000
   74      6.85989    0.00000
   75      6.95325    0.00000
   76      7.43133    0.00000
   77      7.67824    0.00000
   78      7.96209    0.00000
   79      8.12859    0.00000
   80      8.33925    0.00000
   81      8.62705    0.00000
   82      8.80422    0.00000
   83      8.88597    0.00000
   84      8.93409    0.00000
   85      9.08387    0.00000
   86      9.27001    0.00000
   87      9.44278    0.00000
   88      9.45301    0.00000
   89      9.62981    0.00000
   90      9.77076    0.00000
   91      9.98267    0.00000
   92     10.01636    0.00000
   93     10.11414    0.00000
   94     10.24826    0.00000
   95     10.38825    0.00000
   96     10.49614    0.00000
   97     10.53797    0.00000


Forces in eV/Ang:
  0 C    -0.22909   -0.19549    0.00817
  1 C     0.47588   -0.06004    0.28397
  2 C     0.64014   -0.17890   -0.90249
  3 C     0.16309   -0.17358   -0.02781
  4 C     0.12436   -0.30697    0.13980
  5 C     0.19973   -0.35917   -0.85737
  6 C     0.04464   -0.42262   -0.00105
  7 C     0.06537   -0.10264   -0.01148
  8 C     0.06515   -0.28473   -0.05817
  9 C     0.16867   -0.07007   -0.03042
 10 C     0.04515   -0.17284   -0.07354
 11 C     0.03407   -0.12887   -0.03444
 12 C    -0.30379    0.55614   -0.11974
 13 C    -0.26213    0.06360    0.11517
 14 C    -0.08662    0.57505   -0.17789
 15 C    -0.02619    0.36196   -0.30903
 16 C     0.03781   -0.07012    0.16204
 17 C    -0.52054    0.63481    0.57287
 18 C     0.09344   -0.00729    0.01926
 19 C    -0.40373    0.28489   -0.29280
 20 C    -0.16306    0.00154    0.06762
 21 C     0.32061   -0.13366    0.02085
 22 C    -0.42862    0.13264    1.61485
 23 C     0.11921    0.08367   -0.13852

System changes: positions 

Initializing position-dependent things.

Density initialized from wave functions
           .--------------------------------------.  
          /|                                      |  
         / |                                      |  
        /  |                                      |  
       /   |                                      |  
      /    |                                      |  
     /     |                                      |  
    /      |                                      |  
   /       |                                      |  
  /        |           C  C   C                   |  
 *         |  C C   C      C   C                  |  
 |         | C       C  CC  C    C                |  
 |         .---C---C-C--------C-------------------.  
 |        /    C C   C        C                  /   
 |       /             C  C                     /    
 |      /                                      /     
 |     /                                      /      
 |    /                                      /       
 |   /                                      /        
 |  /                                      /         
 | /                                      /          
 |/                                      /           
 *--------------------------------------*            

Positions:
   0 C      5.682646    3.421001    5.308763
   1 C     10.750336    5.211215    5.661120
   2 C      9.804892    8.585733    6.127293
   3 C      8.240505    3.188442    5.166279
   4 C      9.593933    6.157504    5.765092
   5 C      8.219935    6.210077    5.615987
   6 C      7.025501    3.866922    5.340443
   7 C      9.489903    3.315743    5.321092
   8 C     10.383089    7.380535    6.002984
   9 C     11.466850    6.416544    5.936622
  10 C      7.043479    5.301676    5.501530
  11 C     10.698376    3.907709    5.296644
  12 C      5.483764    8.713853    5.814954
  13 C      3.522560    7.534090    5.695043
  14 C      7.619752    9.831664    5.783832
  15 C      6.376070    9.808691    5.919942
  16 C      5.839758    6.098810    5.499871
  17 C      7.695977    7.560941    5.487786
  18 C      4.466782    5.496377    5.462840
  19 C      6.263712    7.504559    5.569374
  20 C      4.069213    8.704270    5.850638
  21 C      4.624421    4.088739    5.356986
  22 C      8.523812    8.769923    5.595551
  23 C      3.271143    6.253097    5.550457

Unit cell:
           periodic     x           y           z      points  spacing
  1. axis:    yes   16.000000    0.000000    0.000000    80     0.2000
  2. axis:    yes    0.000000   16.000000    0.000000    80     0.2000
  3. axis:    yes    0.000000    0.000000   10.000000    48     0.2083

Effective grid spacing dv^(1/3) = 0.2027

                     log10-error:    total        iterations:
           time      wfs    density  energy       fermi  poisson
iter:   1  16:15:40          +inf  -183.644025    3      5      
iter:   2  16:15:40         -2.31  -183.634833    2      1      
iter:   3  16:15:41         -2.43  -183.629103    2      2      
iter:   4  16:15:42         -2.66  -183.627139    2      1      
iter:   5  16:15:42         -2.77  -183.628830    2      2      
iter:   6  16:15:43         -2.92  -183.628208    2      2      
iter:   7  16:15:44         -3.04  -183.626728    2      1      
iter:   8  16:15:44         -3.28  -183.627595    2      1      
iter:   9  16:15:45         -3.50  -183.628266    2      1      
iter:  10  16:15:45         -3.65  -183.628245    2      1      
iter:  11  16:15:46         -3.79  -183.628283    2      1      
iter:  12  16:15:47         -3.88  -183.628231    2      1      
iter:  13  16:15:47         -3.97  -183.628071    2      1      
iter:  14  16:15:48         -4.18  -183.628200    1      1      

Converged after 14 iterations.

Dipole moment: (0.414712, -0.072824, 0.005380) |e|*Ang

Energy contributions relative to reference atoms: (reference = -24663.074771)

Kinetic:       +127.289848
Potential:     -132.137575
External:        +0.000000
XC:            -181.688569
Entropy (-ST):   -0.218454
Local:           +3.017322
--------------------------
Free energy:   -183.737427
Extrapolated:  -183.628200

Fermi level: -4.51125

 Band  Eigenvalues  Occupancy
    0    -23.55578    2.00000
    1    -22.62726    2.00000
    2    -21.69419    2.00000
    3    -20.99631    2.00000
    4    -20.49185    2.00000
    5    -20.35840    2.00000
    6    -19.69569    2.00000
    7    -19.40398    2.00000
    8    -18.34941    2.00000
    9    -18.26326    2.00000
   10    -17.72888    2.00000
   11    -17.34470    2.00000
   12    -16.49970    2.00000
   13    -16.09913    2.00000
   14    -15.22503    2.00000
   15    -14.64739    2.00000
   16    -14.51039    2.00000
   17    -13.80189    2.00000
   18    -13.40530    2.00000
   19    -12.59908    2.00000
   20    -12.41738    2.00000
   21    -12.25325    2.00000
   22    -11.84041    2.00000
   23    -11.34948    2.00000
   24    -10.95708    2.00000
   25    -10.90598    2.00000
   26    -10.65716    2.00000
   27    -10.64644    2.00000
   28    -10.39651    2.00000
   29     -9.99133    2.00000
   30     -9.63969    2.00000
   31     -9.45635    2.00000
   32     -9.22289    2.00000
   33     -8.69496    2.00000
   34     -8.43609    2.00000
   35     -8.06316    2.00000
   36     -7.54550    2.00000
   37     -7.18713    2.00000
   38     -7.08248    2.00000
   39     -7.06337    2.00000
   40     -6.36989    2.00000
   41     -6.30340    2.00000
   42     -6.22698    2.00000
   43     -5.87752    2.00000
   44     -5.60883    1.99997
   45     -5.16843    1.99721
   46     -4.84390    1.93065
   47     -4.68724    1.70639
   48     -4.35536    0.34759
   49     -4.04225    0.01821
   50     -3.07514    0.00000
   51     -2.92411    0.00000
   52     -2.75098    0.00000
   53     -2.63139    0.00000
   54     -2.60736    0.00000
   55     -1.22096    0.00000
   56     -1.03257    0.00000
   57     -0.81385    0.00000
   58     -0.46078    0.00000
   59      0.35474    0.00000
   60      0.69280    0.00000
   61      2.01405    0.00000
   62      2.12099    0.00000
   63      3.18029    0.00000
   64      3.41206    0.00000
   65      3.68480    0.00000
   66      4.14406    0.00000
   67      4.60244    0.00000
   68      4.86401    0.00000
   69      5.20513    0.00000
   70      5.51255    0.00000
   71      5.89670    0.00000
   72      6.40256    0.00000
   73      6.64193    0.00000
   74      6.86927    0.00000
   75      7.01554    0.00000
   76      7.41620    0.00000
   77      7.71255    0.00000
   78      7.98078    0.00000
   79      8.14435    0.00000
   80      8.36155    0.00000
   81      8.63027    0.00000
   82      8.79876    0.00000
   83      8.88035    0.00000
   84      8.96971    0.00000
   85      9.09215    0.00000
   86      9.26244    0.00000
   87      9.42656    0.00000
   88      9.45942    0.00000
   89      9.64265    0.00000
   90      9.78119    0.00000
   91     10.00465    0.00000
   92     10.02229    0.00000
   93     10.17658    0.00000
   94     10.25626    0.00000
   95     10.39685    0.00000
   96     10.49391    0.00000
   97     10.54558    0.00000


Forces in eV/Ang:
  0 C     0.30086   -0.45307   -0.01057
  1 C     0.39702   -0.06837    0.29257
  2 C     0.73590   -0.12917   -0.61430
  3 C    -0.04690   -0.21537   -0.04844
  4 C    -0.11812   -0.33864    0.04086
  5 C    -0.07589    0.35572   -0.63969
  6 C    -0.05477   -0.32800    0.00183
  7 C     0.26925   -0.09517    0.00616
  8 C     0.10880   -0.08431   -0.06732
  9 C     0.18846   -0.14449   -0.06074
 10 C    -0.00721    0.02411   -0.13287
 11 C     0.06040   -0.15139   -0.03389
 12 C    -0.29547    0.51521   -0.19905
 13 C    -0.23686    0.08318    0.11550
 14 C     0.06445    0.62082   -0.04145
 15 C    -0.26045    0.36383   -0.27960
 16 C    -0.01590   -0.17803    0.07619
 17 C     0.05607   -0.20686    0.48914
 18 C     0.18270   -0.07875    0.01400
 19 C    -0.10618    0.11579   -0.09482
 20 C    -0.25116    0.08892    0.07630
 21 C    -0.15197    0.22466    0.05564
 22 C    -0.67790    0.03679    1.14802
 23 C     0.09583    0.03541   -0.12172

System changes: positions 

Initializing position-dependent things.

Density initialized from wave functions
           .--------------------------------------.  
          /|                                      |  
         / |                                      |  
        /  |                                      |  
       /   |                                      |  
      /    |                                      |  
     /     |                                      |  
    /      |                                      |  
   /       |                                      |  
  /        |           C  C   C                   |  
 *         |  C C   C      C   C                  |  
 |         | C       C  CC  C    C                |  
 |         .---C---C-C--------C-------------------.  
 |        /    C C   C        C                  /   
 |       /             C  C                     /    
 |      /                                      /     
 |     /                                      /      
 |    /                                      /       
 |   /                                      /        
 |  /                                      /         
 | /                                      /          
 |/                                      /           
 *--------------------------------------*            

Positions:
   0 C      5.686801    3.411560    5.308548
   1 C     10.760862    5.207078    5.667863
   2 C      9.817739    8.582964    6.104868
   3 C      8.241556    3.184019    5.165403
   4 C      9.596277    6.149569    5.767966
   5 C      8.223703    6.205223    5.596138
   6 C      7.025455    3.857420    5.340615
   7 C      9.494126    3.313507    5.321209
   8 C     10.385066    7.374567    6.001254
   9 C     11.471758    6.414315    5.935802
  10 C      7.045321    5.295096    5.498985
  11 C     10.699486    3.905641    5.295995
  12 C      5.476895    8.726478    5.811202
  13 C      3.516171    7.536297    5.698118
  14 C      7.620005    9.845953    5.780223
  15 C      6.372141    9.817757    5.912138
  16 C      5.840479    6.098636    5.503588
  17 C      7.684017    7.570981    5.501770
  18 C      4.468723    5.494852    5.463253
  19 C      6.254173    7.511862    5.563317
  20 C      4.064615    8.704913    5.852360
  21 C      4.624226    4.091707    5.358101
  22 C      8.516164    8.773843    5.634617
  23 C      3.274565    6.254080    5.546897

Unit cell:
           periodic     x           y           z      points  spacing
  1. axis:    yes   16.000000    0.000000    0.000000    80     0.2000
  2. axis:    yes    0.000000   16.000000    0.000000    80     0.2000
  3. axis:    yes    0.000000    0.000000   10.000000    48     0.2083

Effective grid spacing dv^(1/3) = 0.2027

                     log10-error:    total        iterations:
           time      wfs    density  energy       fermi  poisson
iter:   1  16:15:50          +inf  -183.740002    3      5      
iter:   2  16:15:50         -2.38  -183.738954    3      1      
iter:   3  16:15:51         -2.49  -183.735842    3      2      
iter:   4  16:15:52         -2.65  -183.735011    3      2      
iter:   5  16:15:52         -2.79  -183.736732    3      2      
iter:   6  16:15:53         -3.00  -183.733504    2      2      
iter:   7  16:15:54         -3.05  -183.734667    2      1      
iter:   8  16:15:54         -3.30  -183.735333    2      1      
iter:   9  16:15:55         -3.54  -183.734701    2      1      
iter:  10  16:15:55         -3.71  -183.734680    2      1      
iter:  11  16:15:56         -3.84  -183.734414    2      1      
iter:  12  16:15:56         -3.99  -183.734478    2      1      
iter:  13  16:15:57         -4.07  -183.734424    1      1      

Converged after 13 iterations.

Dipole moment: (0.401627, -0.071776, 0.013688) |e|*Ang

Energy contributions relative to reference atoms: (reference = -24663.074771)

Kinetic:       +124.370393
Potential:     -129.854895
External:        +0.000000
XC:            -181.135777
Entropy (-ST):   -0.234094
Local:           +3.002902
--------------------------
Free energy:   -183.851471
Extrapolated:  -183.734424

Fermi level: -4.51659

 Band  Eigenvalues  Occupancy
    0    -23.51345    2.00000
    1    -22.57246    2.00000
    2    -21.67321    2.00000
    3    -20.96988    2.00000
    4    -20.48745    2.00000
    5    -20.30975    2.00000
    6    -19.67806    2.00000
    7    -19.41151    2.00000
    8    -18.32564    2.00000
    9    -18.22813    2.00000
   10    -17.71837    2.00000
   11    -17.32535    2.00000
   12    -16.50407    2.00000
   13    -16.08470    2.00000
   14    -15.21235    2.00000
   15    -14.62728    2.00000
   16    -14.50852    2.00000
   17    -13.79098    2.00000
   18    -13.40424    2.00000
   19    -12.59820    2.00000
   20    -12.41815    2.00000
   21    -12.27577    2.00000
   22    -11.83788    2.00000
   23    -11.33214    2.00000
   24    -10.98524    2.00000
   25    -10.87828    2.00000
   26    -10.65832    2.00000
   27    -10.62467    2.00000
   28    -10.37143    2.00000
   29     -9.98460    2.00000
   30     -9.62269    2.00000
   31     -9.46606    2.00000
   32     -9.17842    2.00000
   33     -8.68521    2.00000
   34     -8.43465    2.00000
   35     -8.03117    2.00000
   36     -7.54586    2.00000
   37     -7.17037    2.00000
   38     -7.09637    2.00000
   39     -7.06602    2.00000
   40     -6.35271    2.00000
   41     -6.26902    2.00000
   42     -6.23150    2.00000
   43     -5.84810    2.00000
   44     -5.60133    1.99996
   45     -5.17239    1.99717
   46     -4.82434    1.91190
   47     -4.68500    1.68689
   48     -4.37295    0.38419
   49     -4.05649    0.01988
   50     -3.06840    0.00000
   51     -2.89967    0.00000
   52     -2.78993    0.00000
   53     -2.65813    0.00000
   54     -2.59023    0.00000
   55     -1.24759    0.00000
   56     -1.04137    0.00000
   57     -0.78142    0.00000
   58     -0.40169    0.00000
   59      0.32963    0.00000
   60      0.68892    0.00000
   61      2.03303    0.00000
   62      2.14458    0.00000
   63      3.13965    0.00000
   64      3.38947    0.00000
   65      3.69910    0.00000
   66      4.22219    0.00000
   67      4.60361    0.00000
   68      4.86010    0.00000
   69      5.20391    0.00000
   70      5.49231    0.00000
   71      5.82735    0.00000
   72      6.38203    0.00000
   73      6.65256    0.00000
   74      6.86382    0.00000
   75      7.05712    0.00000
   76      7.41352    0.00000
   77      7.74981    0.00000
   78      8.00228    0.00000
   79      8.17552    0.00000
   80      8.37036    0.00000
   81      8.63940    0.00000
   82      8.78051    0.00000
   83      8.85687    0.00000
   84      8.99492    0.00000
   85      9.08718    0.00000
   86      9.25205    0.00000
   87      9.40013    0.00000
   88      9.46916    0.00000
   89      9.65747    0.00000
   90      9.77368    0.00000
   91     10.00319    0.00000
   92     10.03206    0.00000
   93     10.20186    0.00000
   94     10.28586    0.00000
   95     10.40504    0.00000
   96     10.47826    0.00000
   97     10.57021    0.00000


Forces in eV/Ang:
  0 C    -0.50169   -0.06708    0.02532
  1 C     0.25009    0.01628    0.28436
  2 C     0.61662   -0.09232   -0.46047
  3 C     0.18829   -0.23934   -0.04370
  4 C    -0.18279   -0.32063   -0.04273
  5 C    -0.25895    0.72093   -0.41657
  6 C     0.03217   -0.22583   -0.00165
  7 C     0.03315   -0.14134   -0.00846
  8 C     0.13143    0.04126   -0.08309
  9 C     0.17282   -0.18971   -0.07873
 10 C    -0.07720    0.26130   -0.17061
 11 C     0.11959   -0.19282   -0.04444
 12 C    -0.26551    0.39861   -0.23594
 13 C    -0.23640   -0.00594    0.10516
 14 C    -0.18851    0.61382    0.10457
 15 C    -0.07281    0.36470   -0.26068
 16 C     0.05161   -0.24423    0.00212
 17 C     0.37128   -0.66737    0.42172
 18 C     0.17322    0.02037    0.02042
 19 C     0.09398    0.02356    0.07015
 20 C    -0.28015    0.16508    0.07143
 21 C     0.51633   -0.33729    0.01838
 22 C    -0.62524   -0.07143    0.80405
 23 C     0.07090    0.10945   -0.09764

System changes: positions 

Initializing position-dependent things.

Density initialized from wave functions
           .--------------------------------------.  
          /|                                      |  
         / |                                      |  
        /  |                                      |  
       /   |                                      |  
      /    |                                      |  
     /     |                                      |  
    /      |                                      |  
   /       |                                      |  
  /        |           C  C   C                   |  
 *         |  C C   C      C   C                  |  
 |         | C       C  CC  C    C                |  
 |         .---C---C-C---------C------------------.  
 |        /    C     C        C                  /   
 |       /       C     C  C                     /    
 |      /                                      /     
 |     /                                      /      
 |    /                                      /       
 |   /                                      /        
 |  /                                      /         
 | /                                      /          
 |/                                      /           
 *--------------------------------------*            

Positions:
   0 C      5.683100    3.404693    5.308696
   1 C     10.770383    5.203403    5.675514
   2 C      9.830673    8.580936    6.081844
   3 C      8.245294    3.178424    5.164380
   4 C      9.597268    6.140662    5.769839
   5 C      8.226534    6.202426    5.577789
   6 C      7.026328    3.848353    5.340811
   7 C      9.496372    3.310354    5.321216
   8 C     10.387918    7.369582    5.999006
   9 C     11.477408    6.410898    5.934506
  10 C      7.046448    5.291066    5.495309
  11 C     10.701761    3.902579    5.295102
  12 C      5.469570    8.739167    5.806053
  13 C      3.508959    7.537882    5.701563
  14 C      7.617299    9.862364    5.778540
  15 C      6.369447    9.828233    5.903457
  16 C      5.841833    6.097510    5.506552
  17 C      7.674713    7.578693    5.515988
  18 C      4.470976    5.494110    5.463801
  19 C      6.246869    7.518294    5.559262
  20 C      4.058499    8.706928    5.854292
  21 C      4.630934    4.089134    5.359035
  22 C      8.507562    8.776137    5.673614
  23 C      3.278196    6.255887    5.543144

Unit cell:
           periodic     x           y           z      points  spacing
  1. axis:    yes   16.000000    0.000000    0.000000    80     0.2000
  2. axis:    yes    0.000000   16.000000    0.000000    80     0.2000
  3. axis:    yes    0.000000    0.000000   10.000000    48     0.2083

Effective grid spacing dv^(1/3) = 0.2027

                     log10-error:    total        iterations:
           time      wfs    density  energy       fermi  poisson
iter:   1  16:15:59          +inf  -183.810802    2      5      
iter:   2  16:16:00         -2.38  -183.811733    3      1      
iter:   3  16:16:00         -2.53  -183.811857    2      1      
iter:   4  16:16:01         -2.63  -183.809933    2      2      
iter:   5  16:16:02         -2.80  -183.813030    2      2      
iter:   6  16:16:02         -2.86  -183.806324    3      2      
iter:   7  16:16:03         -2.71  -183.809093    2      1      
iter:   8  16:16:03         -3.13  -183.811142    2      1      
iter:   9  16:16:04         -3.47  -183.810575    2      1      
iter:  10  16:16:05         -3.61  -183.810572    2      1      
iter:  11  16:16:05         -3.80  -183.810286    2      1      
iter:  12  16:16:06         -3.93  -183.809974    2      1      
iter:  13  16:16:06         -4.05  -183.810225    2      1      

Converged after 13 iterations.

Dipole moment: (0.383028, -0.071169, 0.022344) |e|*Ang

Energy contributions relative to reference atoms: (reference = -24663.074771)

Kinetic:       +122.167864
Potential:     -128.177108
External:        +0.000000
XC:            -180.678832
Entropy (-ST):   -0.250896
Local:           +3.003300
--------------------------
Free energy:   -183.935673
Extrapolated:  -183.810225

Fermi level: -4.52449

 Band  Eigenvalues  Occupancy
    0    -23.46420    2.00000
    1    -22.52451    2.00000
    2    -21.64561    2.00000
    3    -20.94237    2.00000
    4    -20.47666    2.00000
    5    -20.26695    2.00000
    6    -19.66131    2.00000
    7    -19.40255    2.00000
    8    -18.31401    2.00000
    9    -18.21825    2.00000
   10    -17.69919    2.00000
   11    -17.32232    2.00000
   12    -16.49726    2.00000
   13    -16.08909    2.00000
   14    -15.18661    2.00000
   15    -14.62286    2.00000
   16    -14.49599    2.00000
   17    -13.76432    2.00000
   18    -13.39084    2.00000
   19    -12.58838    2.00000
   20    -12.41481    2.00000
   21    -12.28376    2.00000
   22    -11.83090    2.00000
   23    -11.30948    2.00000
   24    -11.00784    2.00000
   25    -10.84789    2.00000
   26    -10.65114    2.00000
   27    -10.60908    2.00000
   28    -10.33626    2.00000
   29     -9.97152    2.00000
   30     -9.60735    2.00000
   31     -9.46637    2.00000
   32     -9.13929    2.00000
   33     -8.67411    2.00000
   34     -8.43370    2.00000
   35     -8.00531    2.00000
   36     -7.54839    2.00000
   37     -7.15266    2.00000
   38     -7.11377    2.00000
   39     -7.06916    2.00000
   40     -6.36288    2.00000
   41     -6.27912    2.00000
   42     -6.24347    2.00000
   43     -5.84661    2.00000
   44     -5.60546    1.99996
   45     -5.17371    1.99697
   46     -4.80612    1.88710
   47     -4.68627    1.66900
   48     -4.39361    0.42538
   49     -4.07268    0.02159
   50     -3.06314    0.00000
   51     -2.87586    0.00000
   52     -2.74637    0.00000
   53     -2.67463    0.00000
   54     -2.56794    0.00000
   55     -1.27939    0.00000
   56     -1.03629    0.00000
   57     -0.76556    0.00000
   58     -0.35153    0.00000
   59      0.35190    0.00000
   60      0.68166    0.00000
   61      2.04542    0.00000
   62      2.18000    0.00000
   63      3.08160    0.00000
   64      3.36466    0.00000
   65      3.70477    0.00000
   66      4.28781    0.00000
   67      4.60927    0.00000
   68      4.84500    0.00000
   69      5.20794    0.00000
   70      5.46024    0.00000
   71      5.76501    0.00000
   72      6.35197    0.00000
   73      6.61963    0.00000
   74      6.85123    0.00000
   75      7.06937    0.00000
   76      7.36087    0.00000
   77      7.74707    0.00000
   78      8.01764    0.00000
   79      8.17173    0.00000
   80      8.37048    0.00000
   81      8.62537    0.00000
   82      8.75179    0.00000
   83      8.82539    0.00000
   84      9.01371    0.00000
   85      9.07474    0.00000
   86      9.24266    0.00000
   87      9.37390    0.00000
   88      9.47547    0.00000
   89      9.66735    0.00000
   90      9.75560    0.00000
   91      9.97653    0.00000
   92     10.03824    0.00000
   93     10.19092    0.00000
   94     10.31700    0.00000
   95     10.39390    0.00000
   96     10.46634    0.00000
   97     10.58724    0.00000


Forces in eV/Ang:
  0 C     0.04463   -0.27191    0.01571
  1 C     0.08603    0.00533    0.24152
  2 C     0.40051   -0.04411   -0.29122
  3 C    -0.04146   -0.21513   -0.03304
  4 C    -0.16660   -0.21261   -0.10318
  5 C    -0.39279    0.92522   -0.17942
  6 C    -0.01898   -0.10865   -0.02227
  7 C     0.21660   -0.10742    0.01133
  8 C     0.15798    0.08692   -0.11895
  9 C     0.15878   -0.19314   -0.08259
 10 C    -0.05624    0.26709   -0.20733
 11 C     0.10576   -0.21893   -0.02775
 12 C    -0.19842    0.30358   -0.26822
 13 C    -0.17624    0.03437    0.08501
 14 C     0.05259    0.43355    0.20030
 15 C    -0.29344    0.29769   -0.25147
 16 C     0.00836   -0.21449   -0.06018
 17 C     0.57865   -0.92230    0.35735
 18 C     0.18932   -0.05362    0.01249
 19 C     0.20589   -0.01665    0.20880
 20 C    -0.29043    0.19407    0.04722
 21 C     0.05657    0.01320    0.04608
 22 C    -0.55899   -0.01519    0.49209
 23 C     0.06539    0.05737   -0.06995

System changes: positions 

Initializing position-dependent things.

Density initialized from wave functions
           .--------------------------------------.  
          /|                                      |  
         / |                                      |  
        /  |                                      |  
       /   |                                      |  
      /    |                                      |  
     /     |                                      |  
    /      |                                      |  
   /       |                                      |  
  /        |           C  C   C                   |  
 *         |  C C   C      C   C                  |  
 |         | C       C  CC  C    C                |  
 |         .---C---C-C---------C------------------.  
 |        /    C     C        C                  /   
 |       /       C     C  C                     /    
 |      /                                      /     
 |     /                                      /      
 |    /                                      /       
 |   /                                      /        
 |  /                                      /         
 | /                                      /          
 |/                                      /           
 *--------------------------------------*            

Positions:
   0 C      5.683731    3.394870    5.308922
   1 C     10.777880    5.199728    5.684045
   2 C      9.842270    8.579851    6.058629
   3 C      8.247007    3.171816    5.163326
   4 C      9.597993    6.131864    5.770377
   5 C      8.227049    6.203211    5.561996
   6 C      7.026973    3.840426    5.340666
   7 C      9.501030    3.306822    5.321484
   8 C     10.392248    7.364946    5.995537
   9 C     11.483898    6.406304    5.932674
  10 C      7.047661    5.288235    5.489909
  11 C     10.704767    3.897945    5.294224
  12 C      5.462148    8.752153    5.798890
  13 C      3.501377    7.540044    5.705296
  14 C      7.616816    9.879087    5.779342
  15 C      6.363268    9.839734    5.893277
  16 C      5.842806    6.096073    5.508375
  17 C      7.669224    7.582766    5.530959
  18 C      4.474072    5.492448    5.464361
  19 C      6.242052    7.524165    5.558161
  20 C      4.050450    8.710466    5.856185
  21 C      4.634595    4.089099    5.360459
  22 C      8.497526    8.778634    5.712254
  23 C      3.282320    6.257497    5.539283

Unit cell:
           periodic     x           y           z      points  spacing
  1. axis:    yes   16.000000    0.000000    0.000000    80     0.2000
  2. axis:    yes    0.000000   16.000000    0.000000    80     0.2000
  3. axis:    yes    0.000000    0.000000   10.000000    48     0.2083

Effective grid spacing dv^(1/3) = 0.2027

                     log10-error:    total        iterations:
           time      wfs    density  energy       fermi  poisson
iter:   1  16:16:09          +inf  -183.863197    3      5      
iter:   2  16:16:09         -2.36  -183.866603    3      1      
iter:   3  16:16:10         -2.59  -183.867587    2      1      
iter:   4  16:16:10         -2.67  -183.868218    3      1      
iter:   5  16:16:11         -2.76  -183.868306    3      2      
iter:   6  16:16:12         -2.88  -183.864880    3      1      
iter:   7  16:16:12         -2.73  -183.866289    3      1      
iter:   8  16:16:13         -3.03  -183.866069    2      1      
iter:   9  16:16:13         -3.47  -183.863496    2      1      
iter:  10  16:16:14         -3.32  -183.864987    2      1      
iter:  11  16:16:14         -3.74  -183.864586    2      1      
iter:  12  16:16:15         -3.74  -183.863478    2      1      
iter:  13  16:16:16         -3.53  -183.864463    2      1      
iter:  14  16:16:16         -4.11  -183.864365    2      1      

Converged after 14 iterations.

Dipole moment: (0.361032, -0.071288, 0.031689) |e|*Ang

Energy contributions relative to reference atoms: (reference = -24663.074771)

Kinetic:       +118.535846
Potential:     -125.372504
External:        +0.000000
XC:            -179.891841
Entropy (-ST):   -0.268082
Local:           +2.998175
--------------------------
Free energy:   -183.998406
Extrapolated:  -183.864365

Fermi level: -4.53303

 Band  Eigenvalues  Occupancy
    0    -23.41346    2.00000
    1    -22.48329    2.00000
    2    -21.61681    2.00000
    3    -20.91724    2.00000
    4    -20.46264    2.00000
    5    -20.22833    2.00000
    6    -19.63961    2.00000
    7    -19.39379    2.00000
    8    -18.29072    2.00000
    9    -18.19258    2.00000
   10    -17.67893    2.00000
   11    -17.31469    2.00000
   12    -16.48668    2.00000
   13    -16.08230    2.00000
   14    -15.16870    2.00000
   15    -14.60848    2.00000
   16    -14.48106    2.00000
   17    -13.75110    2.00000
   18    -13.38639    2.00000
   19    -12.57401    2.00000
   20    -12.40245    2.00000
   21    -12.28577    2.00000
   22    -11.81807    2.00000
   23    -11.29081    2.00000
   24    -11.01917    2.00000
   25    -10.81512    2.00000
   26    -10.64173    2.00000
   27    -10.59705    2.00000
   28    -10.31179    2.00000
   29     -9.95367    2.00000
   30     -9.58632    2.00000
   31     -9.45623    2.00000
   32     -9.12432    2.00000
   33     -8.66580    2.00000
   34     -8.42897    2.00000
   35     -7.97835    2.00000
   36     -7.54445    2.00000
   37     -7.13989    2.00000
   38     -7.13059    2.00000
   39     -7.06764    2.00000
   40     -6.35839    2.00000
   41     -6.27264    2.00000
   42     -6.24298    2.00000
   43     -5.83225    2.00000
   44     -5.60595    1.99996
   45     -5.17316    1.99669
   46     -4.78851    1.85579
   47     -4.68958    1.65429
   48     -4.41505    0.47016
   49     -4.08821    0.02313
   50     -3.06536    0.00000
   51     -2.87183    0.00000
   52     -2.75662    0.00000
   53     -2.71624    0.00000
   54     -2.56408    0.00000
   55     -1.31493    0.00000
   56     -1.05248    0.00000
   57     -0.74875    0.00000
   58     -0.33006    0.00000
   59      0.33804    0.00000
   60      0.66510    0.00000
   61      2.04172    0.00000
   62      2.19371    0.00000
   63      3.02465    0.00000
   64      3.34554    0.00000
   65      3.69472    0.00000
   66      4.32221    0.00000
   67      4.61275    0.00000
   68      4.81111    0.00000
   69      5.18898    0.00000
   70      5.40741    0.00000
   71      5.70785    0.00000
   72      6.31714    0.00000
   73      6.60726    0.00000
   74      6.83874    0.00000
   75      7.05357    0.00000
   76      7.32306    0.00000
   77      7.73947    0.00000
   78      8.03176    0.00000
   79      8.17513    0.00000
   80      8.35781    0.00000
   81      8.61723    0.00000
   82      8.71632    0.00000
   83      8.78574    0.00000
   84      9.02780    0.00000
   85      9.05070    0.00000
   86      9.22691    0.00000
   87      9.35092    0.00000
   88      9.48158    0.00000
   89      9.67891    0.00000
   90      9.73243    0.00000
   91      9.95398    0.00000
   92     10.02917    0.00000
   93     10.17004    0.00000
   94     10.33183    0.00000
   95     10.38036    0.00000
   96     10.46615    0.00000
   97     10.60312    0.00000


Forces in eV/Ang:
  0 C    -0.10678   -0.10227    0.02838
  1 C    -0.05948   -0.02377    0.17431
  2 C     0.19109   -0.08738   -0.20397
  3 C     0.07763   -0.16558    0.00307
  4 C    -0.18856   -0.11026   -0.13052
  5 C    -0.34114    0.92416    0.01461
  6 C     0.01642    0.00328   -0.03844
  7 C     0.03640   -0.11886    0.00168
  8 C     0.11290    0.18476   -0.12747
  9 C     0.13903   -0.16846   -0.08140
 10 C    -0.06405    0.29558   -0.20995
 11 C     0.14006   -0.18411    0.00765
 12 C    -0.19172    0.13349   -0.27158
 13 C    -0.11101    0.02224    0.05623
 14 C    -0.14594    0.25910    0.29211
 15 C    -0.04162    0.24093   -0.22311
 16 C     0.03615   -0.14273   -0.11095
 17 C     0.59398   -0.93900    0.32405
 18 C     0.13939   -0.01902    0.00875
 19 C     0.24447   -0.06291    0.28713
 20 C    -0.24579    0.19408    0.01088
 21 C     0.21438   -0.13493    0.03523
 22 C    -0.36487    0.00674    0.23948
 23 C     0.07247    0.07290   -0.02975

System changes: positions 

Initializing position-dependent things.

Density initialized from wave functions
           .--------------------------------------.  
          /|                                      |  
         / |                                      |  
        /  |                                      |  
       /   |                                      |  
      /    |                                      |  
     /     |                                      |  
    /      |                                      |  
   /       |                                      |  
  /        |           C  C   C                   |  
 *         |  C C   C      C   C                  |  
 |         | C       C  CC  C    C                |  
 |         .---C---C-C---------C------------------.  
 |        /    C     C        C                  /   
 |       /       C     C  C                     /    
 |      /                                      /     
 |     /                                      /      
 |    /                                      /       
 |   /                                      /        
 |  /                                      /         
 | /                                      /          
 |/                                      /           
 *--------------------------------------*            

Positions:
   0 C      5.683877    3.384987    5.309484
   1 C     10.782625    5.195135    5.693353
   2 C      9.852202    8.578033    6.034028
   3 C      8.250395    3.164255    5.162748
   4 C      9.596932    6.123405    5.769418
   5 C      8.226985    6.207849    5.549409
   6 C      7.028142    3.834160    5.339984
   7 C      9.504203    3.302109    5.321717
   8 C     10.397294    7.362528    5.990664
   9 C     11.491670    6.400463    5.930092
  10 C      7.048533    5.287558    5.482402
  11 C     10.709609    3.892084    5.293905
  12 C      5.453208    8.764186    5.788998
  13 C      3.493620    7.542633    5.709267
  14 C      7.612990    9.895881    5.784023
  15 C      6.359359    9.852833    5.881169
  16 C      5.844144    6.094883    5.508535
  17 C      7.667281    7.583341    5.548019
  18 C      4.477627    5.490698    5.464946
  19 C      6.239763    7.528907    5.560702
  20 C      4.040463    8.715760    5.857699
  21 C      4.640267    4.087546    5.362220
  22 C      8.487081    8.781363    5.750770
  23 C      3.287453    6.259635    5.535569

Unit cell:
           periodic     x           y           z      points  spacing
  1. axis:    yes   16.000000    0.000000    0.000000    80     0.2000
  2. axis:    yes    0.000000   16.000000    0.000000    80     0.2000
  3. axis:    yes    0.000000    0.000000   10.000000    48     0.2083

Effective grid spacing dv^(1/3) = 0.2027

                     log10-error:    total        iterations:
           time      wfs    density  energy       fermi  poisson
iter:   1  16:16:18          +inf  -183.902121    3      5      
iter:   2  16:16:19         -2.30  -183.905352    3      1      
iter:   3  16:16:20         -2.57  -183.906248    2      1      
iter:   4  16:16:20         -2.65  -183.901901    2      2      
iter:   5  16:16:21         -2.72  -183.911968    3      2      
iter:   6  16:16:21         -2.64  -183.904164    2      1      
iter:   7  16:16:22         -2.81  -183.903732    2      1      
iter:   8  16:16:23         -2.75  -183.904958    3      1      
iter:   9  16:16:23         -3.29  -183.903112    2      1      
iter:  10  16:16:24         -3.60  -183.902686    2      1      
iter:  11  16:16:24         -3.57  -183.904386    2      1      
iter:  12  16:16:25         -3.41  -183.902734    2      1      
iter:  13  16:16:26         -4.03  -183.902795    2      1      

Converged after 13 iterations.

Dipole moment: (0.334778, -0.067000, 0.040968) |e|*Ang

Energy contributions relative to reference atoms: (reference = -24663.074771)

Kinetic:       +115.309800
Potential:     -122.904060
External:        +0.000000
XC:            -179.144666
Entropy (-ST):   -0.284294
Local:           +2.978277
--------------------------
Free energy:   -184.044942
Extrapolated:  -183.902795

Fermi level: -4.54007

 Band  Eigenvalues  Occupancy
    0    -23.34902    2.00000
    1    -22.44933    2.00000
    2    -21.58718    2.00000
    3    -20.89568    2.00000
    4    -20.44474    2.00000
    5    -20.20444    2.00000
    6    -19.61579    2.00000
    7    -19.38155    2.00000
    8    -18.27746    2.00000
    9    -18.18114    2.00000
   10    -17.66017    2.00000
   11    -17.31827    2.00000
   12    -16.47293    2.00000
   13    -16.08432    2.00000
   14    -15.15055    2.00000
   15    -14.59817    2.00000
   16    -14.45965    2.00000
   17    -13.73507    2.00000
   18    -13.38151    2.00000
   19    -12.55381    2.00000
   20    -12.37982    2.00000
   21    -12.28259    2.00000
   22    -11.80576    2.00000
   23    -11.28050    2.00000
   24    -11.01640    2.00000
   25    -10.78174    2.00000
   26    -10.62664    2.00000
   27    -10.58748    2.00000
   28    -10.29776    2.00000
   29     -9.93107    2.00000
   30     -9.56391    2.00000
   31     -9.44200    2.00000
   32     -9.12950    2.00000
   33     -8.65970    2.00000
   34     -8.42360    2.00000
   35     -7.96392    2.00000
   36     -7.53732    2.00000
   37     -7.14804    2.00000
   38     -7.12333    2.00000
   39     -7.06995    2.00000
   40     -6.37218    2.00000
   41     -6.28432    2.00000
   42     -6.25450    2.00000
   43     -5.83518    2.00000
   44     -5.61394    1.99996
   45     -5.17450    1.99649
   46     -4.77052    1.81851
   47     -4.69345    1.64514
   48     -4.43430    0.51552
   49     -4.10062    0.02439
   50     -3.07007    0.00000
   51     -2.87392    0.00000
   52     -2.76137    0.00000
   53     -2.73788    0.00000
   54     -2.55668    0.00000
   55     -1.35114    0.00000
   56     -1.05923    0.00000
   57     -0.73913    0.00000
   58     -0.32237    0.00000
   59      0.33632    0.00000
   60      0.65896    0.00000
   61      2.03472    0.00000
   62      2.20115    0.00000
   63      2.96003    0.00000
   64      3.31530    0.00000
   65      3.67251    0.00000
   66      4.33580    0.00000
   67      4.60874    0.00000
   68      4.77056    0.00000
   69      5.16525    0.00000
   70      5.34831    0.00000
   71      5.65990    0.00000
   72      6.27192    0.00000
   73      6.58870    0.00000
   74      6.80848    0.00000
   75      7.00386    0.00000
   76      7.26503    0.00000
   77      7.70904    0.00000
   78      8.04297    0.00000
   79      8.13693    0.00000
   80      8.33954    0.00000
   81      8.58470    0.00000
   82      8.67842    0.00000
   83      8.74928    0.00000
   84      9.02000    0.00000
   85      9.04598    0.00000
   86      9.20477    0.00000
   87      9.33586    0.00000
   88      9.48443    0.00000
   89      9.68455    0.00000
   90      9.70412    0.00000
   91      9.92604    0.00000
   92     10.01619    0.00000
   93     10.14368    0.00000
   94     10.32719    0.00000
   95     10.37482    0.00000
   96     10.46242    0.00000
   97     10.60624    0.00000


Forces in eV/Ang:
  0 C    -0.00771   -0.03948    0.03201
  1 C    -0.22509   -0.00523    0.08360
  2 C    -0.09031   -0.05805   -0.13778
  3 C    -0.05899   -0.11590    0.03701
  4 C    -0.07537   -0.00058   -0.12353
  5 C    -0.28910    0.74228    0.18155
  6 C     0.06423    0.05809   -0.07108
  7 C     0.14844   -0.07061    0.00412
  8 C     0.11443    0.10577   -0.15796
  9 C     0.06441   -0.11124   -0.08493
 10 C    -0.02864    0.24478   -0.20085
 11 C     0.09733   -0.21408    0.05031
 12 C    -0.05025    0.04561   -0.20371
 13 C    -0.04815   -0.00221    0.04772
 14 C     0.14147    0.01657    0.33254
 15 C    -0.34536    0.08550   -0.21919
 16 C     0.03215   -0.05677   -0.13939
 17 C     0.49329   -0.69874    0.29165
 18 C     0.09463   -0.01507   -0.00490
 19 C     0.17618   -0.05915    0.31815
 20 C    -0.14002    0.18386   -0.04744
 21 C     0.16680   -0.10150    0.03679
 22 C    -0.17092    0.04800   -0.00962
 23 C     0.08707    0.07504    0.01172

System changes: positions 

Initializing position-dependent things.

Density initialized from wave functions
           .--------------------------------------.  
          /|                                      |  
         / |                                      |  
        /  |                                      |  
       /   |                                      |  
      /    |                                      |  
     /     |                                      |  
    /      |                                      |  
   /       |                                      |  
  /        |           C  C   C                   |  
 *         |  C C   C      C   C                  |  
 |         | C       C  CC  C    C                |  
 |         .---C---C-C---------C------------------.  
 |        /    C     C        C                  /   
 |       /       C     C  C                     /    
 |      /                                      /     
 |     /                                      /      
 |    /                                      /       
 |   /                                      /        
 |  /                                      /         
 | /                                      /          
 |/                                      /           
 *--------------------------------------*            

Positions:
   0 C      5.684506    3.374683    5.310651
   1 C     10.781808    5.190416    5.703587
   2 C      9.857657    8.576064    6.006210
   3 C      8.252005    3.154840    5.163100
   4 C      9.595842    6.115629    5.766473
   5 C      8.224746    6.218089    5.541684
   6 C      7.031144    3.829384    5.337815
   7 C      9.510632    3.296416    5.322044
   8 C     10.404709    7.360275    5.982591
   9 C     11.500291    6.393063    5.925921
[...]
   12    -16.47273    2.00000
   13    -16.10513    2.00000
   14    -15.15165    2.00000
   15    -14.63586    2.00000
   16    -14.44171    2.00000
   17    -13.77735    2.00000
   18    -13.39433    2.00000
   19    -12.57385    2.00000
   20    -12.37855    2.00000
   21    -12.26325    2.00000
   22    -11.79257    2.00000
   23    -11.31095    2.00000
   24    -11.03242    2.00000
   25    -10.73297    2.00000
   26    -10.68060    2.00000
   27    -10.62702    2.00000
   28    -10.31926    2.00000
   29     -9.94964    2.00000
   30     -9.56224    2.00000
   31     -9.42638    2.00000
   32     -9.19217    2.00000
   33     -8.69578    2.00000
   34     -8.42398    2.00000
   35     -7.99416    2.00000
   36     -7.48478    2.00000
   37     -7.18040    2.00000
   38     -7.12366    2.00000
   39     -7.08645    2.00000
   40     -6.37631    2.00000
   41     -6.29749    2.00000
   42     -6.28821    2.00000
   43     -5.82517    1.99999
   44     -5.61170    1.99994
   45     -5.16944    1.99476
   46     -4.74407    1.68804
   47     -4.70392    1.56727
   48     -4.52232    0.74149
   49     -4.02964    0.00851
   50     -3.05721    0.00000
   51     -2.90974    0.00000
   52     -2.77275    0.00000
   53     -2.72464    0.00000
   54     -2.58957    0.00000
   55     -1.38718    0.00000
   56     -1.05630    0.00000
   57     -0.74250    0.00000
   58     -0.29832    0.00000
   59      0.38256    0.00000
   60      0.78720    0.00000
   61      2.12285    0.00000
   62      2.30928    0.00000
   63      2.88640    0.00000
   64      3.30168    0.00000
   65      3.63348    0.00000
   66      4.38397    0.00000
   67      4.60995    0.00000
   68      4.93937    0.00000
   69      5.16255    0.00000
   70      5.30779    0.00000
   71      5.76099    0.00000
   72      6.16879    0.00000
   73      6.64248    0.00000
   74      6.85374    0.00000
   75      6.93740    0.00000
   76      7.21562    0.00000
   77      7.62343    0.00000
   78      7.88870    0.00000
   79      8.16146    0.00000
   80      8.37465    0.00000
   81      8.50929    0.00000
   82      8.57921    0.00000
   83      8.75939    0.00000
   84      9.00699    0.00000
   85      9.02341    0.00000
   86      9.19470    0.00000
   87      9.34015    0.00000
   88      9.47265    0.00000
   89      9.66725    0.00000
   90      9.69392    0.00000
   91      9.92227    0.00000
   92     10.02612    0.00000
   93     10.12130    0.00000
   94     10.29469    0.00000
   95     10.37528    0.00000
   96     10.40563    0.00000
   97     10.63015    0.00000


Forces in eV/Ang:
  0 C    -0.07404   -0.05761   -0.06933
  1 C    -0.08918    0.01244   -0.00983
  2 C     0.02108    0.00328    0.04339
  3 C    -0.01010   -0.02412    0.03552
  4 C    -0.01546    0.08476   -0.08527
  5 C     0.04075   -0.00424   -0.06364
  6 C    -0.01171    0.00242    0.00970
  7 C     0.03718    0.00707    0.02560
  8 C     0.03886    0.00782   -0.02664
  9 C    -0.02398    0.01834   -0.00353
 10 C    -0.01455    0.03852    0.04145
 11 C     0.00455    0.01607    0.00268
 12 C     0.03511   -0.03690   -0.11510
 13 C    -0.02039    0.09815   -0.06129
 14 C     0.01832    0.01420    0.01007
 15 C    -0.09548   -0.03420    0.09512
 16 C    -0.01926    0.02663    0.05253
 17 C     0.02640   -0.00675    0.13789
 18 C    -0.05376   -0.02492    0.07386
 19 C     0.03914    0.01160    0.03883
 20 C     0.04929   -0.00603   -0.00921
 21 C    -0.00153   -0.04876   -0.01750
 22 C    -0.01758   -0.04192   -0.12367
 23 C    -0.06928    0.00265   -0.00679

System changes: positions 

Initializing position-dependent things.

Density initialized from wave functions
           .--------------------------------------.  
          /|                                      |  
         / |                                      |  
        /  |                                      |  
       /   |                                      |  
      /    |                                      |  
     /     |                                      |  
    /      |                                      |  
   /       |                                      |  
  /        |           C  CC  C                   |  
 *         |  C C   C   C      C                  |  
 |         | C       C   C  C    C                |  
 |         .---C---C--C-------C-------------------.  
 |        /    C     C        C                  /   
 |       /       C     C  C                     /    
 |      /                                      /     
 |     /                                      /      
 |    /                                      /       
 |   /                                      /        
 |  /                                      /         
 | /                                      /          
 |/                                      /           
 *--------------------------------------*            

Positions:
   0 C      5.721234    3.395277    5.309055
   1 C     10.755536    5.170809    5.655805
   2 C      9.849509    8.568108    5.986936
   3 C      8.266693    3.141274    5.169256
   4 C      9.595276    6.119385    5.706704
   5 C      8.218834    6.239785    5.606238
   6 C      7.062089    3.851746    5.309735
   7 C      9.522285    3.269440    5.324915
   8 C     10.411747    7.367223    5.894747
   9 C     11.478069    6.366462    5.900487
  10 C      7.065115    5.308132    5.450702
  11 C     10.742439    3.826389    5.369223
  12 C      5.422759    8.783278    5.748359
  13 C      3.490157    7.555489    5.705019
  14 C      7.587509    9.900642    5.882650
  15 C      6.327798    9.874566    5.821035
  16 C      5.857098    6.100893    5.489873
  17 C      7.660029    7.584763    5.667817
  18 C      4.503803    5.485132    5.458961
  19 C      6.232556    7.535761    5.621948
  20 C      3.998250    8.760933    5.777650
  21 C      4.668705    4.081798    5.363897
  22 C      8.464836    8.791418    5.841970
  23 C      3.329121    6.267288    5.561104

Unit cell:
           periodic     x           y           z      points  spacing
  1. axis:    yes   16.000000    0.000000    0.000000    80     0.2000
  2. axis:    yes    0.000000   16.000000    0.000000    80     0.2000
  3. axis:    yes    0.000000    0.000000   10.000000    48     0.2083

Effective grid spacing dv^(1/3) = 0.2027

                     log10-error:    total        iterations:
           time      wfs    density  energy       fermi  poisson
iter:   1  16:18:00          +inf  -184.031361    2      4      
iter:   2  16:18:00         -2.44  -184.015411    3      1      
iter:   3  16:18:01         -3.10  -184.013479    2      1      
iter:   4  16:18:01         -3.20  -184.014303    2      1      
iter:   5  16:18:02         -3.24  -184.012287    2      1      
iter:   6  16:18:03         -3.06  -184.012417    2      1      
iter:   7  16:18:03         -3.40  -184.014342    2      1      
iter:   8  16:18:04         -3.22  -184.013086    2      1      
iter:   9  16:18:04         -3.78  -184.013176    2      1      
iter:  10  16:18:05         -3.97  -184.013573    2      1      
iter:  11  16:18:06         -3.84  -184.012803    2      1      
iter:  12  16:18:06         -3.43  -184.013667    2      1      
iter:  13  16:18:07         -3.89  -184.013579    2      1      
iter:  14  16:18:07         -4.30  -184.013303    2      1      

Converged after 14 iterations.

Dipole moment: (0.294277, -0.023604, 0.034733) |e|*Ang

Energy contributions relative to reference atoms: (reference = -24663.074771)

Kinetic:       +115.592098
Potential:     -123.152378
External:        +0.000000
XC:            -179.296149
Entropy (-ST):   -0.331698
Local:           +3.008975
--------------------------
Free energy:   -184.179152
Extrapolated:  -184.013303

Fermi level: -4.57592

 Band  Eigenvalues  Occupancy
    0    -23.38364    2.00000
    1    -22.49034    2.00000
    2    -21.59129    2.00000
    3    -20.91881    2.00000
    4    -20.42589    2.00000
    5    -20.23962    2.00000
    6    -19.61812    2.00000
    7    -19.38832    2.00000
    8    -18.27512    2.00000
    9    -18.18166    2.00000
   10    -17.67835    2.00000
   11    -17.34747    2.00000
   12    -16.47115    2.00000
   13    -16.10525    2.00000
   14    -15.15397    2.00000
   15    -14.63734    2.00000
   16    -14.44306    2.00000
   17    -13.78008    2.00000
   18    -13.39426    2.00000
   19    -12.57505    2.00000
   20    -12.37528    2.00000
   21    -12.26127    2.00000
   22    -11.79216    2.00000
   23    -11.31382    2.00000
   24    -11.03132    2.00000
   25    -10.73848    2.00000
   26    -10.68125    2.00000
   27    -10.62645    2.00000
   28    -10.32568    2.00000
   29     -9.95145    2.00000
   30     -9.56292    2.00000
   31     -9.42646    2.00000
   32     -9.19544    2.00000
   33     -8.69621    2.00000
   34     -8.42402    2.00000
   35     -7.99639    2.00000
   36     -7.48269    2.00000
   37     -7.17867    2.00000
   38     -7.12512    2.00000
   39     -7.08679    2.00000
   40     -6.37469    2.00000
   41     -6.30033    2.00000
   42     -6.28889    2.00000
   43     -5.82673    1.99999
   44     -5.61176    1.99994
   45     -5.16997    1.99475
   46     -4.74586    1.69092
   47     -4.70417    1.56575
   48     -4.52276    0.74029
   49     -4.02864    0.00836
   50     -3.05683    0.00000
   51     -2.90853    0.00000
   52     -2.77328    0.00000
   53     -2.72679    0.00000
   54     -2.59139    0.00000
   55     -1.38899    0.00000
   56     -1.05791    0.00000
   57     -0.74289    0.00000
   58     -0.29763    0.00000
   59      0.38291    0.00000
   60      0.78976    0.00000
   61      2.12329    0.00000
   62      2.31106    0.00000
   63      2.89977    0.00000
   64      3.30531    0.00000
   65      3.63201    0.00000
   66      4.38658    0.00000
   67      4.61532    0.00000
   68      4.94576    0.00000
   69      5.16593    0.00000
   70      5.31393    0.00000
   71      5.76452    0.00000
   72      6.16988    0.00000
   73      6.63878    0.00000
   74      6.85212    0.00000
   75      6.93875    0.00000
   76      7.21528    0.00000
   77      7.61328    0.00000
   78      7.89702    0.00000
   79      8.16081    0.00000
   80      8.37874    0.00000
   81      8.51144    0.00000
   82      8.58189    0.00000
   83      8.76083    0.00000
   84      9.00714    0.00000
   85      9.02104    0.00000
   86      9.19626    0.00000
   87      9.34325    0.00000
   88      9.47213    0.00000
   89      9.66997    0.00000
   90      9.69329    0.00000
   91      9.92351    0.00000
   92     10.02640    0.00000
   93     10.12317    0.00000
   94     10.29552    0.00000
   95     10.37337    0.00000
   96     10.40491    0.00000
   97     10.62912    0.00000


Forces in eV/Ang:
  0 C    -0.03047   -0.06636   -0.06457
  1 C    -0.05311    0.04029    0.01091
  2 C     0.04018    0.01983    0.03348
  3 C     0.00187   -0.02150    0.03726
  4 C     0.02643    0.05120   -0.08470
  5 C     0.00156   -0.01827   -0.08546
  6 C    -0.02534   -0.01180    0.01131
  7 C     0.00287    0.00691    0.02735
  8 C     0.05043    0.01079   -0.02260
  9 C    -0.02074   -0.01368   -0.01127
 10 C    -0.00756   -0.00219    0.02738
 11 C     0.00858    0.02376   -0.01053
 12 C     0.02305   -0.01564   -0.09664
 13 C    -0.03561   -0.00124   -0.07374
 14 C    -0.00597    0.02142    0.00267
 15 C    -0.03727   -0.02784    0.07961
 16 C    -0.01840    0.01359    0.05818
 17 C    -0.01365    0.01428    0.12106
 18 C    -0.04730   -0.00506    0.06559
 19 C     0.00726    0.00312    0.03471
 20 C     0.08002   -0.02721   -0.00525
 21 C    -0.01557   -0.02004   -0.00924
 22 C    -0.02347    0.00516   -0.07801
 23 C    -0.04578    0.06576   -0.00374

System changes: positions 

Initializing position-dependent things.

Density initialized from wave functions
           .--------------------------------------.  
          /|                                      |  
         / |                                      |  
        /  |                                      |  
       /   |                                      |  
      /    |                                      |  
     /     |                                      |  
    /      |                                      |  
   /       |                                      |  
  /        |           C  C   C                   |  
 *         |  C C   C   C  C   C                  |  
 |         | C       C   C  C    C                |  
 |         .---C---C--C-------C-------------------.  
 |        /    C     C        C                  /   
 |       /       C     C  C                     /    
 |      /                                      /     
 |     /                                      /      
 |    /                                      /       
 |   /                                      /        
 |  /                                      /         
 | /                                      /          
 |/                                      /           
 *--------------------------------------*            

Positions:
   0 C      5.719239    3.394375    5.304787
   1 C     10.751869    5.173286    5.652046
   2 C      9.849292    8.569908    5.993873
   3 C      8.266151    3.141546    5.170715
   4 C      9.595986    6.124134    5.700447
   5 C      8.219307    6.239452    5.606659
   6 C      7.060795    3.853173    5.310669
   7 C      9.522184    3.269672    5.326738
   8 C     10.411840    7.369207    5.893011
   9 C     11.475314    6.368178    5.900637
  10 C      7.063964    5.309287    5.454852
  11 C     10.742669    3.827603    5.370791
  12 C      5.425615    8.779843    5.744830
  13 C      3.489799    7.556506    5.699730
  14 C      7.587408    9.898295    5.882006
  15 C      6.327353    9.871258    5.829177
  16 C      5.855777    6.101949    5.493360
  17 C      7.662455    7.582926    5.670186
  18 C      4.500765    5.484807    5.462808
  19 C      6.235542    7.534795    5.623433
  20 C      4.002479    8.759618    5.774928
  21 C      4.666397    4.080688    5.362274
  22 C      8.465383    8.789804    5.831552
  23 C      3.325378    6.268795    5.562309

Unit cell:
           periodic     x           y           z      points  spacing
  1. axis:    yes   16.000000    0.000000    0.000000    80     0.2000
  2. axis:    yes    0.000000   16.000000    0.000000    80     0.2000
  3. axis:    yes    0.000000    0.000000   10.000000    48     0.2083

Effective grid spacing dv^(1/3) = 0.2027

                     log10-error:    total        iterations:
           time      wfs    density  energy       fermi  poisson
iter:   1  16:18:09          +inf  -184.024404    2      4      
iter:   2  16:18:10         -2.66  -184.019611    2      1      
iter:   3  16:18:11         -2.88  -184.018261    2      1      
iter:   4  16:18:11         -3.01  -184.017734    2      1      
iter:   5  16:18:12         -3.16  -184.015693    2      1      
iter:   6  16:18:12         -3.10  -184.021002    2      1      
iter:   7  16:18:13         -2.81  -184.020777    2      1      
iter:   8  16:18:14         -2.91  -184.017463    2      1      
iter:   9  16:18:14         -3.68  -184.017255    2      1      
iter:  10  16:18:15         -3.92  -184.017560    2      1      
iter:  11  16:18:15         -3.73  -184.016843    2      1      
iter:  12  16:18:16         -3.54  -184.017031    2      1      
iter:  13  16:18:17         -3.84  -184.017420    2      1      
iter:  14  16:18:17         -4.23  -184.017090    2      1      

Converged after 14 iterations.

Dipole moment: (0.295077, -0.021862, 0.031416) |e|*Ang

Energy contributions relative to reference atoms: (reference = -24663.074771)

Kinetic:       +116.004807
Potential:     -123.471747
External:        +0.000000
XC:            -179.394452
Entropy (-ST):   -0.330637
Local:           +3.009620
--------------------------
Free energy:   -184.182409
Extrapolated:  -184.017090

Fermi level: -4.57532

 Band  Eigenvalues  Occupancy
    0    -23.40920    2.00000
    1    -22.50130    2.00000
    2    -21.59005    2.00000
    3    -20.92535    2.00000
    4    -20.42346    2.00000
    5    -20.24257    2.00000
    6    -19.62240    2.00000
    7    -19.38373    2.00000
    8    -18.27976    2.00000
    9    -18.18563    2.00000
   10    -17.67744    2.00000
   11    -17.35083    2.00000
   12    -16.46797    2.00000
   13    -16.10718    2.00000
   14    -15.15799    2.00000
   15    -14.63919    2.00000
   16    -14.44329    2.00000
   17    -13.78318    2.00000
   18    -13.39697    2.00000
   19    -12.57625    2.00000
   20    -12.36801    2.00000
   21    -12.25690    2.00000
   22    -11.79192    2.00000
   23    -11.32001    2.00000
   24    -11.03072    2.00000
   25    -10.74935    2.00000
   26    -10.68238    2.00000
   27    -10.62505    2.00000
   28    -10.33775    2.00000
   29     -9.95754    2.00000
   30     -9.56371    2.00000
   31     -9.42488    2.00000
   32     -9.20222    2.00000
   33     -8.70022    2.00000
   34     -8.42191    2.00000
   35     -7.99749    2.00000
   36     -7.47979    2.00000
   37     -7.17874    2.00000
   38     -7.12907    2.00000
   39     -7.08565    2.00000
   40     -6.37226    2.00000
   41     -6.30516    2.00000
   42     -6.28905    2.00000
   43     -5.82980    1.99999
   44     -5.61352    1.99994
   45     -5.16801    1.99468
   46     -4.74886    1.70022
   47     -4.70209    1.56071
   48     -4.52122    0.73593
   49     -4.02995    0.00852
   50     -3.05582    0.00000
   51     -2.90965    0.00000
   52     -2.78049    0.00000
   53     -2.72952    0.00000
   54     -2.59384    0.00000
   55     -1.38678    0.00000
   56     -1.06228    0.00000
   57     -0.74375    0.00000
   58     -0.29680    0.00000
   59      0.38166    0.00000
   60      0.79047    0.00000
   61      2.12889    0.00000
   62      2.30858    0.00000
   63      2.93227    0.00000
   64      3.31706    0.00000
   65      3.63792    0.00000
   66      4.39146    0.00000
   67      4.62422    0.00000
   68      4.95119    0.00000
   69      5.16530    0.00000
   70      5.32416    0.00000
   71      5.76586    0.00000
   72      6.18167    0.00000
   73      6.63458    0.00000
   74      6.85020    0.00000
   75      6.94789    0.00000
   76      7.21383    0.00000
   77      7.60777    0.00000
   78      7.91967    0.00000
   79      8.15431    0.00000
   80      8.37799    0.00000
   81      8.51573    0.00000
   82      8.58610    0.00000
   83      8.76691    0.00000
   84      9.00700    0.00000
   85      9.01689    0.00000
   86      9.19716    0.00000
   87      9.35153    0.00000
   88      9.47062    0.00000
   89      9.67286    0.00000
   90      9.69374    0.00000
   91      9.92718    0.00000
   92     10.02570    0.00000
   93     10.12670    0.00000
   94     10.29438    0.00000
   95     10.37076    0.00000
   96     10.40573    0.00000
   97     10.62628    0.00000


Forces in eV/Ang:
  0 C     0.00573   -0.02806   -0.04901
  1 C     0.03777   -0.00358    0.00910
  2 C     0.04279    0.01900   -0.00343
  3 C     0.01712    0.00342    0.03779
  4 C     0.00228   -0.00200   -0.07274
  5 C    -0.00846   -0.02231   -0.07209
  6 C    -0.03366   -0.04585    0.00752
  7 C    -0.03611    0.02058    0.02980
  8 C     0.03408    0.06674   -0.01752
  9 C    -0.00002   -0.04855   -0.01890
 10 C    -0.01235   -0.06386    0.00646
 11 C    -0.03754    0.04507   -0.01823
 12 C    -0.00329    0.02588   -0.02901
 13 C    -0.01639    0.04133   -0.06615
 14 C    -0.01691    0.02813   -0.01130
 15 C     0.03056    0.01261    0.03080
 16 C    -0.03079   -0.03301    0.06047
 17 C    -0.06423    0.03005    0.04984
 18 C    -0.02316    0.00229    0.03060
 19 C    -0.06028   -0.01752    0.02873
 20 C     0.00608   -0.01475   -0.01266
 21 C    -0.01005    0.03686    0.01025
 22 C     0.01417    0.07004    0.06955
 23 C    -0.02871   -0.04351   -0.00979

