
  ___ ___ ___ _ _ _  
 |   |   |_  | | | | 
 | | | | | . | | | | 
 |__ |  _|___|_____|  1.3.0b1
 |___|_|             

User:   esb@s65n11.grendel.cscaa.dk
Date:   Thu Nov  9 09:52:30 2017
Arch:   x86_64
Pid:    75222
Python: 2.7.13
gpaw:   /home/esb/DFT/gpaw_git/gpaw
_gpaw:  /home/esb/DFT/gpaw_git/build/bin.linux-x86_64-2.7/gpaw-python
ase:    /home/esb/DFT/ase_git/ase (version 3.15.0b1)
numpy:  /comm/swstack/core/python/2.7.13/lib/python2.7/site-packages/numpy (version 1.13.3)
scipy:  /comm/swstack/core/python/2.7.13/lib/python2.7/site-packages/scipy (version 0.19.1)
units:  Angstrom and eV
cores:  16
Extra parameters: {'blacs': True}

Input parameters:
  basis: dzp
  gpts: [80 80 48]
  kpts: [1 1 1]
  maxiter: 99
  mixer: {backend: pulay,
          beta: 0.05,
          method: separate,
          nmaxold: 5,
          weight: 75}
  mode: lcao
  nbands: -50
  occupations: {name: fermi-dirac,
                width: 0.1}
  poissonsolver: {eps: 1e-07,
                  name: fd,
                  nn: 3,
                  relax: GS}
  xc: PBE

System changes: positions, numbers, cell, pbc, initial_charges, initial_magmoms 

Initialize ...

C-setup:
  name: Carbon
  id: 4aa54d4b901d75f77cc0ea3eec22967b
  Z: 6
  valence: 4
  core: 2
  charge: 0.0
  file: /home/esb/DFT/gpaw-setups-0.8.7929/C.PBE.gz
  cutoffs: 0.64(comp), 1.14(filt), 1.14(core), lmax=2
  valence states:
                energy  radius
    2s(2.00)   -13.751   0.635
    2p(2.00)    -5.284   0.635
    *s          13.461   0.635
    *p          21.927   0.635
    *d           0.000   0.635

  LCAO basis set for C:
    Name: dzp
    File: /home/esb/DFT/gpaw-setups-0.8.7929/C.dzp.basis.gz
    Number of radial functions: 5
    Number of spherical harmonics: 13
      l=0, rc=5.5469 Bohr: 2s-sz confined orbital
      l=1, rc=6.6719 Bohr: 2p-sz confined orbital
      l=0, rc=3.0312 Bohr: 2s-dz split-valence wave
      l=1, rc=3.7500 Bohr: 2p-dz split-valence wave
      l=2, rc=6.6719 Bohr: d-type Gaussian polarization

Reference energy: -24663.074771

Spin-paired calculation

Occupation numbers:
  Fermi-Dirac: width=0.1000 eV

Convergence criteria:
  Maximum total energy change: 0.0005 eV / electron
  Maximum integral of absolute density change: 0.0001 electrons
  Maximum integral of absolute eigenstate change: 4e-08 eV^2
  Maximum number of iterations: 99

Symmetries present (total): 1

  ( 1  0  0)
  ( 0  1  0)
  ( 0  0  1)

1 k-point (Gamma)
1 k-point in the irreducible part of the Brillouin zone
       k-points in crystal coordinates                weights
   0:     0.00000000    0.00000000    0.00000000          1/1

Wave functions: LCAO
  Diagonalizer: Serial LAPACK
  Atomic Correction: dense with blas
  Datatype: float
  Eigensolver: None 

LCAO using direct dense diagonalizer 

Densities:
  Coarse grid: 80*80*48 grid
  Fine grid: 160*160*96 grid
  Total Charge: 0.000000 

Density mixing:
  Method: separate
  Backend: pulay
  Linear mixing parameter: 0.05
  Mixing with 5 old densities
  Damping of long wave oscillations: 75 

Hamiltonian:
  XC and Coulomb potentials evaluated on a 160*160*96 grid
  Using the PBE Exchange-Correlation functional
  Interpolation: tri-quintic (5. degree polynomial)
  Poisson solver: Gauss-Seidel solver with 6 multi-grid levels
    Coarsest grid: 5 x 5 x 3 points
    Stencil: 6*3+1=19 point O(h^6) finite-difference Laplacian
    Max iterations: 1000
    Tolerance: 1.000000e-07 

Memory estimate:
  Process memory now: 77.53 MiB
  Calculator: 15.59 MiB
    Density: 6.13 MiB
      Arrays: 3.81 MiB
      Localized functions: 0.86 MiB
      Mixer: 1.46 MiB
    Hamiltonian: 5.40 MiB
      Arrays: 2.49 MiB
      XC: 0.00 MiB
      Poisson: 2.85 MiB
      vbar: 0.07 MiB
    Wavefunctions: 4.05 MiB
      C [qnM]: 0.23 MiB
      S, T [2 x qmm]: 1.49 MiB
      P [aqMi]: 0.01 MiB
      TCI: 0.00 MiB
      BasisFunctions: 2.33 MiB
      Eigensolver: 0.00 MiB

Total number of cores used: 16
Domain decomposition: 2 x 4 x 2

Number of atoms: 24
Number of atomic orbitals: 312
Number of bands in calculation: 98
Bands to converge: occupied states only
Number of valence electrons: 96

... initialized

Initializing position-dependent things.

Density initialized from atomic densities
           .--------------------------------------.  
          /|                                      |  
         / |                                      |  
        /  |                                      |  
       /   |                                      |  
      /    |                                      |  
     /     |                                      |  
    /      |                                      |  
   /       |                                      |  
  /        |    C            C  C                 |  
 *         |  C     C  C  C   C   C               |  
 |         | C       C    C   CC C                |  
 |         .---C---C-C---C--C---------------------.  
 |        /          C    C                      /   
 |       /             C                        /    
 |      /                                      /     
 |     /                                      /      
 |    /                                      /       
 |   /                                      /        
 |  /                                      /         
 | /                                      /          
 |/                                      /           
 *--------------------------------------*            

Positions:
   0 C      6.109356   10.724318    4.587181
   1 C      5.002496   10.138557    4.764403
   2 C      8.623441   11.367017    4.767283
   3 C      7.509525   10.538073    4.552001
   4 C      8.011976    9.163822    4.624036
   5 C      9.858653   10.421551    5.070145
   6 C      9.422307    9.084404    4.993991
   7 C     11.081623    5.208559    6.317269
   8 C     11.612298    6.409360    6.202597
   9 C      9.271008    6.576419    5.323905
  10 C     11.419870    7.644342    5.809301
  11 C     10.081878    7.822915    5.339924
  12 C      9.367469    4.132462    5.116581
  13 C      9.519101    5.543678    5.209460
  14 C      3.478645    7.461403    5.782887
  15 C      5.816388    6.119330    5.454633
  16 C      8.349364    3.398632    5.171257
  17 C      4.483426    5.475644    5.523497
  18 C      8.198879    6.195252    5.294327
  19 C      6.237274    7.531132    5.555899
  20 C      7.023028    3.875364    5.245263
  21 C      3.962109    8.671975    5.906811
  22 C      3.243281    6.174632    5.664165
  23 C      7.020796    5.340016    5.298345

Unit cell:
           periodic     x           y           z      points  spacing
  1. axis:    yes   16.000000    0.000000    0.000000    80     0.2000
  2. axis:    yes    0.000000   16.000000    0.000000    80     0.2000
  3. axis:    yes    0.000000    0.000000   10.000000    48     0.2083

Effective grid spacing dv^(1/3) = 0.2027

                     log10-error:    total        iterations:
           time      wfs    density  energy       fermi  poisson
iter:   1  09:52:31          +inf  -161.541915    3      6      
iter:   2  09:52:32         -0.88  -160.286324    3      3      
iter:   3  09:52:32         -0.93  -158.518684    4      3      
iter:   4  09:52:33         -1.04  -157.373675    34     3      
iter:   5  09:52:34         -1.17  -156.941754    30     3      
iter:   6  09:52:34         -1.38  -156.914152    4      3      
iter:   7  09:52:35         -1.51  -156.813025    3      3      
iter:   8  09:52:35         -1.65  -156.784332    3      3      
iter:   9  09:52:36         -1.79  -156.778954    3      3      
iter:  10  09:52:36         -1.92  -156.767495    3      2      
iter:  11  09:52:37         -2.03  -156.757827    3      2      
iter:  12  09:52:37         -2.26  -156.752880    3      2      
iter:  13  09:52:38         -2.40  -156.749254    3      2      
iter:  14  09:52:39         -2.58  -156.746637    3      2      
iter:  15  09:52:39         -2.72  -156.745718    3      2      
iter:  16  09:52:40         -2.91  -156.753935    2      1      
iter:  17  09:52:40         -2.98  -156.749326    2      1      
iter:  18  09:52:41         -3.07  -156.749032    2      1      
iter:  19  09:52:41         -3.30  -156.744525    2      1      
iter:  20  09:52:42         -3.42  -156.741837    2      1      
iter:  21  09:52:42         -3.58  -156.743161    2      1      
iter:  22  09:52:43         -3.67  -156.742770    2      1      
iter:  23  09:52:43         -3.80  -156.743615    2      1      
iter:  24  09:52:44         -3.90  -156.745247    2      1      
iter:  25  09:52:44         -4.14  -156.744145    2      1      

Converged after 25 iterations.

Dipole moment: (0.294798, -0.416075, -0.214018) |e|*Ang

Energy contributions relative to reference atoms: (reference = -24663.074771)

Kinetic:       +135.052243
Potential:     -128.769865
External:        +0.000000
XC:            -165.664257
Entropy (-ST):   -0.522799
Local:           +2.899133
--------------------------
Free energy:   -157.005545
Extrapolated:  -156.744145

Fermi level: -4.79984

 Band  Eigenvalues  Occupancy
    0    -27.92758    2.00000
    1    -22.12410    2.00000
    2    -21.87290    2.00000
    3    -21.23060    2.00000
    4    -20.98554    2.00000
    5    -20.21061    2.00000
    6    -19.52730    2.00000
    7    -18.65599    2.00000
    8    -18.03536    2.00000
    9    -17.73011    2.00000
   10    -17.14792    2.00000
   11    -16.91889    2.00000
   12    -16.51183    2.00000
   13    -16.48114    2.00000
   14    -15.75420    2.00000
   15    -15.07916    2.00000
   16    -14.40168    2.00000
   17    -14.10717    2.00000
   18    -13.69330    2.00000
   19    -13.49156    2.00000
   20    -12.97281    2.00000
   21    -12.41267    2.00000
   22    -11.74817    2.00000
   23    -11.46407    2.00000
   24    -10.58546    2.00000
   25    -10.56003    2.00000
   26     -9.84375    2.00000
   27     -9.79191    2.00000
   28     -9.55889    2.00000
   29     -9.40945    2.00000
   30     -8.83407    2.00000
   31     -8.61986    2.00000
   32     -8.41568    2.00000
   33     -8.23048    2.00000
   34     -7.91411    2.00000
   35     -7.58344    2.00000
   36     -7.45127    2.00000
   37     -7.42564    2.00000
   38     -6.77728    2.00000
   39     -6.54744    2.00000
   40     -6.28235    2.00000
   41     -6.16844    2.00000
   42     -5.92928    1.99998
   43     -5.52010    1.99851
   44     -5.45911    1.99726
   45     -5.14537    1.93878
   46     -4.90905    1.49755
   47     -4.84641    1.22873
   48     -4.80564    1.02896
   49     -4.59344    0.22530
   50     -4.48267    0.08049
   51     -4.17929    0.00403
   52     -3.95294    0.00042
   53     -3.54666    0.00001
   54     -3.42695    0.00000
   55     -2.99215    0.00000
   56     -2.82926    0.00000
   57     -2.40645    0.00000
   58     -2.13912    0.00000
   59     -0.70825    0.00000
   60     -0.65190    0.00000
   61     -0.45487    0.00000
   62     -0.05125    0.00000
   63      0.82441    0.00000
   64      1.09150    0.00000
   65      1.65219    0.00000
   66      2.16094    0.00000
   67      2.55223    0.00000
   68      2.66489    0.00000
   69      3.11216    0.00000
   70      3.58027    0.00000
   71      3.80187    0.00000
   72      4.23938    0.00000
   73      5.21739    0.00000
   74      5.78237    0.00000
   75      5.89100    0.00000
   76      6.12266    0.00000
   77      6.59072    0.00000
   78      6.80898    0.00000
   79      7.17128    0.00000
   80      7.45858    0.00000
   81      7.88672    0.00000
   82      7.99206    0.00000
   83      8.08875    0.00000
   84      8.41357    0.00000
   85      8.66835    0.00000
   86      8.93227    0.00000
   87      8.98537    0.00000
   88      9.08804    0.00000
   89      9.31946    0.00000
   90      9.40936    0.00000
   91      9.52090    0.00000
   92      9.61173    0.00000
   93      9.68414    0.00000
   94      9.72806    0.00000
   95      9.82574    0.00000
   96      9.97800    0.00000
   97     10.16344    0.00000


Forces in eV/Ang:
  0 C     0.05120   -0.76909    0.62082
  1 C    -2.31375   -2.54253    1.26008
  2 C     2.75464   -1.99881    0.50553
  3 C    -1.25569    0.14578    0.15330
  4 C     0.38271    0.77978    0.20995
  5 C    -2.70406    1.92963   -1.00318
  6 C     0.59260   -2.48771    0.95913
  7 C     1.07968   -1.35046    0.66682
  8 C     0.64519   -1.04964    0.49264
  9 C    11.69252   43.27958    2.16302
 10 C    -1.96136    0.70972   -1.02047
 11 C     0.57259    3.40352    0.15323
 12 C     2.72825    3.17057   -0.58086
 13 C    10.31455  -39.70719   -2.48102
 14 C     0.29654    3.07564   -0.63650
 15 C    -0.48411    1.00186   -0.02059
 16 C    -2.52244   -0.60499    0.26445
 17 C    -1.95105    3.07694    0.23993
 18 C   -23.52444   -7.68381   -0.10624
 19 C    -1.85552   -1.11509   -0.19446
 20 C     0.72769    0.52919   -0.21619
 21 C     2.78536    2.01063   -1.47151
 22 C     3.84694   -4.10180   -0.22710
 23 C     0.04029    0.31149    0.26929

System changes: positions 

Initializing position-dependent things.

Density initialized from wave functions
           .--------------------------------------.  
          /|                                      |  
         / |                                      |  
        /  |                                      |  
       /   |                                      |  
      /    |                                      |  
     /     |                                      |  
    /      |                                      |  
   /       |                                      |  
  /        |    C            C  C                 |  
 *         |  C     C  C  C   C   C               |  
 |         | C       C    C C CC C                |  
 |         .---C---C-C---C--C---------------------.  
 |        /          C    C                      /   
 |       /             C                        /    
 |      /                                      /     
 |     /                                      /      
 |    /                                      /       
 |   /                                      /        
 |  /                                      /         
 | /                                      /          
 |/                                      /           
 *--------------------------------------*            

Positions:
   0 C      6.109402   10.723633    4.587734
   1 C      5.000434   10.136291    4.765526
   2 C      8.625896   11.365235    4.767734
   3 C      7.508406   10.538203    4.552138
   4 C      8.012317    9.164517    4.624223
   5 C      9.856243   10.423271    5.069251
   6 C      9.422835    9.082187    4.994845
   7 C     11.082586    5.207356    6.317863
   8 C     11.612873    6.408425    6.203036
   9 C      9.281429    6.614989    5.325833
  10 C     11.418122    7.644975    5.808392
  11 C     10.082388    7.825948    5.340061
  12 C      9.369901    4.135288    5.116063
  13 C      9.528294    5.508291    5.207249
  14 C      3.478909    7.464144    5.782319
  15 C      5.815957    6.120223    5.454615
  16 C      8.347116    3.398092    5.171493
  17 C      4.481687    5.478386    5.523711
  18 C      8.177914    6.188405    5.294233
  19 C      6.235621    7.530138    5.555726
  20 C      7.023677    3.875835    5.245071
  21 C      3.964592    8.673767    5.905500
  22 C      3.246710    6.170976    5.663963
  23 C      7.020832    5.340294    5.298585

Unit cell:
           periodic     x           y           z      points  spacing
  1. axis:    yes   16.000000    0.000000    0.000000    80     0.2000
  2. axis:    yes    0.000000   16.000000    0.000000    80     0.2000
  3. axis:    yes    0.000000    0.000000   10.000000    48     0.2083

Effective grid spacing dv^(1/3) = 0.2027

                     log10-error:    total        iterations:
           time      wfs    density  energy       fermi  poisson
iter:   1  09:52:46          +inf  -160.090790    2      5      
iter:   2  09:52:47         -2.03  -160.057234    3      2      
iter:   3  09:52:47         -2.17  -160.048594    3      2      
iter:   4  09:52:48         -2.28  -160.034188    2      2      
iter:   5  09:52:48         -2.42  -160.024956    3      2      
iter:   6  09:52:49         -2.55  -160.021254    2      2      
iter:   7  09:52:50         -2.72  -160.019569    2      2      
iter:   8  09:52:50         -2.88  -160.018892    2      2      
iter:   9  09:52:51         -3.09  -160.018537    2      2      
iter:  10  09:52:51         -3.32  -160.018379    2      1      
iter:  11  09:52:52         -3.44  -160.017838    2      1      
iter:  12  09:52:52         -3.55  -160.016931    2      1      
iter:  13  09:52:53         -3.75  -160.017214    2      1      
iter:  14  09:52:53         -3.84  -160.017610    2      1      
iter:  15  09:52:54         -4.01  -160.017703    2      1      

Converged after 15 iterations.

Dipole moment: (0.284223, -0.410399, -0.209128) |e|*Ang

Energy contributions relative to reference atoms: (reference = -24663.074771)

Kinetic:       +120.332221
Potential:     -119.024786
External:        +0.000000
XC:            -163.889590
Entropy (-ST):   -0.518808
Local:           +2.823855
--------------------------
Free energy:   -160.277108
Extrapolated:  -160.017703

Fermi level: -4.79889

 Band  Eigenvalues  Occupancy
    0    -27.06408    2.00000
    1    -22.14994    2.00000
    2    -21.87548    2.00000
    3    -21.20317    2.00000
    4    -21.01977    2.00000
    5    -20.24724    2.00000
    6    -19.54541    2.00000
    7    -18.71126    2.00000
    8    -18.08562    2.00000
    9    -17.76472    2.00000
   10    -17.15931    2.00000
   11    -16.80623    2.00000
   12    -16.49945    2.00000
   13    -16.42191    2.00000
   14    -15.73574    2.00000
   15    -14.94688    2.00000
   16    -14.39874    2.00000
   17    -14.05870    2.00000
   18    -13.48802    2.00000
   19    -13.15346    2.00000
   20    -12.91211    2.00000
   21    -12.33587    2.00000
   22    -11.75924    2.00000
   23    -11.53515    2.00000
   24    -10.59312    2.00000
   25    -10.57663    2.00000
   26     -9.88920    2.00000
   27     -9.85690    2.00000
   28     -9.58981    2.00000
   29     -9.38466    2.00000
   30     -8.85027    2.00000
   31     -8.56265    2.00000
   32     -8.40536    2.00000
   33     -8.24214    2.00000
   34     -7.92354    2.00000
   35     -7.58695    2.00000
   36     -7.44946    2.00000
   37     -7.35103    2.00000
   38     -6.79415    2.00000
   39     -6.55975    2.00000
   40     -6.28866    2.00000
   41     -6.17756    2.00000
   42     -5.94267    1.99998
   43     -5.51116    1.99839
   44     -5.47035    1.99758
   45     -5.14014    1.93619
   46     -4.91009    1.50503
   47     -4.84664    1.23433
   48     -4.80470    1.02904
   49     -4.59291    0.22613
   50     -4.46587    0.06910
   51     -4.17283    0.00381
   52     -3.94959    0.00041
   53     -3.57211    0.00001
   54     -3.42041    0.00000
   55     -2.96668    0.00000
   56     -2.81546    0.00000
   57     -2.37386    0.00000
   58     -2.11232    0.00000
   59     -0.73945    0.00000
   60     -0.66524    0.00000
   61     -0.43775    0.00000
   62     -0.10225    0.00000
   63      0.80889    0.00000
   64      1.09803    0.00000
   65      1.55529    0.00000
   66      2.17869    0.00000
   67      2.54285    0.00000
   68      2.67128    0.00000
   69      3.12297    0.00000
   70      3.55387    0.00000
   71      3.90222    0.00000
   72      4.33141    0.00000
   73      5.34413    0.00000
   74      5.77217    0.00000
   75      5.96090    0.00000
   76      6.08296    0.00000
   77      6.67532    0.00000
   78      6.82105    0.00000
   79      7.24568    0.00000
   80      7.52933    0.00000
   81      7.94578    0.00000
   82      8.04990    0.00000
   83      8.11376    0.00000
   84      8.41839    0.00000
   85      8.69392    0.00000
   86      8.94482    0.00000
   87      8.98111    0.00000
   88      9.12861    0.00000
   89      9.34313    0.00000
   90      9.40847    0.00000
   91      9.50688    0.00000
   92      9.61538    0.00000
   93      9.67994    0.00000
   94      9.73264    0.00000
   95      9.85620    0.00000
   96      9.97560    0.00000
   97     10.18869    0.00000


Forces in eV/Ang:
  0 C    -0.12714   -0.84633    0.66653
  1 C    -2.17563   -2.48306    1.25342
  2 C     2.75069   -2.06496    0.51115
  3 C    -1.19134    0.17575    0.15198
  4 C     0.44962    0.77082    0.22311
  5 C    -2.77613    1.85238   -1.02764
  6 C     0.49232   -2.11125    0.91256
  7 C     1.09509   -1.32200    0.61882
  8 C     0.60723   -0.74342    0.44812
  9 C     8.44834   27.39084    0.56982
 10 C    -1.59250    0.54253   -0.83692
 11 C     0.66367    3.50810    0.10758
 12 C     2.05075    1.90132   -0.62983
 13 C     6.95124  -24.89076   -0.86192
 14 C     0.25401    2.88576   -0.63978
 15 C    -0.51879    0.89910   -0.02125
 16 C    -2.35946   -0.50616    0.20123
 17 C    -1.91860    2.99929    0.23767
 18 C   -16.27499   -5.55918   -0.03539
 19 C    -1.80373   -1.10523   -0.20775
 20 C     0.80507    0.38533   -0.20222
 21 C     2.77298    1.96010   -1.52282
 22 C     3.79246   -3.75832   -0.19903
 23 C    -0.44390    0.10160    0.27155

System changes: positions 

Initializing position-dependent things.

Density initialized from wave functions
           .--------------------------------------.  
          /|                                      |  
         / |                                      |  
        /  |                                      |  
       /   |                                      |  
      /    |                                      |  
     /     |                                      |  
    /      |                                      |  
   /       |                                      |  
  /        |    C            C C                  |  
 *         |  C    C   C  C   C   C               |  
 |         | C       C    C C CC C                |  
 |         .---C---C-C---C--C---------------------.  
 |        /          C    C                      /   
 |       /             C                        /    
 |      /                                      /     
 |     /                                      /      
 |    /                                      /       
 |   /                                      /        
 |  /                                      /         
 | /                                      /          
 |/                                      /           
 *--------------------------------------*            

Positions:
   0 C      6.106741   10.717137    4.592697
   1 C      4.987138   10.120124    4.773923
   2 C      8.644432   11.350622    4.771242
   3 C      7.501011   10.539693    4.553151
   4 C      8.016030    9.169632    4.625863
   5 C      9.836767   10.434999    5.062064
   6 C      9.425146    9.071735    5.000537
   7 C     11.090137    5.198716    6.321557
   8 C     11.616590    6.406499    6.205613
   9 C      9.305689    6.639358    5.313577
  10 C     11.411096    7.646949    5.804595
  11 C     10.087790    7.850695    5.340326
  12 C      9.376901    4.135298    5.111315
  13 C      9.541240    5.489966    5.217794
  14 C      3.480195    7.481712    5.777966
  15 C      5.812103    6.125256    5.454465
  16 C      8.332830    3.395673    5.172213
  17 C      4.469058    5.497855    5.525293
  18 C      8.141286    6.172339    5.294710
  19 C      6.223964    7.522774    5.554189
  20 C      7.029896    3.876983    5.243846
  21 C      3.983192    8.686492    5.894698
  22 C      3.271770    6.149068    5.662903
  23 C      7.012941    5.338859    5.300441

Unit cell:
           periodic     x           y           z      points  spacing
  1. axis:    yes   16.000000    0.000000    0.000000    80     0.2000
  2. axis:    yes    0.000000   16.000000    0.000000    80     0.2000
  3. axis:    yes    0.000000    0.000000   10.000000    48     0.2083

Effective grid spacing dv^(1/3) = 0.2027

                     log10-error:    total        iterations:
           time      wfs    density  energy       fermi  poisson
iter:   1  09:52:56          +inf  -162.848497    4      5      
iter:   2  09:52:56         -1.59  -162.646914    4      2      
iter:   3  09:52:57         -1.81  -162.604200    3      2      
iter:   4  09:52:57         -1.92  -162.571487    3      2      
iter:   5  09:52:58         -2.08  -162.556718    3      2      
iter:   6  09:52:58         -2.22  -162.549926    3      2      
iter:   7  09:52:59         -2.42  -162.547778    2      2      
iter:   8  09:53:00         -2.54  -162.544933    2      2      
iter:   9  09:53:00         -2.78  -162.543746    2      2      
iter:  10  09:53:01         -2.94  -162.543489    2      2      
iter:  11  09:53:01         -3.13  -162.542534    2      1      
iter:  12  09:53:02         -3.29  -162.542597    2      1      
iter:  13  09:53:02         -3.38  -162.542449    2      1      
iter:  14  09:53:03         -3.50  -162.542223    2      1      
iter:  15  09:53:03         -3.69  -162.542982    2      1      
iter:  16  09:53:04         -3.85  -162.543548    2      1      
iter:  17  09:53:04         -3.94  -162.543297    2      1      
iter:  18  09:53:05         -4.13  -162.543375    2      1      

Converged after 18 iterations.

Dipole moment: (0.222780, -0.345313, -0.195458) |e|*Ang

Energy contributions relative to reference atoms: (reference = -24663.074771)

Kinetic:       +106.871428
Potential:     -109.437160
External:        +0.000000
XC:            -162.605290
Entropy (-ST):   -0.494498
Local:           +2.874896
--------------------------
Free energy:   -162.790624
Extrapolated:  -162.543375

Fermi level: -4.76112

 Band  Eigenvalues  Occupancy
    0    -26.19534    2.00000
    1    -22.19091    2.00000
    2    -21.87889    2.00000
    3    -21.15331    2.00000
    4    -20.99125    2.00000
    5    -20.26856    2.00000
    6    -19.56972    2.00000
    7    -18.75648    2.00000
    8    -18.11808    2.00000
    9    -17.83953    2.00000
   10    -17.14343    2.00000
   11    -16.79942    2.00000
   12    -16.48920    2.00000
   13    -16.25903    2.00000
   14    -15.65560    2.00000
   15    -14.79270    2.00000
   16    -14.44846    2.00000
   17    -13.96921    2.00000
   18    -13.45372    2.00000
   19    -12.85618    2.00000
   20    -12.73474    2.00000
   21    -12.23467    2.00000
   22    -11.83874    2.00000
   23    -11.65567    2.00000
   24    -10.74991    2.00000
   25    -10.67931    2.00000
   26    -10.00432    2.00000
   27     -9.86629    2.00000
   28     -9.67439    2.00000
   29     -9.38641    2.00000
   30     -8.82131    2.00000
   31     -8.44450    2.00000
   32     -8.34982    2.00000
   33     -8.23589    2.00000
   34     -7.91453    2.00000
   35     -7.55702    2.00000
   36     -7.39879    2.00000
   37     -7.26080    2.00000
   38     -6.81944    2.00000
   39     -6.58880    2.00000
   40     -6.30566    2.00000
   41     -6.19855    2.00000
   42     -5.98711    1.99999
   43     -5.56208    1.99934
   44     -5.47550    1.99842
   45     -5.05786    1.90216
   46     -4.87692    1.52193
   47     -4.84716    1.40546
   48     -4.74987    0.94378
   49     -4.53462    0.18812
   50     -4.36572    0.03763
   51     -4.10558    0.00284
   52     -3.87856    0.00029
   53     -3.65009    0.00003
   54     -3.39866    0.00000
   55     -2.86922    0.00000
   56     -2.74868    0.00000
   57     -2.31280    0.00000
   58     -1.95984    0.00000
   59     -0.86922    0.00000
   60     -0.69770    0.00000
   61     -0.44431    0.00000
   62     -0.10890    0.00000
   63      0.82825    0.00000
   64      1.10664    0.00000
   65      1.46355    0.00000
   66      2.18143    0.00000
   67      2.50613    0.00000
   68      2.68093    0.00000
   69      3.19608    0.00000
   70      3.56461    0.00000
   71      4.06019    0.00000
   72      4.51250    0.00000
   73      5.27066    0.00000
   74      5.72128    0.00000
   75      6.05288    0.00000
   76      6.23058    0.00000
   77      6.71871    0.00000
   78      6.86227    0.00000
   79      7.35770    0.00000
   80      7.63545    0.00000
   81      8.03038    0.00000
   82      8.09960    0.00000
   83      8.21480    0.00000
   84      8.45953    0.00000
   85      8.72495    0.00000
   86      8.99796    0.00000
   87      9.03520    0.00000
   88      9.15018    0.00000
   89      9.38599    0.00000
   90      9.45605    0.00000
   91      9.53161    0.00000
   92      9.64989    0.00000
   93      9.67996    0.00000
   94      9.75587    0.00000
   95      9.92375    0.00000
   96      9.96221    0.00000
   97     10.24749    0.00000


Forces in eV/Ang:
  0 C    -0.99823   -1.24937    0.89056
  1 C    -1.45139   -2.20126    1.24998
  2 C     3.05960   -2.42817    0.55578
  3 C    -0.89973   -0.00002    0.24395
  4 C     0.50428    0.82301    0.21542
  5 C    -3.23229    1.97842   -1.15567
  6 C     0.04338   -0.90892    0.73134
  7 C     1.17823   -1.05630    0.59811
  8 C     0.42414   -0.41055    0.25768
  9 C     2.56885   19.15716   -0.47324
 10 C    -0.85633    0.13133   -0.46206
 11 C     0.51003    2.38445    0.11167
 12 C     1.04308    0.57564   -0.53909
 13 C     5.32308  -18.53021    0.00936
 14 C     0.20560    1.97718   -0.61672
 15 C    -0.56446    0.61421   -0.02773
 16 C    -1.16363    0.02730    0.11837
 17 C    -1.09972    2.40411    0.12010
 18 C    -8.13584   -2.17387    0.10091
 19 C    -1.56674   -0.97495   -0.27575
 20 C     0.49880    0.18568   -0.18700
 21 C     2.59412    1.51676   -1.82341
 22 C     3.02183   -1.64518    0.04416
 23 C    -0.97662   -0.18385    0.30138

System changes: positions 

Initializing position-dependent things.

Density initialized from wave functions
           .--------------------------------------.  
          /|                                      |  
         / |                                      |  
        /  |                                      |  
       /   |                                      |  
      /    |                                      |  
     /     |                                      |  
    /      |                                      |  
   /       |                                      |  
  /        |                 C C                  |  
 *         |  C C  C   C  C   C   C               |  
 |         | C       C    C C  C C                |  
 |         .---C---C-C---C--C---------------------.  
 |        /          C    C                      /   
 |       /             C                        /    
 |      /                                      /     
 |     /                                      /      
 |    /                                      /       
 |   /                                      /        
 |  /                                      /         
 | /                                      /          
 |/                                      /           
 *--------------------------------------*            

Positions:
   0 C      6.095417   10.704888    4.601286
   1 C      4.976027   10.101188    4.785061
   2 C      8.672111   11.327946    4.776313
   3 C      7.493787   10.539777    4.555415
   4 C      8.021174    9.176980    4.627898
   5 C      9.806745   10.452186    5.051375
   6 C      9.424236    9.067994    5.006513
   7 C     11.100906    5.189756    6.326484
   8 C     11.619885    6.405770    6.207353
   9 C      9.295160    6.666849    5.294671
  10 C     11.407304    7.646291    5.802395
  11 C     10.092989    7.871852    5.340939
  12 C      9.379457    4.128287    5.106155
  13 C      9.558530    5.457074    5.232597
  14 C      3.481625    7.496909    5.772435
  15 C      5.806704    6.129599    5.454204
  16 C      8.324972    3.397287    5.172651
  17 C      4.460286    5.518145    5.526234
  18 C      8.138455    6.174375    5.296354
  19 C      6.210603    7.514252    5.551538
  20 C      7.034727    3.877219    5.242305
  21 C      4.006152    8.699214    5.877628
  22 C      3.297620    6.139341    5.663777
  23 C      6.999523    5.335135    5.303190

Unit cell:
           periodic     x           y           z      points  spacing
  1. axis:    yes   16.000000    0.000000    0.000000    80     0.2000
  2. axis:    yes    0.000000   16.000000    0.000000    80     0.2000
  3. axis:    yes    0.000000    0.000000   10.000000    48     0.2083

Effective grid spacing dv^(1/3) = 0.2027

                     log10-error:    total        iterations:
           time      wfs    density  energy       fermi  poisson
iter:   1  09:53:07          +inf  -164.870250    4      5      
iter:   2  09:53:07         -1.55  -164.524276    3      2      
iter:   3  09:53:08         -1.82  -164.459340    3      2      
iter:   4  09:53:08         -1.96  -164.422775    3      2      
iter:   5  09:53:09         -2.11  -164.406566    3      2      
iter:   6  09:53:09         -2.28  -164.399816    2      2      
iter:   7  09:53:10         -2.44  -164.399308    3      2      
iter:   8  09:53:11         -2.57  -164.396787    2      2      
iter:   9  09:53:11         -2.73  -164.395090    2      2      
iter:  10  09:53:12         -2.97  -164.393630    2      1      
iter:  11  09:53:12         -3.08  -164.394437    2      2      
iter:  12  09:53:13         -3.22  -164.394126    2      1      
iter:  13  09:53:13         -3.37  -164.393026    2      1      
iter:  14  09:53:14         -3.60  -164.395063    2      1      
iter:  15  09:53:14         -3.73  -164.395218    2      1      
iter:  16  09:53:15         -3.80  -164.394511    2      1      
iter:  17  09:53:15         -3.98  -164.394946    2      1      
iter:  18  09:53:16         -4.12  -164.395023    2      1      

Converged after 18 iterations.

Dipole moment: (0.169425, -0.250536, -0.173114) |e|*Ang

Energy contributions relative to reference atoms: (reference = -24663.074771)

Kinetic:        +99.241532
Potential:     -103.806913
External:        +0.000000
XC:            -162.504529
Entropy (-ST):   -0.432184
Local:           +2.890979
--------------------------
Free energy:   -164.611116
Extrapolated:  -164.395023

Fermi level: -4.69590

 Band  Eigenvalues  Occupancy
    0    -25.62191    2.00000
    1    -22.22779    2.00000
    2    -21.82759    2.00000
    3    -21.14729    2.00000
    4    -20.94555    2.00000
    5    -20.28990    2.00000
    6    -19.56000    2.00000
    7    -18.80879    2.00000
    8    -18.15104    2.00000
    9    -17.89441    2.00000
   10    -17.11850    2.00000
   11    -16.70367    2.00000
   12    -16.55634    2.00000
   13    -16.17533    2.00000
   14    -15.60460    2.00000
   15    -14.68897    2.00000
   16    -14.44273    2.00000
   17    -13.88338    2.00000
   18    -13.42646    2.00000
   19    -12.82516    2.00000
   20    -12.51362    2.00000
   21    -12.06957    2.00000
   22    -11.86100    2.00000
   23    -11.72676    2.00000
   24    -10.97195    2.00000
   25    -10.75695    2.00000
   26    -10.18955    2.00000
   27     -9.89190    2.00000
   28     -9.70741    2.00000
   29     -9.36496    2.00000
   30     -8.82334    2.00000
   31     -8.37367    2.00000
   32     -8.33305    2.00000
   33     -8.20841    2.00000
   34     -7.91853    2.00000
   35     -7.54438    2.00000
   36     -7.37523    2.00000
   37     -7.17745    2.00000
   38     -6.87170    2.00000
   39     -6.63819    2.00000
   40     -6.33962    2.00000
   41     -6.21081    2.00000
   42     -6.01981    2.00000
   43     -5.61091    1.99979
   44     -5.45326    1.99897
   45     -4.97405    1.88334
   46     -4.87920    1.72423
   47     -4.80360    1.49187
   48     -4.64585    0.75483
   49     -4.42261    0.12212
   50     -4.24196    0.02113
   51     -4.06219    0.00353
   52     -3.74675    0.00015
   53     -3.57725    0.00003
   54     -3.32316    0.00000
   55     -2.80028    0.00000
   56     -2.68526    0.00000
   57     -2.22093    0.00000
   58     -1.87059    0.00000
   59     -0.94327    0.00000
   60     -0.64421    0.00000
   61     -0.39895    0.00000
   62     -0.10438    0.00000
   63      0.90689    0.00000
   64      1.15366    0.00000
   65      1.44090    0.00000
   66      2.21726    0.00000
   67      2.50660    0.00000
   68      2.69719    0.00000
   69      3.28919    0.00000
   70      3.62712    0.00000
   71      4.02950    0.00000
   72      4.74361    0.00000
   73      5.23213    0.00000
   74      5.74083    0.00000
   75      6.17610    0.00000
   76      6.27599    0.00000
   77      6.65340    0.00000
   78      6.96437    0.00000
   79      7.43268    0.00000
   80      7.83399    0.00000
   81      8.06493    0.00000
   82      8.16866    0.00000
   83      8.37849    0.00000
   84      8.51684    0.00000
   85      8.76839    0.00000
   86      9.06306    0.00000
   87      9.11743    0.00000
   88      9.16386    0.00000
   89      9.42733    0.00000
   90      9.48028    0.00000
   91      9.60125    0.00000
   92      9.66372    0.00000
   93      9.71179    0.00000
   94      9.78992    0.00000
   95      9.93210    0.00000
   96      9.95125    0.00000
   97     10.27379    0.00000


Forces in eV/Ang:
  0 C    -0.90070   -1.34848    0.97634
  1 C    -1.37474   -2.31376    1.41391
  2 C     3.24761   -2.67133    0.56231
  3 C    -0.94465   -0.26938    0.36689
  4 C     0.33588    0.91762    0.17732
  5 C    -3.51326    2.26101   -1.23667
  6 C    -0.18941   -0.20248    0.60946
  7 C     0.97230   -0.73344    0.45851
  8 C     0.17411   -0.19534    0.12194
  9 C     3.28137   12.22764   -1.13306
 10 C    -0.45849   -0.05104   -0.26497
 11 C     0.41727    1.52349    0.07778
 12 C     0.64464   -0.33752   -0.62628
 13 C     4.51348  -10.87947    0.95871
 14 C     0.34392    1.84791   -0.59592
 15 C    -0.43555    0.32710   -0.05992
 16 C    -0.92365    0.05727    0.00519
 17 C     0.01983    1.54630   -0.01515
 18 C    -7.58508   -2.17273    0.20377
 19 C    -1.28552   -0.69396   -0.30381
 20 C     0.21066    0.23276   -0.08097
 21 C     2.44579    1.12686   -2.16354
 22 C     1.71775   -0.07503    0.28274
 23 C    -0.65827   -0.10480    0.28252

System changes: positions 

Initializing position-dependent things.

Density initialized from wave functions
           .--------------------------------------.  
          /|                                      |  
         / |                                      |  
        /  |                                      |  
       /   |                                      |  
      /    |                                      |  
     /     |                                      |  
    /      |                                      |  
   /       |                                      |  
  /        |                 C C                  |  
 *         |  C C  C   C  C   C   C               |  
 |         | C       C    C C  C C                |  
 |         .---C---C-C---C--C---------------------.  
 |        /          C    C                      /   
 |       /             C                        /    
 |      /                                      /     
 |     /                                      /      
 |    /                                      /       
 |   /                                      /        
 |  /                                      /         
 | /                                      /          
 |/                                      /           
 *--------------------------------------*            

Positions:
   0 C      6.085032   10.691771    4.610627
   1 C      4.965158   10.080947    4.797727
   2 C      8.701835   11.303045    4.781508
   3 C      7.485972   10.537517    4.558749
   4 C      8.024826    9.185252    4.629609
   5 C      9.774073   10.472209    5.039905
   6 C      9.421587    9.069176    5.011669
   7 C     11.110120    5.183298    6.330478
   8 C     11.621245    6.405960    6.208090
   9 C      9.298533    6.683633    5.274602
  10 C     11.405803    7.644522    5.801325
  11 C     10.097188    7.885646    5.341423
  12 C      9.380557    4.117157    5.100375
  13 C      9.579144    5.443457    5.250754
  14 C      3.484326    7.511601    5.767010
  15 C      5.802376    6.131886    5.453676
  16 C      8.318794    3.399014    5.172335
  17 C      4.460685    5.531776    5.526056
  18 C      8.120410    6.170947    5.298689
  19 C      6.199259    7.507913    5.548640
  20 C      7.036952    3.878225    5.241573
  21 C      4.028222    8.708960    5.857592
  22 C      3.313117    6.141873    5.666600
  23 C      6.989836    5.332560    5.305825

Unit cell:
           periodic     x           y           z      points  spacing
  1. axis:    yes   16.000000    0.000000    0.000000    80     0.2000
  2. axis:    yes    0.000000   16.000000    0.000000    80     0.2000
  3. axis:    yes    0.000000    0.000000   10.000000    48     0.2083

Effective grid spacing dv^(1/3) = 0.2027

                     log10-error:    total        iterations:
           time      wfs    density  energy       fermi  poisson
iter:   1  09:53:18          +inf  -166.243785    3      5      
iter:   2  09:53:18         -1.57  -165.860587    3      2      
iter:   3  09:53:19         -1.88  -165.771616    3      2      
iter:   4  09:53:19         -2.05  -165.736705    3      2      
iter:   5  09:53:20         -2.23  -165.730347    2      2      
iter:   6  09:53:20         -2.33  -165.723072    2      2      
iter:   7  09:53:21         -2.48  -165.723996    2      2      
iter:   8  09:53:21         -2.59  -165.720365    2      2      
iter:   9  09:53:22         -2.81  -165.719274    2      2      
iter:  10  09:53:23         -2.99  -165.718624    2      2      
iter:  11  09:53:23         -3.18  -165.718187    2      1      
iter:  12  09:53:24         -3.30  -165.718019    2      1      
iter:  13  09:53:24         -3.47  -165.718503    2      1      
iter:  14  09:53:25         -3.65  -165.718660    2      1      
iter:  15  09:53:25         -3.78  -165.718873    2      1      
iter:  16  09:53:26         -3.83  -165.718603    2      1      
iter:  17  09:53:26         -3.97  -165.718736    2      1      
iter:  18  09:53:27         -4.07  -165.718825    2      1      

Converged after 18 iterations.

Dipole moment: (0.126979, -0.118162, -0.167649) |e|*Ang

Energy contributions relative to reference atoms: (reference = -24663.074771)

Kinetic:        +95.007594
Potential:     -100.670612
External:        +0.000000
XC:            -162.787673
Entropy (-ST):   -0.347301
Local:           +2.905518
--------------------------
Free energy:   -165.892475
Extrapolated:  -165.718825

Fermi level: -4.62289

 Band  Eigenvalues  Occupancy
    0    -25.07559    2.00000
    1    -22.31320    2.00000
    2    -21.81113    2.00000
    3    -21.15032    2.00000
    4    -20.83105    2.00000
    5    -20.28735    2.00000
    6    -19.53835    2.00000
    7    -18.86306    2.00000
    8    -18.15290    2.00000
    9    -17.92479    2.00000
   10    -17.09305    2.00000
   11    -16.71119    2.00000
   12    -16.63241    2.00000
   13    -16.08928    2.00000
   14    -15.57489    2.00000
   15    -14.63680    2.00000
   16    -14.42484    2.00000
   17    -13.82119    2.00000
   18    -13.37125    2.00000
   19    -12.80409    2.00000
   20    -12.35892    2.00000
   21    -11.89942    2.00000
   22    -11.86075    2.00000
   23    -11.70143    2.00000
   24    -11.17860    2.00000
   25    -10.82517    2.00000
   26    -10.38455    2.00000
   27     -9.85898    2.00000
   28     -9.72674    2.00000
   29     -9.36376    2.00000
   30     -8.80689    2.00000
   31     -8.32285    2.00000
   32     -8.29105    2.00000
   33     -8.16318    2.00000
   34     -7.93431    2.00000
   35     -7.53115    2.00000
   36     -7.33713    2.00000
   37     -7.11189    2.00000
   38     -6.93916    2.00000
   39     -6.70172    2.00000
   40     -6.37577    2.00000
   41     -6.21621    2.00000
   42     -6.07027    2.00000
   43     -5.62044    1.99991
   44     -5.40377    1.99919
   45     -4.97956    1.94506
   46     -4.89834    1.88033
   47     -4.73455    1.50671
   48     -4.53273    0.57746
   49     -4.28327    0.06483
   50     -4.16992    0.02134
   51     -4.02483    0.00504
   52     -3.62057    0.00009
   53     -3.53774    0.00004
   54     -3.23266    0.00000
   55     -2.72508    0.00000
   56     -2.61416    0.00000
   57     -2.15861    0.00000
   58     -1.81363    0.00000
   59     -1.00171    0.00000
   60     -0.59395    0.00000
   61     -0.36483    0.00000
   62     -0.10164    0.00000
   63      1.01997    0.00000
   64      1.21334    0.00000
   65      1.44788    0.00000
   66      2.26183    0.00000
   67      2.52500    0.00000
   68      2.75194    0.00000
   69      3.37318    0.00000
   70      3.66569    0.00000
   71      3.97598    0.00000
   72      4.75370    0.00000
   73      5.25149    0.00000
   74      5.83812    0.00000
   75      6.14870    0.00000
   76      6.33482    0.00000
   77      6.71462    0.00000
   78      7.07954    0.00000
   79      7.50602    0.00000
   80      7.95797    0.00000
   81      8.08220    0.00000
   82      8.28212    0.00000
   83      8.49081    0.00000
   84      8.57321    0.00000
   85      8.77287    0.00000
   86      9.10003    0.00000
   87      9.17473    0.00000
   88      9.19034    0.00000
   89      9.44958    0.00000
   90      9.49663    0.00000
   91      9.62999    0.00000
   92      9.64375    0.00000
   93      9.77517    0.00000
   94      9.84046    0.00000
   95      9.94103    0.00000
   96      9.96931    0.00000
   97     10.28478    0.00000


Forces in eV/Ang:
  0 C    -1.02667   -1.43516    1.08558
  1 C    -1.19019   -2.39872    1.56080
  2 C     2.45060   -2.24972    0.34941
  3 C    -0.92003   -0.39815    0.39978
  4 C     0.13908    0.89335    0.20932
  5 C    -2.90131    1.81889   -1.02291
  6 C    -0.26222    0.18396    0.48634
  7 C     0.78731   -0.53931    0.30867
  8 C     0.01913   -0.14794    0.04981
  9 C     1.66241    8.45234   -1.36310
 10 C    -0.17912   -0.04051   -0.14607
 11 C     0.32403    1.02358    0.01862
 12 C     0.63333   -0.21885   -0.60389
 13 C     4.11244   -8.17301    1.40094
 14 C     0.43264    1.72845   -0.58757
 15 C    -0.37048    0.15182   -0.09700
 16 C    -0.84745   -0.03072   -0.07916
 17 C     0.44143    1.02829   -0.10403
 18 C    -5.09533   -1.03322    0.22866
 19 C    -0.98276   -0.43143   -0.32814
 20 C    -0.03992    0.17215   -0.03126
 21 C     2.45823    1.11611   -2.41697
 22 C     0.94587    0.76566    0.41993
 23 C    -0.62894   -0.23014    0.27236

System changes: positions 

Initializing position-dependent things.

Density initialized from wave functions
           .--------------------------------------.  
          /|                                      |  
         / |                                      |  
        /  |                                      |  
       /   |                                      |  
      /    |                                      |  
     /     |                                      |  
    /      |                                      |  
   /       |                                      |  
  /        |                 C C                  |  
 *         |  C C  C  C   C   C   C               |  
 |         | C       C    C    C C                |  
 |         .---C---C-C---C--C---------------------.  
 |        /          C    C                      /   
 |       /             C                        /    
 |      /                                      /     
 |     /                                      /      
 |    /                                      /       
 |   /                                      /        
 |  /                                      /         
 | /                                      /          
 |/                                      /           
 *--------------------------------------*            

Positions:
   0 C      6.072642   10.675803    4.622714
   1 C      4.953263   10.055277    4.814663
   2 C      8.726512   11.279509    4.784886
   3 C      7.476455   10.533440    4.562980
   4 C      8.026490    9.194705    4.632050
   5 C      9.743883   10.490266    5.029239
   6 C      9.418383    9.072973    5.016600
   7 C     11.118605    5.177594    6.333450
   8 C     11.621261    6.405741    6.208427
   9 C      9.295919    6.695627    5.252141
  10 C     11.405801    7.643480    5.800669
  11 C     10.101084    7.897315    5.341318
  12 C      9.384438    4.109718    5.093749
  13 C      9.606785    5.426015    5.273813
  14 C      3.488793    7.529249    5.760628
  15 C      5.798160    6.133015    5.452590
  16 C      8.310319    3.398977    5.171132
  17 C      4.465076    5.542540    5.524910
  18 C      8.106359    6.172829    5.301444
  19 C      6.189143    7.503469    5.545009
  20 C      7.036770    3.879177    5.241273
  21 C      4.054957    8.721235    5.831106
  22 C      3.323157    6.151631    5.671263
  23 C      6.980236    5.328658    5.308787

Unit cell:
           periodic     x           y           z      points  spacing
  1. axis:    yes   16.000000    0.000000    0.000000    80     0.2000
  2. axis:    yes    0.000000   16.000000    0.000000    80     0.2000
  3. axis:    yes    0.000000    0.000000   10.000000    48     0.2083

Effective grid spacing dv^(1/3) = 0.2027

                     log10-error:    total        iterations:
           time      wfs    density  energy       fermi  poisson
iter:   1  09:53:29          +inf  -167.278504    3      5      
iter:   2  09:53:29         -1.61  -166.945188    3      2      
iter:   3  09:53:30         -1.91  -166.852006    3      2      
iter:   4  09:53:30         -2.08  -166.812191    3      2      
iter:   5  09:53:31         -2.30  -166.809869    2      2      
iter:   6  09:53:31         -2.38  -166.804411    2      2      
iter:   7  09:53:32         -2.52  -166.802963    2      2      
iter:   8  09:53:32         -2.67  -166.800876    2      2      
iter:   9  09:53:33         -2.89  -166.800822    2      2      
iter:  10  09:53:33         -3.19  -166.800502    2      1      
iter:  11  09:53:34         -3.27  -166.800629    2      1      
iter:  12  09:53:35         -3.45  -166.800899    2      1      
iter:  13  09:53:35         -3.56  -166.800546    2      1      
iter:  14  09:53:36         -3.73  -166.801050    2      1      
iter:  15  09:53:36         -3.89  -166.801181    2      1      
iter:  16  09:53:37         -4.02  -166.801070    2      1      

Converged after 16 iterations.

Dipole moment: (0.081205, 0.019544, -0.176725) |e|*Ang

Energy contributions relative to reference atoms: (reference = -24663.074771)

Kinetic:        +92.417890
Potential:      -98.846486
External:        +0.000000
XC:            -163.140275
Entropy (-ST):   -0.299166
Local:           +2.917384
--------------------------
Free energy:   -166.950653
Extrapolated:  -166.801070

Fermi level: -4.54469

 Band  Eigenvalues  Occupancy
    0    -24.57683    2.00000
    1    -22.44350    2.00000
    2    -21.77146    2.00000
    3    -21.12386    2.00000
    4    -20.68289    2.00000
    5    -20.25501    2.00000
    6    -19.51793    2.00000
    7    -18.93807    2.00000
    8    -18.16818    2.00000
    9    -17.94592    2.00000
   10    -17.07027    2.00000
   11    -16.89769    2.00000
   12    -16.55102    2.00000
   13    -16.01633    2.00000
   14    -15.53964    2.00000
   15    -14.59845    2.00000
   16    -14.38715    2.00000
   17    -13.76733    2.00000
   18    -13.30715    2.00000
   19    -12.79210    2.00000
   20    -12.27257    2.00000
   21    -11.87010    2.00000
   22    -11.79752    2.00000
   23    -11.57713    2.00000
   24    -11.29382    2.00000
   25    -10.95039    2.00000
   26    -10.57805    2.00000
   27     -9.87131    2.00000
   28     -9.73159    2.00000
   29     -9.35583    2.00000
   30     -8.78044    2.00000
   31     -8.30366    2.00000
   32     -8.23678    2.00000
   33     -8.08093    2.00000
   34     -7.97427    2.00000
   35     -7.53297    2.00000
   36     -7.31163    2.00000
   37     -7.09888    2.00000
   38     -6.99276    2.00000
   39     -6.75424    2.00000
   40     -6.42182    2.00000
   41     -6.20655    2.00000
   42     -6.11610    2.00000
   43     -5.61383    1.99995
   44     -5.33887    1.99929
   45     -5.09096    1.99155
   46     -4.83845    1.89934
   47     -4.66883    1.55161
   48     -4.43273    0.49216
   49     -4.14379    0.03566
   50     -4.10908    0.02533
   51     -3.94601    0.00501
   52     -3.48960    0.00005
   53     -3.46458    0.00004
   54     -3.16228    0.00000
   55     -2.66008    0.00000
   56     -2.53213    0.00000
   57     -2.09993    0.00000
   58     -1.80376    0.00000
   59     -1.06032    0.00000
   60     -0.55981    0.00000
   61     -0.33663    0.00000
   62     -0.10798    0.00000
   63      1.12140    0.00000
   64      1.29495    0.00000
   65      1.48542    0.00000
   66      2.29706    0.00000
   67      2.58657    0.00000
   68      2.84548    0.00000
   69      3.40681    0.00000
   70      3.70279    0.00000
   71      3.90622    0.00000
   72      4.63642    0.00000
   73      5.25050    0.00000
   74      5.91711    0.00000
   75      6.11908    0.00000
   76      6.33204    0.00000
   77      6.85190    0.00000
   78      7.19963    0.00000
   79      7.55490    0.00000
   80      8.03779    0.00000
   81      8.14068    0.00000
   82      8.40039    0.00000
   83      8.55172    0.00000
   84      8.66320    0.00000
   85      8.78867    0.00000
   86      9.11148    0.00000
   87      9.19780    0.00000
   88      9.23639    0.00000
   89      9.45073    0.00000
   90      9.52233    0.00000
   91      9.59695    0.00000
   92      9.67512    0.00000
   93      9.81336    0.00000
   94      9.89738    0.00000
   95      9.94791    0.00000
   96     10.02807    0.00000
   97     10.27123    0.00000


Forces in eV/Ang:
  0 C    -1.26214   -1.53014    1.15715
  1 C    -0.92458   -2.49843    1.76362
  2 C     0.28545   -0.88274   -0.10795
  3 C    -0.78914   -0.29128    0.34928
  4 C    -0.03840    0.63802    0.27751
  5 C    -1.05150    0.36566   -0.48710
  6 C    -0.19958    0.50176    0.33237
  7 C     0.50828   -0.39006    0.10856
  8 C    -0.15464   -0.01352   -0.05924
  9 C     1.03160    5.47860   -1.40320
 10 C    -0.01253   -0.03841   -0.03874
 11 C     0.24913    0.57787   -0.05480
 12 C     0.18883   -0.54786   -0.55427
 13 C     4.02808   -5.68675    1.78133
 14 C     0.53975    1.60158   -0.60334
 15 C    -0.19335    0.05273   -0.14444
 16 C    -0.43956    0.13213   -0.20226
 17 C     0.28481    0.71719   -0.12366
 18 C    -3.87605   -0.33580    0.25434
 19 C    -0.65951   -0.22149   -0.32995
 20 C    -0.18427    0.11958    0.02183
 21 C     2.51527    1.14375   -2.70387
 22 C     0.65745    1.26969    0.46970
 23 C    -0.48074   -0.20105    0.25444

System changes: positions 

Initializing position-dependent things.

Density initialized from wave functions
           .--------------------------------------.  
          /|                                      |  
         / |                                      |  
        /  |                                      |  
       /   |                                      |  
      /    |                                      |  
     /     |                                      |  
    /      |                                      |  
   /       |                                      |  
  /        |                 C C                  |  
 *         |  C C  C  C   C   C   C               |  
 |         | C       C    C    C C                |  
 |         .---C---C-C---C--C---------------------.  
 |        /          C    C                      /   
 |       /             C                        /    
 |      /                                      /     
 |     /                                      /      
 |    /                                      /       
 |   /                                      /        
 |  /                                      /         
 | /                                      /          
 |/                                      /           
 *--------------------------------------*            

Positions:
   0 C      6.059094   10.659897    4.634664
   1 C      4.943674   10.029939    4.832350
   2 C      8.733173   11.267900    4.784621
   3 C      7.468365   10.530696    4.566535
   4 C      8.026916    9.201625    4.634903
   5 C      9.729662   10.496029    5.023205
   6 C      9.416075    9.078256    5.020293
   7 C     11.124722    5.172982    6.334934
   8 C     11.620135    6.406331    6.207994
   9 C      9.293874    6.703240    5.232109
  10 C     11.406351    7.642608    5.800569
  11 C     10.104283    7.905587    5.340749
  12 C      9.384904    4.100575    5.087827
  13 C      9.636327    5.412026    5.296868
  14 C      3.493847    7.545454    5.754357
  15 C      5.795533    6.133696    5.451218
  16 C      8.305466    3.400474    5.169147
  17 C      4.467025    5.551333    5.523829
  18 C      8.092206    6.176575    5.304197
  19 C      6.181553    7.500455    5.541571
  20 C      7.035801    3.879878    5.241323
  21 C      4.081074    8.733306    5.803797
  22 C      3.331972    6.163333    5.675856
  23 C      6.972632    5.325595    5.311494

Unit cell:
           periodic     x           y           z      points  spacing
  1. axis:    yes   16.000000    0.000000    0.000000    80     0.2000
  2. axis:    yes    0.000000   16.000000    0.000000    80     0.2000
  3. axis:    yes    0.000000    0.000000   10.000000    48     0.2083

Effective grid spacing dv^(1/3) = 0.2027

                     log10-error:    total        iterations:
           time      wfs    density  energy       fermi  poisson
iter:   1  09:53:38          +inf  -167.852034    3      5      
iter:   2  09:53:39         -1.75  -167.673026    3      2      
iter:   3  09:53:40         -2.03  -167.615278    3      2      
iter:   4  09:53:40         -2.22  -167.596468    3      2      
iter:   5  09:53:41         -2.44  -167.591552    2      1      
iter:   6  09:53:41         -2.53  -167.590900    2      2      
iter:   7  09:53:42         -2.71  -167.590904    2      2      
iter:   8  09:53:42         -2.87  -167.589427    2      2      
iter:   9  09:53:43         -3.08  -167.590403    2      1      
iter:  10  09:53:43         -3.19  -167.588492    2      1      
iter:  11  09:53:44         -3.38  -167.588894    2      1      
iter:  12  09:53:44         -3.52  -167.589900    2      1      
iter:  13  09:53:45         -3.67  -167.589573    2      1      
iter:  14  09:53:45         -3.82  -167.590059    2      1      
iter:  15  09:53:46         -3.91  -167.590306    2      1      
iter:  16  09:53:46         -4.14  -167.590040    2      1      

Converged after 16 iterations.

Dipole moment: (0.028637, 0.081926, -0.178447) |e|*Ang

Energy contributions relative to reference atoms: (reference = -24663.074771)

Kinetic:        +90.259628
Potential:      -97.349097
External:        +0.000000
XC:            -163.284210
Entropy (-ST):   -0.281136
Local:           +2.924207
--------------------------
Free energy:   -167.730608
Extrapolated:  -167.590040

Fermi level: -4.49967

 Band  Eigenvalues  Occupancy
    0    -24.17618    2.00000
    1    -22.51129    2.00000
    2    -21.74845    2.00000
    3    -21.10201    2.00000
    4    -20.55634    2.00000
    5    -20.24469    2.00000
    6    -19.50810    2.00000
    7    -18.98077    2.00000
    8    -18.17460    2.00000
    9    -17.96362    2.00000
   10    -17.07516    2.00000
   11    -16.97002    2.00000
   12    -16.48491    2.00000
   13    -15.98087    2.00000
   14    -15.51000    2.00000
   15    -14.58733    2.00000
   16    -14.34679    2.00000
   17    -13.76633    2.00000
   18    -13.26446    2.00000
   19    -12.77413    2.00000
   20    -12.23209    2.00000
   21    -11.88451    2.00000
   22    -11.76810    2.00000
   23    -11.45554    2.00000
   24    -11.27102    2.00000
   25    -11.11742    2.00000
   26    -10.66378    2.00000
   27     -9.88565    2.00000
   28     -9.73317    2.00000
   29     -9.34747    2.00000
   30     -8.76431    2.00000
   31     -8.31224    2.00000
   32     -8.22822    2.00000
   33     -8.01651    2.00000
   34     -8.00649    2.00000
   35     -7.54961    2.00000
   36     -7.30826    2.00000
   37     -7.13303    2.00000
   38     -7.00267    2.00000
   39     -6.76199    2.00000
   40     -6.44681    2.00000
   41     -6.18342    2.00000
   42     -6.13955    2.00000
   43     -5.60671    1.99997
   44     -5.29388    1.99929
   45     -5.11015    1.99555
   46     -4.81064    1.91458
   47     -4.63079    1.57545
   48     -4.37793    0.45681
   49     -4.10842    0.03920
   50     -4.01124    0.01502
   51     -3.88003    0.00407
   52     -3.44710    0.00005
   53     -3.32417    0.00002
   54     -3.09241    0.00000
   55     -2.62348    0.00000
   56     -2.45115    0.00000
   57     -2.07433    0.00000
   58     -1.80982    0.00000
   59     -1.09494    0.00000
   60     -0.54650    0.00000
   61     -0.34816    0.00000
   62     -0.12914    0.00000
   63      1.12975    0.00000
   64      1.39303    0.00000
   65      1.55117    0.00000
   66      2.31999    0.00000
   67      2.69732    0.00000
   68      2.96170    0.00000
   69      3.40286    0.00000
   70      3.74213    0.00000
   71      3.86365    0.00000
   72      4.56186    0.00000
   73      5.21542    0.00000
   74      5.94031    0.00000
   75      6.10535    0.00000
   76      6.36253    0.00000
   77      6.93312    0.00000
   78      7.29013    0.00000
   79      7.58171    0.00000
   80      8.07236    0.00000
   81      8.18965    0.00000
   82      8.48277    0.00000
   83      8.60182    0.00000
   84      8.74235    0.00000
   85      8.79935    0.00000
   86      9.11248    0.00000
   87      9.19341    0.00000
   88      9.26611    0.00000
   89      9.46416    0.00000
   90      9.53914    0.00000
   91      9.57758    0.00000
   92      9.70177    0.00000
   93      9.82837    0.00000
   94      9.93015    0.00000
   95      9.97051    0.00000
   96     10.08600    0.00000
   97     10.27050    0.00000


Forces in eV/Ang:
  0 C    -1.29738   -1.56193    1.13217
  1 C    -0.81013   -2.64620    1.96838
  2 C    -1.04378    0.00211   -0.38102
  3 C    -0.83753   -0.21027    0.31703
  4 C    -0.15114    0.46855    0.30001
  5 C     0.11656   -0.41173   -0.14677
  6 C    -0.09580    0.52434    0.28371
  7 C     0.22366   -0.22074   -0.09661
  8 C    -0.28513    0.04334   -0.13357
  9 C     0.53878    3.31563   -1.27744
 10 C     0.08485    0.00598    0.03409
 11 C     0.13160    0.27664   -0.14023
 12 C     0.11581   -0.34429   -0.48369
 13 C     4.05500   -4.26692    1.98850
 14 C     0.66548    1.65639   -0.56926
 15 C    -0.12699   -0.02122   -0.15714
 16 C    -0.34536    0.11137   -0.26378
 17 C     0.18046    0.51189   -0.12073
 18 C    -2.93978    0.32022    0.21952
 19 C    -0.41676   -0.09991   -0.31179
 20 C    -0.32440    0.06123    0.05022
 21 C     2.47200    1.09710   -2.90764
 22 C     0.42752    1.61932    0.48948
 23 C    -0.36580   -0.22461    0.23779

System changes: positions 

Initializing position-dependent things.

Density initialized from wave functions
           .--------------------------------------.  
          /|                                      |  
         / |                                      |  
        /  |                                      |  
       /   |                                      |  
      /    |                                      |  
     /     |                                      |  
    /      |                                      |  
   /       |                                      |  
  /        |                 C C                  |  
 *         |  C C  C  C   C   C   C               |  
 |         | C       C    C    C C                |  
 |         .---C---C-C---C--C---------------------.  
 |        /          C    C                      /   
 |       /             C                        /    
 |      /                                      /     
 |     /                                      /      
 |    /                                      /       
 |   /                                      /        
 |  /                                      /         
 | /                                      /          
 |/                                      /           
 *--------------------------------------*            

Positions:
   0 C      6.046457   10.644673    4.645642
   1 C      4.934723   10.004649    4.850521
   2 C      8.733189   11.261287    4.783132
   3 C      7.459902   10.528662    4.569738
   4 C      8.026874    9.207330    4.637657
   5 C      9.721841   10.498197    5.019082
   6 C      9.414723    9.082426    5.023847
   7 C     11.128860    5.169534    6.335153
   8 C     11.618429    6.406986    6.207231
   9 C      9.291919    6.707136    5.214846
  10 C     11.406993    7.642177    5.800714
  11 C     10.106545    7.912198    5.339694
  12 C      9.385779    4.094411    5.082646
  13 C      9.666652    5.398237    5.319010
  14 C      3.499491    7.561869    5.748662
  15 C      5.793203    6.134106    5.449922
  16 C      8.300746    3.401496    5.167056
  17 C      4.467932    5.559109    5.522939
  18 C      8.078975    6.182422    5.306448
  19 C      6.175418    7.497943    5.538463
  20 C      7.034166    3.880275    5.241463
  21 C      4.105600    8.744412    5.776691
  22 C      3.339744    6.175697    5.680196
  23 C      6.966222    5.322628    5.313989

Unit cell:
           periodic     x           y           z      points  spacing
  1. axis:    yes   16.000000    0.000000    0.000000    80     0.2000
  2. axis:    yes    0.000000   16.000000    0.000000    80     0.2000
  3. axis:    yes    0.000000    0.000000   10.000000    48     0.2083

Effective grid spacing dv^(1/3) = 0.2027

                     log10-error:    total        iterations:
           time      wfs    density  energy       fermi  poisson
iter:   1  09:53:48          +inf  -168.501029    3      5      
iter:   2  09:53:49         -1.82  -168.362805    3      2      
iter:   3  09:53:49         -2.10  -168.312938    3      2      
iter:   4  09:53:50         -2.29  -168.299387    3      2      
iter:   5  09:53:50         -2.51  -168.295552    2      1      
iter:   6  09:53:51         -2.60  -168.295041    2      2      
iter:   7  09:53:52         -2.78  -168.295466    2      2      
iter:   8  09:53:52         -2.93  -168.294358    2      2      
iter:   9  09:53:53         -3.14  -168.294761    2      1      
iter:  10  09:53:53         -3.27  -168.293694    2      1      
iter:  11  09:53:54         -3.42  -168.293929    2      1      
iter:  12  09:53:54         -3.58  -168.294600    2      1      
iter:  13  09:53:55         -3.74  -168.294423    2      1      
iter:  14  09:53:55         -3.88  -168.294769    2      1      
iter:  15  09:53:56         -4.00  -168.294857    2      1      
iter:  16  09:53:56         -4.19  -168.294745    2      1      

Converged after 16 iterations.

Dipole moment: (-0.021914, 0.117717, -0.177931) |e|*Ang

Energy contributions relative to reference atoms: (reference = -24663.074771)

Kinetic:        +88.081402
Potential:      -95.854055
External:        +0.000000
XC:            -163.317193
Entropy (-ST):   -0.269843
Local:           +2.930022
--------------------------
Free energy:   -168.429667
Extrapolated:  -168.294745

Fermi level: -4.46707

 Band  Eigenvalues  Occupancy
    0    -23.84271    2.00000
    1    -22.54377    2.00000
    2    -21.72782    2.00000
    3    -21.07725    2.00000
    4    -20.43024    2.00000
    5    -20.23808    2.00000
    6    -19.50750    2.00000
    7    -19.01569    2.00000
    8    -18.18857    2.00000
    9    -17.98588    2.00000
   10    -17.08040    2.00000
   11    -17.00124    2.00000
   12    -16.42851    2.00000
   13    -15.95895    2.00000
   14    -15.48380    2.00000
   15    -14.58482    2.00000
   16    -14.31548    2.00000
   17    -13.78505    2.00000
   18    -13.22610    2.00000
   19    -12.75763    2.00000
   20    -12.21304    2.00000
   21    -11.91523    2.00000
   22    -11.76809    2.00000
   23    -11.38530    2.00000
   24    -11.29976    2.00000
   25    -11.15676    2.00000
   26    -10.69173    2.00000
   27     -9.89348    2.00000
   28     -9.74718    2.00000
   29     -9.33770    2.00000
   30     -8.74672    2.00000
   31     -8.33367    2.00000
   32     -8.23565    2.00000
   33     -8.05299    2.00000
   34     -7.93993    2.00000
   35     -7.56515    2.00000
   36     -7.30926    2.00000
   37     -7.16634    2.00000
   38     -7.01409    2.00000
   39     -6.75176    2.00000
   40     -6.46278    2.00000
   41     -6.17508    2.00000
   42     -6.13550    2.00000
   43     -5.60122    1.99998
   44     -5.26109    1.99929
   45     -5.09406    1.99622
   46     -4.79320    1.92616
   47     -4.60267    1.59025
   48     -4.33901    0.43491
   49     -4.07149    0.03757
   50     -3.95616    0.01201
   51     -3.83388    0.00355
   52     -3.41777    0.00006
   53     -3.20328    0.00001
   54     -3.02490    0.00000
   55     -2.59650    0.00000
   56     -2.36993    0.00000
   57     -2.05916    0.00000
   58     -1.83332    0.00000
   59     -1.10288    0.00000
   60     -0.56392    0.00000
   61     -0.35959    0.00000
   62     -0.13606    0.00000
   63      1.10152    0.00000
   64      1.47798    0.00000
   65      1.63126    0.00000
   66      2.33143    0.00000
   67      2.86022    0.00000
   68      3.11312    0.00000
   69      3.38141    0.00000
   70      3.79260    0.00000
   71      3.84514    0.00000
   72      4.51467    0.00000
   73      5.16557    0.00000
   74      5.94543    0.00000
   75      6.13243    0.00000
   76      6.40451    0.00000
   77      6.99734    0.00000
   78      7.35773    0.00000
   79      7.59889    0.00000
   80      8.09637    0.00000
   81      8.22648    0.00000
   82      8.52022    0.00000
   83      8.65405    0.00000
   84      8.80181    0.00000
   85      8.82957    0.00000
   86      9.11384    0.00000
   87      9.18015    0.00000
   88      9.28432    0.00000
   89      9.48368    0.00000
   90      9.54798    0.00000
   91      9.57225    0.00000
   92      9.72289    0.00000
   93      9.83812    0.00000
   94      9.93903    0.00000
   95     10.00749    0.00000
   96     10.13078    0.00000
   97     10.28918    0.00000


Forces in eV/Ang:
  0 C    -1.39004   -1.61998    1.15463
  1 C    -0.60868   -2.69082    2.11010
  2 C    -1.74906    0.44737   -0.51766
  3 C    -0.88863   -0.16788    0.28743
  4 C    -0.20625    0.36955    0.31284
  5 C     0.71935   -0.74954    0.02169
  6 C    -0.06037    0.53183    0.24024
  7 C    -0.02390   -0.08024   -0.29026
  8 C    -0.38687    0.09394   -0.19709
  9 C     0.20491    1.67617   -1.04478
 10 C     0.15026    0.06337    0.09262
 11 C     0.04260   -0.05541   -0.20090
 12 C    -0.09110   -0.30392   -0.41209
 13 C     4.14134   -3.21124    2.08873
 14 C     0.76005    1.65461   -0.55936
 15 C    -0.06955   -0.09359   -0.15755
 16 C    -0.13881    0.17353   -0.32497
 17 C     0.07449    0.35432   -0.12580
 18 C    -2.30972    0.87018    0.14569
 19 C    -0.18603   -0.02173   -0.30668
 20 C    -0.42351    0.01679    0.06727
 21 C     2.38568    1.05758   -3.05178
 22 C     0.29109    1.87458    0.49071
 23 C    -0.26705   -0.21891    0.22069

System changes: positions 

Initializing position-dependent things.

Density initialized from wave functions
           .--------------------------------------.  
          /|                                      |  
         / |                                      |  
        /  |                                      |  
       /   |                                      |  
      /    |                                      |  
     /     |                                      |  
    /      |                                      |  
   /       |                                      |  
  /        |                 C C                  |  
 *         |  C  C C  C   C   C   C               |  
 |         | C       C    C    C C                |  
 |         .---C---C-C---C--C---------------------.  
 |        /          C    C                      /   
 |       /             C                        /    
 |      /                                      /     
 |     /                                      /      
 |    /                                      /       
 |   /                                      /        
 |  /                                      /         
 | /                                      /          
 |/                                      /           
 *--------------------------------------*            

Positions:
   0 C      6.033774   10.629644    4.656380
   1 C      4.927355    9.980181    4.868761
   2 C      8.731249   11.256109    4.781403
   3 C      7.451208   10.526934    4.572628
   4 C      8.026765    9.212455    4.640329
   5 C      9.715960   10.499978    5.015504
   6 C      9.413593    9.085847    5.027176
   7 C     11.131424    5.166917    6.334213
   8 C     11.616335    6.407749    6.206199
   9 C      9.290266    6.708497    5.200688
  10 C     11.407607    7.642280    5.801036
  11 C     10.108241    7.916783    5.338375
  12 C      9.385409    4.089022    5.078127
  13 C      9.697874    5.384581    5.339956
  14 C      3.505455    7.577871    5.743183
  15 C      5.791196    6.134196    5.448746
  16 C      8.297455    3.402972    5.164746
  17 C      4.467795    5.566164    5.522101
  18 C      8.065844    6.190094    5.307940
  19 C      6.170722    7.495690    5.535491
  20 C      7.032198    3.880474    5.241627
  21 C      4.128568    8.754933    5.749950
  22 C      3.347190    6.188201    5.684219
  23 C      6.960719    5.319965    5.316291

Unit cell:
           periodic     x           y           z      points  spacing
  1. axis:    yes   16.000000    0.000000    0.000000    80     0.2000
  2. axis:    yes    0.000000   16.000000    0.000000    80     0.2000
  3. axis:    yes    0.000000    0.000000   10.000000    48     0.2083

Effective grid spacing dv^(1/3) = 0.2027

                     log10-error:    total        iterations:
           time      wfs    density  energy       fermi  poisson
iter:   1  09:53:58          +inf  -169.148808    3      5      
iter:   2  09:53:59         -1.85  -169.024113    3      2      
iter:   3  09:53:59         -2.12  -168.974044    3      2      
iter:   4  09:54:00         -2.31  -168.961522    3      2      
iter:   5  09:54:00         -2.54  -168.958061    2      1      
iter:   6  09:54:01         -2.62  -168.957867    2      2      
iter:   7  09:54:01         -2.80  -168.958282    2      2      
iter:   8  09:54:02         -2.96  -168.957452    2      2      
iter:   9  09:54:02         -3.15  -168.957497    2      1      
iter:  10  09:54:03         -3.27  -168.956646    2      1      
iter:  11  09:54:03         -3.44  -168.957060    2      1      
iter:  12  09:54:04         -3.56  -168.957738    2      1      
iter:  13  09:54:05         -3.74  -168.957603    2      1      
iter:  14  09:54:05         -3.87  -168.957817    2      1      
iter:  15  09:54:06         -3.97  -168.957995    2      1      
iter:  16  09:54:06         -4.17  -168.957735    2      1      

Converged after 16 iterations.

Dipole moment: (-0.068386, 0.141831, -0.177659) |e|*Ang

Energy contributions relative to reference atoms: (reference = -24663.074771)

Kinetic:        +86.570351
Potential:      -94.892503
External:        +0.000000
XC:            -163.440293
Entropy (-ST):   -0.259956
Local:           +2.934688
--------------------------
Free energy:   -169.087713
Extrapolated:  -168.957735

Fermi level: -4.43885

 Band  Eigenvalues  Occupancy
    0    -23.55700    2.00000
    1    -22.56181    2.00000
    2    -21.70890    2.00000
    3    -21.05269    2.00000
    4    -20.30260    2.00000
    5    -20.23505    2.00000
    6    -19.51084    2.00000
    7    -19.05476    2.00000
    8    -18.20847    2.00000
    9    -18.00226    2.00000
   10    -17.08825    2.00000
   11    -17.02567    2.00000
   12    -16.37206    2.00000
   13    -15.94550    2.00000
   14    -15.46245    2.00000
   15    -14.58919    2.00000
   16    -14.29005    2.00000
   17    -13.81701    2.00000
   18    -13.18739    2.00000
   19    -12.74284    2.00000
   20    -12.21274    2.00000
   21    -11.96258    2.00000
   22    -11.78664    2.00000
   23    -11.42167    2.00000
   24    -11.28631    2.00000
   25    -11.07523    2.00000
   26    -10.69174    2.00000
   27     -9.90141    2.00000
   28     -9.76754    2.00000
   29     -9.32844    2.00000
   30     -8.73078    2.00000
   31     -8.36726    2.00000
   32     -8.25645    2.00000
   33     -8.08109    2.00000
   34     -7.87690    2.00000
   35     -7.58210    2.00000
   36     -7.31565    2.00000
   37     -7.19806    2.00000
   38     -7.02414    2.00000
   39     -6.73675    2.00000
   40     -6.47968    2.00000
   41     -6.18556    2.00000
   42     -6.10795    2.00000
   43     -5.59603    1.99998
   44     -5.23883    1.99933
   45     -5.06448    1.99617
   46     -4.77987    1.93604
   47     -4.57904    1.60495
   48     -4.30471    0.41454
   49     -4.03593    0.03495
   50     -3.91592    0.01066
   51     -3.79917    0.00333
   52     -3.38994    0.00006
   53     -3.11905    0.00000
   54     -2.94015    0.00000
   55     -2.57303    0.00000
   56     -2.28711    0.00000
   57     -2.04874    0.00000
   58     -1.86377    0.00000
   59     -1.07862    0.00000
   60     -0.60619    0.00000
   61     -0.34617    0.00000
   62     -0.12620    0.00000
   63      1.07258    0.00000
   64      1.54306    0.00000
   65      1.71693    0.00000
   66      2.34511    0.00000
   67      3.07161    0.00000
   68      3.29004    0.00000
   69      3.36016    0.00000
   70      3.85601    0.00000
   71      3.87769    0.00000
   72      4.48817    0.00000
   73      5.10902    0.00000
   74      5.95417    0.00000
   75      6.17216    0.00000
   76      6.46005    0.00000
   77      7.04867    0.00000
   78      7.41135    0.00000
   79      7.61486    0.00000
   80      8.11596    0.00000
   81      8.25940    0.00000
   82      8.53771    0.00000
   83      8.69903    0.00000
   84      8.83605    0.00000
   85      8.87892    0.00000
   86      9.11389    0.00000
   87      9.16597    0.00000
   88      9.29386    0.00000
   89      9.50309    0.00000
   90      9.55440    0.00000
   91      9.57534    0.00000
   92      9.74256    0.00000
   93      9.84295    0.00000
   94      9.94186    0.00000
   95     10.04212    0.00000
   96     10.15449    0.00000
   97     10.32085    0.00000


Forces in eV/Ang:
  0 C    -1.35454   -1.62941    1.08872
  1 C    -0.47770   -2.65958    2.17725
  2 C    -2.26828    0.75299   -0.61566
  3 C    -0.93201   -0.13597    0.26135
  4 C    -0.23776    0.31043    0.31798
  5 C     1.13305   -0.97553    0.13271
  6 C    -0.04855    0.52892    0.20560
  7 C    -0.24605    0.05665   -0.48948
  8 C    -0.46320    0.13504   -0.23943
  9 C    -0.03148    0.37328   -0.80782
 10 C     0.20446    0.11479    0.14243
 11 C    -0.03784   -0.33434   -0.24332
 12 C    -0.19172   -0.20421   -0.33470
 13 C     4.21742   -2.46539    2.15553
 14 C     0.82716    1.59376   -0.55493
 15 C    -0.04057   -0.16411   -0.14929
 16 C    -0.02239    0.19344   -0.37066
 17 C     0.03825    0.19963   -0.13467
 18 C    -1.84038    1.36605    0.07304
 19 C     0.04071    0.01877   -0.31570
 20 C    -0.50983   -0.02021    0.07719
 21 C     2.24030    0.95200   -3.10309
[...]
Free energy:   -182.872310
Extrapolated:  -182.740212

Fermi level: -4.36741

 Band  Eigenvalues  Occupancy
    0    -22.99271    2.00000
    1    -22.06148    2.00000
    2    -21.64449    2.00000
    3    -20.97353    2.00000
    4    -20.46557    2.00000
    5    -19.82915    2.00000
    6    -19.60815    2.00000
    7    -19.20668    2.00000
    8    -18.64040    2.00000
    9    -18.23748    2.00000
   10    -18.00276    2.00000
   11    -17.26555    2.00000
   12    -16.47037    2.00000
   13    -16.37915    2.00000
   14    -15.22676    2.00000
   15    -15.02707    2.00000
   16    -14.59355    2.00000
   17    -13.89768    2.00000
   18    -13.27589    2.00000
   19    -13.06523    2.00000
   20    -12.72041    2.00000
   21    -12.02035    2.00000
   22    -11.62500    2.00000
   23    -11.33683    2.00000
   24    -10.80178    2.00000
   25    -10.66306    2.00000
   26    -10.23857    2.00000
   27    -10.09572    2.00000
   28     -9.67020    2.00000
   29     -9.51155    2.00000
   30     -9.38029    2.00000
   31     -9.14647    2.00000
   32     -9.12570    2.00000
   33     -8.98113    2.00000
   34     -8.46299    2.00000
   35     -7.80998    2.00000
   36     -7.46864    2.00000
   37     -7.38809    2.00000
   38     -6.95775    2.00000
   39     -6.88834    2.00000
   40     -6.80073    2.00000
   41     -6.31067    2.00000
   42     -6.18099    2.00000
   43     -6.11394    2.00000
   44     -5.55830    1.99999
   45     -5.48352    1.99997
   46     -4.82746    1.98011
   47     -4.46396    1.44844
   48     -4.26632    0.53362
   49     -3.97027    0.03700
   50     -3.59407    0.00088
   51     -3.06152    0.00000
   52     -2.69664    0.00000
   53     -1.95364    0.00000
   54     -1.74657    0.00000
   55     -1.65602    0.00000
   56     -1.54912    0.00000
   57     -1.25661    0.00000
   58     -0.97474    0.00000
   59     -0.54307    0.00000
   60      0.53298    0.00000
   61      1.89531    0.00000
   62      2.13338    0.00000
   63      2.52066    0.00000
   64      3.07950    0.00000
   65      3.48482    0.00000
   66      3.66269    0.00000
   67      4.39479    0.00000
   68      4.66321    0.00000
   69      5.16100    0.00000
   70      5.33687    0.00000
   71      5.47495    0.00000
   72      5.83955    0.00000
   73      6.04991    0.00000
   74      6.58310    0.00000
   75      6.95292    0.00000
   76      7.45845    0.00000
   77      7.57690    0.00000
   78      7.91728    0.00000
   79      8.22900    0.00000
   80      8.43430    0.00000
   81      8.59256    0.00000
   82      8.71425    0.00000
   83      8.86073    0.00000
   84      9.01110    0.00000
   85      9.14057    0.00000
   86      9.22032    0.00000
   87      9.28643    0.00000
   88      9.32129    0.00000
   89      9.38877    0.00000
   90      9.59948    0.00000
   91      9.79788    0.00000
   92      9.93231    0.00000
   93     10.19309    0.00000
   94     10.19385    0.00000
   95     10.25815    0.00000
   96     10.38283    0.00000
   97     10.38675    0.00000


Forces in eV/Ang:
  0 C    -0.07653   -0.00406    0.02031
  1 C    -0.11828   -0.06941    0.01187
  2 C     0.01917    0.01500   -0.01137
  3 C     0.01881    0.03478    0.02441
  4 C     0.09059   -0.03365   -0.01699
  5 C     0.01448    0.05633   -0.01689
  6 C    -0.02261   -0.10552    0.01779
  7 C    -0.01098    0.05276    0.00216
  8 C    -0.06372    0.02327    0.00094
  9 C    -0.01854    0.12974    0.00266
 10 C     0.02785   -0.05027    0.01842
 11 C     0.02802    0.02521   -0.06509
 12 C     0.01381   -0.01113    0.00957
 13 C     0.00983   -0.07588    0.00003
 14 C     0.02836    0.05192    0.01439
 15 C    -0.05514    0.01510   -0.01323
 16 C     0.05617    0.00558    0.02721
 17 C     0.03964    0.02747   -0.01091
 18 C     0.02892   -0.00204    0.04837
 19 C     0.00325   -0.04458   -0.03073
 20 C    -0.08401   -0.01652   -0.01153
 21 C     0.08548    0.02991    0.01706
 22 C    -0.00741   -0.01201   -0.01132
 23 C     0.01392   -0.00092    0.00576

System changes: positions 

Initializing position-dependent things.

Density initialized from wave functions
           .--------------------------------------.  
          /|                                      |  
         / |                                      |  
        /  |                                      |  
       /   |                                      |  
      /    |                                      |  
     /     |                                      |  
    /      |                                      |  
   /       |                                      |  
  /        |                                      |  
 *         |   C  C   C  C  C C                   |  
 |         | CC        C C   CC   C               |  
 |         .----C---CC---C--CC---CC---------------.  
 |        /          C  C  C                     /   
 |       /                                      /    
 |      /                                      /     
 |     /                                      /      
 |    /                                      /       
 |   /                                      /        
 |  /                                      /         
 | /                                      /          
 |/                                      /           
 *--------------------------------------*            

Positions:
   0 C      5.840018   10.202594    4.704655
   1 C      4.567101   10.183819    4.661487
   2 C      8.383226   10.652598    4.669991
   3 C      7.166773    9.864430    4.786817
   4 C      7.665746    8.453310    5.000374
   5 C      9.434360    9.929013    4.787967
   6 C      9.158283    8.535545    4.982326
   7 C     11.800013    5.111109    5.342120
   8 C     11.982408    6.399036    5.181496
   9 C      9.499625    6.082395    5.279004
  10 C     11.498977    7.623521    5.050333
  11 C     10.056725    7.437005    5.103276
  12 C      9.700934    3.628014    5.572628
  13 C     10.374549    4.867183    5.403138
  14 C      2.987442    8.287995    4.906697
  15 C      6.014350    6.204496    5.300845
  16 C      8.418695    3.469518    5.615017
  17 C      4.666822    6.406193    5.254488
  18 C      8.096528    6.040165    5.311324
  19 C      7.156671    7.163924    5.171766
  20 C      7.086277    3.675779    5.635280
  21 C      3.452335    9.473301    4.732010
  22 C      3.632060    7.136158    5.115009
  23 C      7.002516    5.081044    5.447865

Unit cell:
           periodic     x           y           z      points  spacing
  1. axis:    yes   16.000000    0.000000    0.000000    80     0.2000
  2. axis:    yes    0.000000   16.000000    0.000000    80     0.2000
  3. axis:    yes    0.000000    0.000000   10.000000    48     0.2083

Effective grid spacing dv^(1/3) = 0.2027

                     log10-error:    total        iterations:
           time      wfs    density  energy       fermi  poisson
iter:   1  10:19:28          +inf  -182.743297    3      5      
iter:   2  10:19:28         -2.56  -182.740617    2      1      
iter:   3  10:19:29         -2.71  -182.740114    2      1      
iter:   4  10:19:30         -2.93  -182.739229    2      1      
iter:   5  10:19:30         -3.17  -182.738526    2      1      
iter:   6  10:19:31         -3.32  -182.738512    2      1      
iter:   7  10:19:31         -3.38  -182.739095    2      1      
iter:   8  10:19:32         -3.58  -182.738962    2      1      
iter:   9  10:19:32         -3.73  -182.738827    2      1      
iter:  10  10:19:33         -3.86  -182.739268    2      1      
iter:  11  10:19:33         -3.95  -182.739102    2      1      
iter:  12  10:19:34         -4.15  -182.739024    2      1      

Converged after 12 iterations.

Dipole moment: (-0.696361, 0.481681, -0.066540) |e|*Ang

Energy contributions relative to reference atoms: (reference = -24663.074771)

Kinetic:       +111.920079
Potential:     -120.336936
External:        +0.000000
XC:            -177.190736
Entropy (-ST):   -0.264361
Local:           +3.000750
--------------------------
Free energy:   -182.871204
Extrapolated:  -182.739024

Fermi level: -4.37818

 Band  Eigenvalues  Occupancy
    0    -22.99121    2.00000
    1    -22.04152    2.00000
    2    -21.64899    2.00000
    3    -20.99613    2.00000
    4    -20.46488    2.00000
    5    -19.82193    2.00000
    6    -19.61748    2.00000
    7    -19.20726    2.00000
    8    -18.63913    2.00000
    9    -18.22272    2.00000
   10    -18.00422    2.00000
   11    -17.27974    2.00000
   12    -16.47086    2.00000
   13    -16.37987    2.00000
   14    -15.23424    2.00000
   15    -15.02373    2.00000
   16    -14.60120    2.00000
   17    -13.89089    2.00000
   18    -13.26098    2.00000
   19    -13.06932    2.00000
   20    -12.71411    2.00000
   21    -12.01178    2.00000
   22    -11.61646    2.00000
   23    -11.33934    2.00000
   24    -10.78701    2.00000
   25    -10.66078    2.00000
   26    -10.23861    2.00000
   27    -10.10784    2.00000
   28     -9.66139    2.00000
   29     -9.51597    2.00000
   30     -9.38762    2.00000
   31     -9.16039    2.00000
   32     -9.13441    2.00000
   33     -8.97460    2.00000
   34     -8.46288    2.00000
   35     -7.80773    2.00000
   36     -7.46493    2.00000
   37     -7.39174    2.00000
   38     -6.95500    2.00000
   39     -6.89306    2.00000
   40     -6.80214    2.00000
   41     -6.30487    2.00000
   42     -6.18045    2.00000
   43     -6.11556    2.00000
   44     -5.55179    1.99998
   45     -5.47953    1.99997
   46     -4.83848    1.98015
   47     -4.47325    1.44248
   48     -4.27939    0.54262
   49     -3.97261    0.03405
   50     -3.58692    0.00073
   51     -3.05404    0.00000
   52     -2.69238    0.00000
   53     -1.92592    0.00000
   54     -1.74587    0.00000
   55     -1.65593    0.00000
   56     -1.52276    0.00000
   57     -1.26220    0.00000
   58     -0.94984    0.00000
   59     -0.53557    0.00000
   60      0.53708    0.00000
   61      1.88416    0.00000
   62      2.13935    0.00000
   63      2.51519    0.00000
   64      3.11406    0.00000
   65      3.48306    0.00000
   66      3.64527    0.00000
   67      4.40257    0.00000
   68      4.65608    0.00000
   69      5.17465    0.00000
   70      5.32801    0.00000
   71      5.43117    0.00000
   72      5.81507    0.00000
   73      6.02724    0.00000
   74      6.58203    0.00000
   75      6.93411    0.00000
   76      7.45193    0.00000
   77      7.59399    0.00000
   78      7.90327    0.00000
   79      8.22776    0.00000
   80      8.45751    0.00000
   81      8.59893    0.00000
   82      8.70877    0.00000
   83      8.86102    0.00000
   84      9.00241    0.00000
   85      9.12313    0.00000
   86      9.20400    0.00000
   87      9.29121    0.00000
   88      9.32694    0.00000
   89      9.38689    0.00000
   90      9.59078    0.00000
   91      9.80342    0.00000
   92      9.91947    0.00000
   93     10.18850    0.00000
   94     10.19739    0.00000
   95     10.25429    0.00000
   96     10.38428    0.00000
   97     10.39171    0.00000


Forces in eV/Ang:
  0 C     0.22397   -0.02282   -0.01125
  1 C     0.12751    0.12762    0.00857
  2 C     0.05602   -0.05575    0.02323
  3 C    -0.13141   -0.05428   -0.00031
  4 C    -0.12751   -0.03933   -0.03670
  5 C    -0.09009   -0.07979    0.00463
  6 C     0.09619    0.18845   -0.03479
  7 C    -0.02500   -0.00983    0.01063
  8 C     0.04962   -0.03273   -0.00192
  9 C     0.05654   -0.09973   -0.00987
 10 C    -0.02061    0.02941   -0.00339
 11 C    -0.02632    0.04506    0.01904
 12 C     0.02243   -0.00841   -0.01042
 13 C     0.01227    0.06070    0.01633
 14 C    -0.03450   -0.13677    0.03412
 15 C     0.07222   -0.04817    0.01330
 16 C    -0.11381    0.02626    0.03421
 17 C    -0.11098    0.01513   -0.02318
 18 C    -0.02014   -0.00419    0.00204
 19 C     0.05205    0.12110    0.00277
 20 C     0.04532   -0.01754   -0.02119
 21 C    -0.14531    0.01211    0.01347
 22 C    -0.00518   -0.00689   -0.01104
 23 C    -0.00108   -0.00043   -0.00218

System changes: positions 

Initializing position-dependent things.

Density initialized from wave functions
           .--------------------------------------.  
          /|                                      |  
         / |                                      |  
        /  |                                      |  
       /   |                                      |  
      /    |                                      |  
     /     |                                      |  
    /      |                                      |  
   /       |                                      |  
  /        |                                      |  
 *         |   C   C  C  C  C C                   |  
 |         | CC        C C   CC   C               |  
 |         .----C---CC---C--CC---CC---------------.  
 |        /          C  C  C                     /   
 |       /                                      /    
 |      /                                      /     
 |     /                                      /      
 |    /                                      /       
 |   /                                      /        
 |  /                                      /         
 | /                                      /          
 |/                                      /           
 *--------------------------------------*            

Positions:
   0 C      5.845559   10.200466    4.692844
   1 C      4.571675   10.180735    4.657591
   2 C      8.385241   10.649667    4.660461
   3 C      7.168617    9.859991    4.774223
   4 C      7.665108    8.451221    4.991007
   5 C      9.435229    9.924971    4.778218
   6 C      9.160730    8.535773    4.974009
   7 C     11.800996    5.108547    5.343198
   8 C     11.985390    6.396024    5.180474
   9 C      9.500400    6.078773    5.277858
  10 C     11.499205    7.619818    5.045835
  11 C     10.056582    7.435461    5.102261
  12 C      9.701391    3.626037    5.569670
  13 C     10.374948    4.866626    5.403511
  14 C      2.986778    8.283723    4.912047
  15 C      6.014443    6.203361    5.302518
  16 C      8.418039    3.469673    5.611555
  17 C      4.664396    6.401180    5.257773
  18 C      8.096512    6.039501    5.309670
  19 C      7.156822    7.164778    5.170795
  20 C      7.087566    3.675466    5.628731
  21 C      3.452831    9.469923    4.733607
  22 C      3.629479    7.131109    5.120482
  23 C      7.002796    5.080962    5.446294

Unit cell:
           periodic     x           y           z      points  spacing
  1. axis:    yes   16.000000    0.000000    0.000000    80     0.2000
  2. axis:    yes    0.000000   16.000000    0.000000    80     0.2000
  3. axis:    yes    0.000000    0.000000   10.000000    48     0.2083

Effective grid spacing dv^(1/3) = 0.2027

                     log10-error:    total        iterations:
           time      wfs    density  energy       fermi  poisson
iter:   1  10:19:35          +inf  -182.745152    3      5      
iter:   2  10:19:36         -2.82  -182.743863    2      1      
iter:   3  10:19:37         -2.95  -182.741475    2      1      
iter:   4  10:19:37         -3.22  -182.742088    2      1      
iter:   5  10:19:38         -3.43  -182.741385    2      1      
iter:   6  10:19:38         -3.47  -182.741732    2      1      
iter:   7  10:19:39         -3.71  -182.742491    2      1      
iter:   8  10:19:39         -3.66  -182.741667    2      1      
iter:   9  10:19:40         -4.11  -182.741539    2      1      

Converged after 9 iterations.

Dipole moment: (-0.698376, 0.484576, -0.064899) |e|*Ang

Energy contributions relative to reference atoms: (reference = -24663.074771)

Kinetic:       +111.708466
Potential:     -120.160904
External:        +0.000000
XC:            -177.147119
Entropy (-ST):   -0.264477
Local:           +2.990257
--------------------------
Free energy:   -182.873778
Extrapolated:  -182.741539

Fermi level: -4.37244

 Band  Eigenvalues  Occupancy
    0    -22.99009    2.00000
    1    -22.05060    2.00000
    2    -21.64612    2.00000
    3    -20.98292    2.00000
    4    -20.46510    2.00000
    5    -19.82568    2.00000
    6    -19.61202    2.00000
    7    -19.20785    2.00000
    8    -18.63968    2.00000
    9    -18.23051    2.00000
   10    -18.00371    2.00000
   11    -17.27227    2.00000
   12    -16.47032    2.00000
   13    -16.38014    2.00000
   14    -15.22944    2.00000
   15    -15.02532    2.00000
   16    -14.59646    2.00000
   17    -13.89398    2.00000
   18    -13.26982    2.00000
   19    -13.06590    2.00000
   20    -12.71756    2.00000
   21    -12.01563    2.00000
   22    -11.62045    2.00000
   23    -11.33699    2.00000
   24    -10.79690    2.00000
   25    -10.66113    2.00000
   26    -10.23759    2.00000
   27    -10.10200    2.00000
   28     -9.66518    2.00000
   29     -9.51309    2.00000
   30     -9.38332    2.00000
   31     -9.15209    2.00000
   32     -9.12925    2.00000
   33     -8.97795    2.00000
   34     -8.46290    2.00000
   35     -7.80865    2.00000
   36     -7.46598    2.00000
   37     -7.39027    2.00000
   38     -6.95718    2.00000
   39     -6.88986    2.00000
   40     -6.80174    2.00000
   41     -6.30754    2.00000
   42     -6.18138    2.00000
   43     -6.11473    2.00000
   44     -5.55518    1.99999
   45     -5.48271    1.99997
   46     -4.83255    1.98012
   47     -4.46818    1.44523
   48     -4.27244    0.53789
   49     -3.97249    0.03599
   50     -3.59062    0.00080
   51     -3.06205    0.00000
   52     -2.69506    0.00000
   53     -1.93803    0.00000
   54     -1.74534    0.00000
   55     -1.65646    0.00000
   56     -1.53789    0.00000
   57     -1.26087    0.00000
   58     -0.96358    0.00000
   59     -0.54051    0.00000
   60      0.53386    0.00000
   61      1.89163    0.00000
   62      2.13598    0.00000
   63      2.51804    0.00000
   64      3.09514    0.00000
   65      3.48244    0.00000
   66      3.65345    0.00000
   67      4.39848    0.00000
   68      4.65371    0.00000
   69      5.16551    0.00000
   70      5.33238    0.00000
   71      5.45459    0.00000
   72      5.82492    0.00000
   73      6.04340    0.00000
   74      6.58320    0.00000
   75      6.94428    0.00000
   76      7.45706    0.00000
   77      7.58248    0.00000
   78      7.90916    0.00000
   79      8.22828    0.00000
   80      8.44297    0.00000
   81      8.59530    0.00000
   82      8.71102    0.00000
   83      8.86105    0.00000
   84      9.00616    0.00000
   85      9.13055    0.00000
   86      9.21021    0.00000
   87      9.28587    0.00000
   88      9.32261    0.00000
   89      9.38817    0.00000
   90      9.59399    0.00000
   91      9.80038    0.00000
   92      9.92514    0.00000
   93     10.19092    0.00000
   94     10.19268    0.00000
   95     10.25723    0.00000
   96     10.38344    0.00000
   97     10.38914    0.00000


Forces in eV/Ang:
  0 C     0.00400   -0.00252   -0.02034
  1 C    -0.00193    0.00439    0.01735
  2 C     0.02143   -0.02509    0.01849
  3 C    -0.00702   -0.01010    0.01218
  4 C    -0.00043   -0.01885   -0.03213
  5 C    -0.03184   -0.01159   -0.01241
  6 C     0.00842    0.00321   -0.01070
  7 C    -0.01075   -0.00266    0.00627
  8 C    -0.00079    0.00265   -0.00159
  9 C     0.01500    0.03255   -0.00135
 10 C    -0.00170    0.00266   -0.00367
 11 C     0.01078    0.01568   -0.02135
 12 C     0.01114   -0.01483   -0.00346
 13 C     0.01043   -0.01166    0.01478
 14 C     0.00648   -0.00391    0.02138
 15 C     0.00474   -0.01983   -0.00014
 16 C    -0.01052    0.01211    0.02458
 17 C    -0.01562    0.00831   -0.01422
 18 C    -0.00046   -0.00578    0.02526
 19 C     0.02652    0.02567   -0.00870
 20 C    -0.02158   -0.02833   -0.02764
 21 C     0.00451    0.02440    0.01568
 22 C    -0.00837   -0.00610   -0.00985
 23 C     0.00584    0.01619    0.00103

