
  ___ ___ ___ _ _ _  
 |   |   |_  | | | | 
 | | | | | . | | | | 
 |__ |  _|___|_____|  1.3.0b1
 |___|_|             

User:   esb@s65n21.grendel.cscaa.dk
Date:   Thu Nov  9 09:19:02 2017
Arch:   x86_64
Pid:    1820
Python: 2.7.13
gpaw:   /home/esb/DFT/gpaw_git/gpaw
_gpaw:  /home/esb/DFT/gpaw_git/build/bin.linux-x86_64-2.7/gpaw-python
ase:    /home/esb/DFT/ase_git/ase (version 3.15.0b1)
numpy:  /comm/swstack/core/python/2.7.13/lib/python2.7/site-packages/numpy (version 1.13.3)
scipy:  /comm/swstack/core/python/2.7.13/lib/python2.7/site-packages/scipy (version 0.19.1)
units:  Angstrom and eV
cores:  16
Extra parameters: {'blacs': True}

Input parameters:
  basis: dzp
  gpts: [80 80 48]
  kpts: [1 1 1]
  maxiter: 99
  mixer: {backend: pulay,
          beta: 0.05,
          method: separate,
          nmaxold: 5,
          weight: 75}
  mode: lcao
  nbands: -50
  occupations: {name: fermi-dirac,
                width: 0.1}
  poissonsolver: {eps: 1e-07,
                  name: fd,
                  nn: 3,
                  relax: GS}
  xc: PBE

System changes: positions, numbers, cell, pbc, initial_charges, initial_magmoms 

Initialize ...

C-setup:
  name: Carbon
  id: 4aa54d4b901d75f77cc0ea3eec22967b
  Z: 6
  valence: 4
  core: 2
  charge: 0.0
  file: /home/esb/DFT/gpaw-setups-0.8.7929/C.PBE.gz
  cutoffs: 0.64(comp), 1.14(filt), 1.14(core), lmax=2
  valence states:
                energy  radius
    2s(2.00)   -13.751   0.635
    2p(2.00)    -5.284   0.635
    *s          13.461   0.635
    *p          21.927   0.635
    *d           0.000   0.635

  LCAO basis set for C:
    Name: dzp
    File: /home/esb/DFT/gpaw-setups-0.8.7929/C.dzp.basis.gz
    Number of radial functions: 5
    Number of spherical harmonics: 13
      l=0, rc=5.5469 Bohr: 2s-sz confined orbital
      l=1, rc=6.6719 Bohr: 2p-sz confined orbital
      l=0, rc=3.0312 Bohr: 2s-dz split-valence wave
      l=1, rc=3.7500 Bohr: 2p-dz split-valence wave
      l=2, rc=6.6719 Bohr: d-type Gaussian polarization

Reference energy: -24663.074771

Spin-paired calculation

Occupation numbers:
  Fermi-Dirac: width=0.1000 eV

Convergence criteria:
  Maximum total energy change: 0.0005 eV / electron
  Maximum integral of absolute density change: 0.0001 electrons
  Maximum integral of absolute eigenstate change: 4e-08 eV^2
  Maximum number of iterations: 99

Symmetries present (total): 1

  ( 1  0  0)
  ( 0  1  0)
  ( 0  0  1)

1 k-point (Gamma)
1 k-point in the irreducible part of the Brillouin zone
       k-points in crystal coordinates                weights
   0:     0.00000000    0.00000000    0.00000000          1/1

Wave functions: LCAO
  Diagonalizer: Serial LAPACK
  Atomic Correction: dense with blas
  Datatype: float
  Eigensolver: None 

LCAO using direct dense diagonalizer 

Densities:
  Coarse grid: 80*80*48 grid
  Fine grid: 160*160*96 grid
  Total Charge: 0.000000 

Density mixing:
  Method: separate
  Backend: pulay
  Linear mixing parameter: 0.05
  Mixing with 5 old densities
  Damping of long wave oscillations: 75 

Hamiltonian:
  XC and Coulomb potentials evaluated on a 160*160*96 grid
  Using the PBE Exchange-Correlation functional
  Interpolation: tri-quintic (5. degree polynomial)
  Poisson solver: Gauss-Seidel solver with 6 multi-grid levels
    Coarsest grid: 5 x 5 x 3 points
    Stencil: 6*3+1=19 point O(h^6) finite-difference Laplacian
    Max iterations: 1000
    Tolerance: 1.000000e-07 

Memory estimate:
  Process memory now: 77.59 MiB
  Calculator: 15.59 MiB
    Density: 6.13 MiB
      Arrays: 3.81 MiB
      Localized functions: 0.86 MiB
      Mixer: 1.46 MiB
    Hamiltonian: 5.40 MiB
      Arrays: 2.49 MiB
      XC: 0.00 MiB
      Poisson: 2.85 MiB
      vbar: 0.07 MiB
    Wavefunctions: 4.05 MiB
      C [qnM]: 0.23 MiB
      S, T [2 x qmm]: 1.49 MiB
      P [aqMi]: 0.01 MiB
      TCI: 0.00 MiB
      BasisFunctions: 2.33 MiB
      Eigensolver: 0.00 MiB

Total number of cores used: 16
Domain decomposition: 2 x 4 x 2

Number of atoms: 24
Number of atomic orbitals: 312
Number of bands in calculation: 98
Bands to converge: occupied states only
Number of valence electrons: 96

... initialized

Initializing position-dependent things.

Density initialized from atomic densities
           .--------------------------------------.  
          /|                                      |  
         / |                                      |  
        /  |                                      |  
       /   |                                      |  
      /    |                                      |  
     /     |                                      |  
    /      |             C  C                     |  
   /       |           C                          |  
  /        |    C  C    C     C  C                |  
 *         |        C              C              |  
 |         |  C    C                C             |  
 |         .-C-C--------C-------------------------.  
 |        /               C  C  C                /   
 |       /     C C  C     C                     /    
 |      /              C                       /     
 |     /                                      /      
 |    /                                      /       
 |   /                                      /        
 |  /                                      /         
 | /                                      /          
 |/                                      /           
 *--------------------------------------*            

Positions:
   0 C     10.056441    4.945694    4.619791
   1 C      9.520816    3.647699    4.424035
   2 C     11.593640    9.011697    5.452197
   3 C      7.804192    6.305257    4.965145
   4 C      9.270143    9.999101    5.652306
   5 C      7.040947    3.414764    4.491503
   6 C     12.162129    7.903492    5.201614
   7 C      8.349783    3.141796    4.391366
   8 C     10.520340    9.802169    5.624984
   9 C      8.941237    5.819386    4.811950
  10 C     11.350773    5.512892    4.693819
  11 C      3.430618    6.367236    5.224453
  12 C      4.721990    4.126056    4.903132
  13 C      4.538842    5.494375    5.231172
  14 C      5.740551    3.387568    4.956784
  15 C      3.535561    7.625926    5.527187
  16 C      3.944378    8.872441    5.859287
  17 C      5.881275    6.011394    5.643247
  18 C      5.317840    8.640212    6.091316
  19 C      6.038032    7.372145    5.963123
  20 C      8.558352    9.994768    7.241098
  21 C      7.309711   10.459733    7.004496
  22 C      6.676280    9.281223    6.551234
  23 C      7.279238    7.958209    6.384313

Unit cell:
           periodic     x           y           z      points  spacing
  1. axis:    yes   16.000000    0.000000    0.000000    80     0.2000
  2. axis:    yes    0.000000   16.000000    0.000000    80     0.2000
  3. axis:    yes    0.000000    0.000000   10.000000    48     0.2083

Effective grid spacing dv^(1/3) = 0.2027

                     log10-error:    total        iterations:
           time      wfs    density  energy       fermi  poisson
iter:   1  09:19:04          +inf  -170.637389    3      6      
iter:   2  09:19:04         -0.87  -169.201040    3      3      
iter:   3  09:19:05         -0.92  -167.319721    3      3      
iter:   4  09:19:06         -1.02  -166.431963    4      3      
iter:   5  09:19:06         -1.11  -165.806227    34     3      
iter:   6  09:19:07         -1.28  -165.633611    3      3      
iter:   7  09:19:07         -1.43  -165.692091    4      3      
iter:   8  09:19:08         -1.48  -165.564968    3      3      
iter:   9  09:19:09         -1.72  -165.532735    3      2      
iter:  10  09:19:09         -1.81  -165.507463    3      2      
iter:  11  09:19:10         -1.91  -165.490525    3      2      
iter:  12  09:19:10         -2.10  -165.481209    3      3      
iter:  13  09:19:11         -2.34  -165.480010    3      2      
iter:  14  09:19:11         -2.45  -165.478586    3      2      
iter:  15  09:19:12         -2.61  -165.478382    3      2      
iter:  16  09:19:13         -2.74  -165.477621    3      2      
iter:  17  09:19:13         -2.91  -165.493133    3      1      
iter:  18  09:19:14         -3.08  -165.485136    2      1      
iter:  19  09:19:14         -3.28  -165.472853    2      1      
iter:  20  09:19:15         -3.40  -165.472639    2      1      
iter:  21  09:19:15         -3.54  -165.473806    2      1      
iter:  22  09:19:16         -3.70  -165.469787    2      1      
iter:  23  09:19:16         -4.02  -165.472586    2      1      

Converged after 23 iterations.

Dipole moment: (-0.634344, -0.697712, -0.095356) |e|*Ang

Energy contributions relative to reference atoms: (reference = -24663.074771)

Kinetic:       +102.284259
Potential:     -110.629183
External:        +0.000000
XC:            -159.752213
Entropy (-ST):   -0.497880
Local:           +2.873491
--------------------------
Free energy:   -165.721526
Extrapolated:  -165.472586

Fermi level: -4.92975

 Band  Eigenvalues  Occupancy
    0    -22.81793    2.00000
    1    -21.67594    2.00000
    2    -21.50524    2.00000
    3    -20.72119    2.00000
    4    -20.15748    2.00000
    5    -19.95959    2.00000
    6    -19.54930    2.00000
    7    -19.22949    2.00000
    8    -18.34320    2.00000
    9    -17.83653    2.00000
   10    -17.59293    2.00000
   11    -17.44906    2.00000
   12    -16.53254    2.00000
   13    -15.20361    2.00000
   14    -14.82555    2.00000
   15    -14.48965    2.00000
   16    -14.15137    2.00000
   17    -13.91842    2.00000
   18    -13.07727    2.00000
   19    -12.96507    2.00000
   20    -12.23116    2.00000
   21    -11.91317    2.00000
   22    -10.75420    2.00000
   23    -10.58863    2.00000
   24    -10.39834    2.00000
   25     -9.88590    2.00000
   26     -9.62951    2.00000
   27     -9.39691    2.00000
   28     -9.19349    2.00000
   29     -8.61339    2.00000
   30     -8.56844    2.00000
   31     -8.27489    2.00000
   32     -8.11408    2.00000
   33     -7.92657    2.00000
   34     -7.82091    2.00000
   35     -7.50767    2.00000
   36     -7.32531    2.00000
   37     -7.25373    2.00000
   38     -6.93472    2.00000
   39     -6.57748    2.00000
   40     -6.36922    2.00000
   41     -6.20115    1.99999
   42     -5.84289    1.99978
   43     -5.63879    1.99834
   44     -5.32701    1.96305
   45     -5.29536    1.94964
   46     -5.08029    1.63676
   47     -4.99858    1.33119
   48     -4.87069    0.71300
   49     -4.79340    0.40737
   50     -4.15250    0.00084
   51     -3.83553    0.00004
   52     -3.69490    0.00001
   53     -3.01234    0.00000
   54     -2.65980    0.00000
   55     -2.42865    0.00000
   56     -2.16055    0.00000
   57     -2.09226    0.00000
   58     -1.65079    0.00000
   59     -1.61037    0.00000
   60     -0.60645    0.00000
   61     -0.33472    0.00000
   62     -0.15430    0.00000
   63      0.19819    0.00000
   64      1.34747    0.00000
   65      1.40369    0.00000
   66      1.48128    0.00000
   67      2.21996    0.00000
   68      2.67627    0.00000
   69      3.11846    0.00000
   70      3.45362    0.00000
   71      4.07824    0.00000
   72      4.49584    0.00000
   73      5.22922    0.00000
   74      5.41865    0.00000
   75      5.94506    0.00000
   76      6.06934    0.00000
   77      6.40771    0.00000
   78      6.85104    0.00000
   79      6.95179    0.00000
   80      7.14452    0.00000
   81      7.70637    0.00000
   82      8.03755    0.00000
   83      8.37080    0.00000
   84      8.51121    0.00000
   85      8.57149    0.00000
   86      8.65124    0.00000
   87      8.93023    0.00000
   88      9.13572    0.00000
   89      9.24894    0.00000
   90      9.32357    0.00000
   91      9.47014    0.00000
   92      9.48897    0.00000
   93      9.64206    0.00000
   94      9.81396    0.00000
   95      9.89339    0.00000
   96     10.02226    0.00000
   97     10.05848    0.00000


Forces in eV/Ang:
  0 C     0.50791    1.30736    0.31189
  1 C     1.49431    0.22344   -0.35117
  2 C    -0.77543    0.86767   -0.10589
  3 C    -3.04952    0.51173    1.67513
  4 C    -2.66486    0.99191    4.53533
  5 C    -0.88655   -2.12753    1.34486
  6 C     0.65172   -1.73159   -0.31985
  7 C    -3.03645    0.18782    0.14773
  8 C     2.23821   -0.99149   -0.40103
  9 C     2.03727   -0.39415   -0.14604
 10 C     0.11481   -0.57407   -0.18906
 11 C     0.54045   -0.22632    0.05392
 12 C    -2.32925    1.33284    0.51041
 13 C     0.52845   -1.17325   -0.23513
 14 C     4.43243   -1.14447   -2.10670
 15 C    -0.50361    1.05540   -0.08815
 16 C     0.24938   -0.95112   -0.13820
 17 C     0.78106    3.24953   -1.07006
 18 C     0.27955    0.73125    0.80771
 19 C    -0.78654   -0.89044    0.97800
 20 C     1.30596    1.79388   -4.38706
 21 C    -0.13106   -1.13047    0.46935
 22 C    -1.02638   -0.58743   -0.08154
 23 C    -0.03499   -0.37292   -1.21873

System changes: positions 

Initializing position-dependent things.

Density initialized from wave functions
           .--------------------------------------.  
          /|                                      |  
         / |                                      |  
        /  |                                      |  
       /   |                                      |  
      /    |                                      |  
     /     |                                      |  
    /      |             C  C                     |  
   /       |           C                          |  
  /        |    C  C    C     C  C                |  
 *         |        C              C              |  
 |         |  C    C                C             |  
 |         .-C--C-------C-------------------------.  
 |        /               C  C  C                /   
 |       /     C C  C      C                    /    
 |      /              C                       /     
 |     /                                      /      
 |    /                                      /       
 |   /                                      /        
 |  /                                      /         
 | /                                      /          
 |/                                      /           
 *--------------------------------------*            

Positions:
   0 C     10.060236    4.955464    4.622122
   1 C      9.531982    3.649369    4.421411
   2 C     11.587846    9.018181    5.451406
   3 C      7.781404    6.309081    4.977662
   4 C      9.250230   10.006513    5.686196
   5 C      7.034322    3.398866    4.501552
   6 C     12.166999    7.890552    5.199223
   7 C      8.327093    3.143199    4.392470
   8 C     10.537065    9.794760    5.621987
   9 C      8.956460    5.816441    4.810859
  10 C     11.351631    5.508603    4.692406
  11 C      3.434656    6.365545    5.224856
  12 C      4.704584    4.136015    4.906946
  13 C      4.542791    5.485608    5.229415
  14 C      5.773672    3.379016    4.941042
  15 C      3.531798    7.633813    5.526529
  16 C      3.946242    8.865334    5.858254
  17 C      5.887111    6.035676    5.635251
  18 C      5.319929    8.645677    6.097352
  19 C      6.032155    7.365492    5.970431
  20 C      8.568111   10.008172    7.208316
  21 C      7.308732   10.451286    7.008003
  22 C      6.668610    9.276834    6.550625
  23 C      7.278976    7.955422    6.375206

Unit cell:
           periodic     x           y           z      points  spacing
  1. axis:    yes   16.000000    0.000000    0.000000    80     0.2000
  2. axis:    yes    0.000000   16.000000    0.000000    80     0.2000
  3. axis:    yes    0.000000    0.000000   10.000000    48     0.2083

Effective grid spacing dv^(1/3) = 0.2027

                     log10-error:    total        iterations:
           time      wfs    density  energy       fermi  poisson
iter:   1  09:19:18          +inf  -166.628360    3      5      
iter:   2  09:19:19         -1.66  -166.411802    3      2      
iter:   3  09:19:19         -2.02  -166.382618    2      2      
iter:   4  09:19:20         -2.12  -166.360444    2      2      
iter:   5  09:19:20         -2.30  -166.357102    2      2      
iter:   6  09:19:21         -2.42  -166.354583    3      2      
iter:   7  09:19:21         -2.55  -166.354902    3      2      
iter:   8  09:19:22         -2.80  -166.352334    2      2      
iter:   9  09:19:22         -2.95  -166.353088    2      1      
iter:  10  09:19:23         -3.05  -166.352361    2      2      
iter:  11  09:19:24         -3.31  -166.351748    2      1      
iter:  12  09:19:24         -3.41  -166.351830    2      1      
iter:  13  09:19:25         -3.54  -166.351172    2      1      
iter:  14  09:19:25         -3.75  -166.351319    2      1      
iter:  15  09:19:26         -3.93  -166.351998    2      1      
iter:  16  09:19:26         -4.03  -166.352148    2      1      

Converged after 16 iterations.

Dipole moment: (-0.566580, -0.572640, -0.072676) |e|*Ang

Energy contributions relative to reference atoms: (reference = -24663.074771)

Kinetic:        +97.346890
Potential:     -107.076674
External:        +0.000000
XC:            -159.235978
Entropy (-ST):   -0.476319
Local:           +2.851773
--------------------------
Free energy:   -166.590308
Extrapolated:  -166.352148

Fermi level: -4.88762

 Band  Eigenvalues  Occupancy
    0    -22.82011    2.00000
    1    -21.61383    2.00000
    2    -21.44518    2.00000
    3    -20.68865    2.00000
    4    -20.20573    2.00000
    5    -20.00611    2.00000
    6    -19.61864    2.00000
    7    -19.09378    2.00000
    8    -18.28791    2.00000
    9    -17.81459    2.00000
   10    -17.58016    2.00000
   11    -17.43496    2.00000
   12    -16.45148    2.00000
   13    -15.29766    2.00000
   14    -15.03014    2.00000
   15    -14.42169    2.00000
   16    -14.20717    2.00000
   17    -13.97820    2.00000
   18    -13.06336    2.00000
   19    -12.92639    2.00000
   20    -12.21293    2.00000
   21    -11.93033    2.00000
   22    -10.88384    2.00000
   23    -10.63877    2.00000
   24    -10.48155    2.00000
   25     -9.85447    2.00000
   26     -9.61301    2.00000
   27     -9.39864    2.00000
   28     -9.16530    2.00000
   29     -8.67757    2.00000
   30     -8.62263    2.00000
   31     -8.34282    2.00000
   32     -8.19479    2.00000
   33     -7.88710    2.00000
   34     -7.84092    2.00000
   35     -7.51412    2.00000
   36     -7.36234    2.00000
   37     -7.14182    2.00000
   38     -6.85024    2.00000
   39     -6.51889    2.00000
   40     -6.34642    2.00000
   41     -6.24907    2.00000
   42     -5.81928    1.99982
   43     -5.62298    1.99872
   44     -5.32322    1.97467
   45     -5.26274    1.95410
   46     -5.05817    1.69253
   47     -4.94427    1.27595
   48     -4.84295    0.78029
   49     -4.72299    0.32323
   50     -4.08503    0.00065
   51     -3.79969    0.00004
   52     -3.59522    0.00000
   53     -3.01802    0.00000
   54     -2.78630    0.00000
   55     -2.50978    0.00000
   56     -2.29552    0.00000
   57     -2.08575    0.00000
   58     -1.64219    0.00000
   59     -1.54055    0.00000
   60     -0.63385    0.00000
   61     -0.45193    0.00000
   62     -0.04198    0.00000
   63      0.13246    0.00000
   64      1.22754    0.00000
   65      1.39783    0.00000
   66      1.41770    0.00000
   67      2.31402    0.00000
   68      2.69807    0.00000
   69      3.16659    0.00000
   70      3.49867    0.00000
   71      4.03326    0.00000
   72      4.63287    0.00000
   73      5.47834    0.00000
   74      5.75613    0.00000
   75      5.96404    0.00000
   76      6.22684    0.00000
   77      6.54682    0.00000
   78      6.97932    0.00000
   79      7.10328    0.00000
   80      7.24091    0.00000
   81      7.83924    0.00000
   82      8.08956    0.00000
   83      8.41240    0.00000
   84      8.52171    0.00000
   85      8.58412    0.00000
   86      8.70712    0.00000
   87      8.93416    0.00000
   88      9.18487    0.00000
   89      9.26363    0.00000
   90      9.38420    0.00000
   91      9.44916    0.00000
   92      9.49245    0.00000
   93      9.66559    0.00000
   94      9.76533    0.00000
   95      9.89464    0.00000
   96     10.04667    0.00000
   97     10.07998    0.00000


Forces in eV/Ang:
  0 C     0.64348    0.87654    0.20880
  1 C    -0.47883   -0.64619   -0.49005
  2 C     0.52169   -0.66968   -0.50622
  3 C    -0.61982   -0.43539    1.38827
  4 C    -0.03436    0.47148    4.52536
  5 C    -0.35702   -2.05698    0.85793
  6 C     0.25077   -0.66077   -0.10991
  7 C    -0.02256    0.93239    0.13233
  8 C    -0.98053    0.01585   -0.09313
  9 C    -0.89019    0.95116    0.36019
 10 C     0.35069   -0.52991   -0.19103
 11 C     0.55008    0.24791    0.14153
 12 C     0.21010   -1.10626    0.28848
 13 C     0.51943   -0.46955   -0.04856
 14 C     0.32473    0.85427   -1.45248
 15 C    -0.59663    0.04726   -0.34439
 16 C     0.34714   -0.46499    0.01272
 17 C     0.73046    2.10937   -1.33080
 18 C     0.24818    0.56078    0.84381
 19 C    -0.75069    0.25299    1.17152
 20 C     1.28148    1.90898   -4.64061
 21 C    -0.31398   -1.17008    0.60622
 22 C    -0.99414   -0.43828   -0.04951
 23 C     0.01151   -0.58003   -1.33224

System changes: positions 

Initializing position-dependent things.

Density initialized from wave functions
           .--------------------------------------.  
          /|                                      |  
         / |                                      |  
        /  |                                      |  
       /   |                                      |  
      /    |                                      |  
     /     |                                      |  
    /      |             C  C                     |  
   /       |           C                          |  
  /        |    C  C    C     C  C                |  
 *         |        C              C              |  
 |         |  C    C                C             |  
 |         .-C--C-------C-------------------------.  
 |        /               C  C  C                /   
 |       /     C C  C      C                    /    
 |      /              C                       /     
 |     /                                      /      
 |    /                                      /       
 |   /                                      /        
 |  /                                      /         
 | /                                      /          
 |/                                      /           
 *--------------------------------------*            

Positions:
   0 C     10.064994    4.963215    4.623969
   1 C      9.532306    3.646105    4.417861
   2 C     11.589253    9.016112    5.448269
   3 C      7.771536    6.307627    4.989122
   4 C      9.244531   10.011279    5.721643
   5 C      7.030434    3.382617    4.509274
   6 C     12.169790    7.883169    5.197930
   7 C      8.320695    3.148962    4.393537
   8 C     10.536033    9.792805    5.620622
   9 C      8.955535    5.821110    4.812634
  10 C     11.353890    5.504363    4.690915
  11 C      3.438943    6.366506    5.225783
  12 C      4.700987    4.132390    4.909662
  13 C      4.546876    5.480479    5.228649
  14 C      5.784694    3.381578    4.928321
  15 C      3.527319    7.636264    5.524362
  16 C      3.948757    8.860690    5.858042
  17 C      5.892934    6.054543    5.625371
  18 C      5.321937    8.650419    6.103883
  19 C      6.026204    7.365112    5.979203
  20 C      8.578194   10.022879    7.172510
  21 C      7.306651   10.442207    7.012466
  22 C      6.660761    9.273095    6.550171
  23 C      7.278970    7.951309    6.365011

Unit cell:
           periodic     x           y           z      points  spacing
  1. axis:    yes   16.000000    0.000000    0.000000    80     0.2000
  2. axis:    yes    0.000000   16.000000    0.000000    80     0.2000
  3. axis:    yes    0.000000    0.000000   10.000000    48     0.2083

Effective grid spacing dv^(1/3) = 0.2027

                     log10-error:    total        iterations:
           time      wfs    density  energy       fermi  poisson
iter:   1  09:19:28          +inf  -167.227442    3      5      
iter:   2  09:19:29         -1.71  -167.013853    3      2      
iter:   3  09:19:29         -2.09  -166.985720    2      2      
iter:   4  09:19:30         -2.26  -166.969777    2      2      
iter:   5  09:19:30         -2.45  -166.968380    2      2      
iter:   6  09:19:31         -2.63  -166.962147    2      1      
iter:   7  09:19:31         -2.72  -166.966106    2      2      
iter:   8  09:19:32         -2.85  -166.965656    2      2      
iter:   9  09:19:32         -3.14  -166.962025    2      1      
iter:  10  09:19:33         -3.28  -166.963852    2      1      
iter:  11  09:19:33         -3.53  -166.966291    2      1      
iter:  12  09:19:34         -3.59  -166.966093    2      1      
iter:  13  09:19:35         -3.76  -166.965714    2      1      
iter:  14  09:19:35         -3.82  -166.966535    2      1      
iter:  15  09:19:36         -4.08  -166.966890    2      1      

Converged after 15 iterations.

Dipole moment: (-0.554350, -0.500648, -0.053352) |e|*Ang

Energy contributions relative to reference atoms: (reference = -24663.074771)

Kinetic:        +97.819779
Potential:     -107.538655
External:        +0.000000
XC:            -159.891198
Entropy (-ST):   -0.465484
Local:           +2.875926
--------------------------
Free energy:   -167.199632
Extrapolated:  -166.966890

Fermi level: -4.86246

 Band  Eigenvalues  Occupancy
    0    -22.84709    2.00000
    1    -21.55898    2.00000
    2    -21.38334    2.00000
    3    -20.69116    2.00000
    4    -20.26144    2.00000
    5    -20.01399    2.00000
    6    -19.61526    2.00000
    7    -19.06418    2.00000
    8    -18.31105    2.00000
    9    -17.82261    2.00000
   10    -17.59850    2.00000
   11    -17.45361    2.00000
   12    -16.42835    2.00000
   13    -15.34747    2.00000
   14    -15.13129    2.00000
   15    -14.39142    2.00000
   16    -14.21382    2.00000
   17    -14.00048    2.00000
   18    -13.02604    2.00000
   19    -12.89110    2.00000
   20    -12.20379    2.00000
   21    -11.96916    2.00000
   22    -11.04175    2.00000
   23    -10.70707    2.00000
   24    -10.51764    2.00000
   25     -9.83202    2.00000
   26     -9.60136    2.00000
   27     -9.41453    2.00000
   28     -9.15317    2.00000
   29     -8.75802    2.00000
   30     -8.64274    2.00000
   31     -8.37151    2.00000
   32     -8.24801    2.00000
   33     -7.86734    2.00000
   34     -7.85443    2.00000
   35     -7.53267    2.00000
   36     -7.36165    2.00000
   37     -7.11693    2.00000
   38     -6.84315    2.00000
   39     -6.52522    2.00000
   40     -6.35541    2.00000
   41     -6.29523    2.00000
   42     -5.79603    1.99982
   43     -5.61845    1.99896
   44     -5.32941    1.98142
   45     -5.23285    1.95193
   46     -5.04990    1.73393
   47     -4.90868    1.22705
   48     -4.82414    0.81072
   49     -4.68726    0.29560
   50     -4.03960    0.00053
   51     -3.77707    0.00004
   52     -3.51734    0.00000
   53     -2.96135    0.00000
   54     -2.77240    0.00000
   55     -2.57152    0.00000
   56     -2.31814    0.00000
   57     -2.05438    0.00000
   58     -1.63212    0.00000
   59     -1.47078    0.00000
   60     -0.58693    0.00000
   61     -0.39626    0.00000
   62      0.05594    0.00000
   63      0.20259    0.00000
   64      1.22884    0.00000
   65      1.36578    0.00000
   66      1.52178    0.00000
   67      2.38335    0.00000
   68      2.71322    0.00000
   69      3.21888    0.00000
   70      3.59492    0.00000
   71      4.02099    0.00000
   72      4.76813    0.00000
   73      5.54555    0.00000
   74      5.93879    0.00000
   75      6.20068    0.00000
   76      6.44008    0.00000
   77      6.65846    0.00000
   78      7.05976    0.00000
   79      7.14786    0.00000
   80      7.32529    0.00000
   81      7.91105    0.00000
   82      8.12956    0.00000
   83      8.43589    0.00000
   84      8.52314    0.00000
   85      8.59243    0.00000
   86      8.72478    0.00000
   87      8.88202    0.00000
   88      9.19470    0.00000
   89      9.27912    0.00000
   90      9.41177    0.00000
   91      9.44642    0.00000
   92      9.51212    0.00000
   93      9.66472    0.00000
   94      9.77299    0.00000
   95      9.88001    0.00000
   96     10.07198    0.00000
   97     10.11416    0.00000


Forces in eV/Ang:
  0 C     0.25280    0.63808    0.16472
  1 C    -0.60421   -0.44672   -0.45478
  2 C     0.43763   -0.66493   -0.54758
  3 C    -0.27410   -0.55767    1.37184
  4 C     0.76769    0.33375    4.50767
  5 C     0.13080   -1.97896    0.53339
  6 C     0.12318   -0.40083   -0.07201
  7 C     0.61107    0.94403    0.12748
  8 C    -1.22556   -0.10399   -0.12502
  9 C    -1.21379    0.99420    0.42506
 10 C     0.50277   -0.49867   -0.18228
 11 C     0.60165    0.21605    0.12676
 12 C     0.47128   -1.29419    0.24338
 13 C     0.54325   -0.24616   -0.01077
 14 C    -0.75925    1.09026   -1.09211
 15 C    -0.57485   -0.17905   -0.36286
 16 C     0.35097   -0.28322    0.06128
 17 C     0.67018    1.30967   -1.52282
 18 C     0.08406    0.45616    0.83979
 19 C    -0.69772    0.81438    1.22248
 20 C     1.10297    1.93788   -4.74057
 21 C    -0.50293   -1.19042    0.69227
 22 C    -0.82524   -0.28474    0.03649
 23 C     0.03635   -0.59851   -1.29106

System changes: positions 

Initializing position-dependent things.

Density initialized from wave functions
           .--------------------------------------.  
          /|                                      |  
         / |                                      |  
        /  |                                      |  
       /   |                                      |  
      /    |                                      |  
     /     |                                      |  
    /      |             C  C                     |  
   /       |           C                          |  
  /        |    C  C    C     C  C                |  
 *         |        C              C              |  
 |         |  C    C                C             |  
 |         .-C--C-------C-------------------------.  
 |        /               C  C  C                /   
 |       /     C C  C      C                    /    
 |      /              C                       /     
 |     /                                      /      
 |    /                                      /       
 |   /                                      /        
 |  /                                      /         
 | /                                      /          
 |/                                      /           
 *--------------------------------------*            

Positions:
   0 C     10.066496    4.969324    4.625528
   1 C      9.533080    3.645100    4.414720
   2 C     11.589022    9.015227    5.445119
   3 C      7.762710    6.305904    5.000584
   4 C      9.243345   10.015293    5.756712
   5 C      7.030083    3.367052    4.514706
   6 C     12.171836    7.877126    5.196793
   7 C      8.317186    3.154229    4.394570
   8 C     10.535421    9.789163    5.618785
   9 C      8.954185    5.825100    4.814542
  10 C     11.357175    5.500370    4.689505
  11 C      3.443605    6.366858    5.226521
  12 C      4.697632    4.129084    4.912163
  13 C      4.551130    5.476654    5.228054
  14 C      5.790000    3.384536    4.918086
  15 C      3.523114    7.637631    5.522250
  16 C      3.951214    8.857173    5.858108
  17 C      5.898272    6.067726    5.614217
  18 C      5.322641    8.654417    6.110311
  19 C      6.020691    7.368380    5.988179
  20 C      8.586798   10.037631    7.136339
  21 C      7.303209   10.433058    7.017486
  22 C      6.654293    9.270499    6.550384
  23 C      7.279129    7.947229    6.355299

Unit cell:
           periodic     x           y           z      points  spacing
  1. axis:    yes   16.000000    0.000000    0.000000    80     0.2000
  2. axis:    yes    0.000000   16.000000    0.000000    80     0.2000
  3. axis:    yes    0.000000    0.000000   10.000000    48     0.2083

Effective grid spacing dv^(1/3) = 0.2027

                     log10-error:    total        iterations:
           time      wfs    density  energy       fermi  poisson
iter:   1  09:19:37          +inf  -167.839809    3      5      
iter:   2  09:19:38         -1.69  -167.566387    2      2      
iter:   3  09:19:39         -2.13  -167.541601    2      2      
iter:   4  09:19:39         -2.31  -167.527570    2      2      
iter:   5  09:19:40         -2.51  -167.525876    2      2      
iter:   6  09:19:40         -2.69  -167.523416    2      1      
iter:   7  09:19:41         -2.77  -167.522840    2      2      
iter:   8  09:19:41         -2.94  -167.520878    2      1      
iter:   9  09:19:42         -3.19  -167.521635    2      1      
iter:  10  09:19:42         -3.33  -167.523962    2      1      
iter:  11  09:19:43         -3.47  -167.524264    2      1      
iter:  12  09:19:43         -3.62  -167.523960    2      1      
iter:  13  09:19:44         -3.84  -167.524629    2      1      
iter:  14  09:19:45         -3.92  -167.525094    2      1      
iter:  15  09:19:45         -4.08  -167.524783    2      1      

Converged after 15 iterations.

Dipole moment: (-0.524712, -0.428488, -0.036472) |e|*Ang

Energy contributions relative to reference atoms: (reference = -24663.074771)

Kinetic:        +98.953135
Potential:     -108.502827
External:        +0.000000
XC:            -160.629657
Entropy (-ST):   -0.453137
Local:           +2.881135
--------------------------
Free energy:   -167.751351
Extrapolated:  -167.524783

Fermi level: -4.82991

 Band  Eigenvalues  Occupancy
    0    -22.86893    2.00000
    1    -21.51455    2.00000
    2    -21.33238    2.00000
    3    -20.70140    2.00000
    4    -20.31469    2.00000
    5    -20.00403    2.00000
    6    -19.63337    2.00000
    7    -19.03358    2.00000
    8    -18.32991    2.00000
    9    -17.83359    2.00000
   10    -17.59204    2.00000
   11    -17.46630    2.00000
   12    -16.40816    2.00000
   13    -15.41253    2.00000
   14    -15.21955    2.00000
   15    -14.36256    2.00000
   16    -14.23028    2.00000
   17    -14.01127    2.00000
   18    -13.00212    2.00000
   19    -12.86288    2.00000
   20    -12.19980    2.00000
   21    -12.01284    2.00000
   22    -11.20285    2.00000
   23    -10.76193    2.00000
   24    -10.52630    2.00000
   25     -9.79836    2.00000
   26     -9.59309    2.00000
   27     -9.41778    2.00000
   28     -9.14501    2.00000
   29     -8.83144    2.00000
   30     -8.66148    2.00000
   31     -8.42206    2.00000
   32     -8.30229    2.00000
   33     -7.87422    2.00000
   34     -7.83501    2.00000
   35     -7.55240    2.00000
   36     -7.36387    2.00000
   37     -7.09352    2.00000
   38     -6.84537    2.00000
   39     -6.53665    2.00000
   40     -6.37723    2.00000
   41     -6.31861    2.00000
   42     -5.77614    1.99984
   43     -5.61369    1.99921
   44     -5.34055    1.98796
   45     -5.20262    1.95300
   46     -5.03761    1.77729
   47     -4.86562    1.17666
   48     -4.79435    0.82407
   49     -4.64897    0.28142
   50     -3.99942    0.00049
   51     -3.76443    0.00005
   52     -3.45434    0.00000
   53     -2.91405    0.00000
   54     -2.74639    0.00000
   55     -2.62811    0.00000
   56     -2.32789    0.00000
   57     -2.02195    0.00000
   58     -1.61374    0.00000
   59     -1.41615    0.00000
   60     -0.55479    0.00000
   61     -0.31511    0.00000
   62      0.10610    0.00000
   63      0.30416    0.00000
   64      1.23491    0.00000
   65      1.36708    0.00000
   66      1.60396    0.00000
   67      2.41113    0.00000
   68      2.72532    0.00000
   69      3.27351    0.00000
   70      3.69205    0.00000
   71      4.04280    0.00000
   72      4.87849    0.00000
   73      5.57644    0.00000
   74      5.93418    0.00000
   75      6.29592    0.00000
   76      6.61303    0.00000
   77      7.02086    0.00000
   78      7.18061    0.00000
   79      7.29468    0.00000
   80      7.40950    0.00000
   81      8.03563    0.00000
   82      8.17512    0.00000
   83      8.45901    0.00000
   84      8.52084    0.00000
   85      8.60480    0.00000
   86      8.74471    0.00000
   87      8.82690    0.00000
   88      9.20996    0.00000
   89      9.30400    0.00000
   90      9.41907    0.00000
   91      9.44650    0.00000
   92      9.54887    0.00000
   93      9.65544    0.00000
   94      9.82022    0.00000
   95      9.88416    0.00000
   96     10.10319    0.00000
   97     10.14422    0.00000


Forces in eV/Ang:
  0 C     0.08753    0.53112    0.13425
  1 C    -0.63702   -0.32703   -0.41992
  2 C     0.48670   -0.75780   -0.61503
  3 C    -0.03113   -0.64472    1.34018
  4 C     1.49626    0.27418    4.22513
  5 C     0.22954   -1.89530    0.40582
  6 C     0.01581   -0.16183   -0.02554
  7 C     1.05323    0.91760    0.11323
  8 C    -1.41900   -0.15655   -0.12735
  9 C    -1.49819    1.03712    0.48730
 10 C     0.51648   -0.51539   -0.18105
 11 C     0.61760    0.22065    0.11179
 12 C     0.60332   -1.38690    0.21090
 13 C     0.56084   -0.08367    0.00191
 14 C    -1.29966    1.16570   -0.85787
 15 C    -0.53158   -0.30917   -0.35167
 16 C     0.30420   -0.16524    0.07670
 17 C     0.63010    0.92374   -1.58751
 18 C    -0.06033    0.37341    0.82799
 19 C    -0.65081    0.95288    1.16531
 20 C     0.77016    1.97088   -4.57431
 21 C    -0.63062   -1.17001    0.77013
 22 C    -0.65509   -0.15180    0.11248
 23 C     0.07780   -0.64991   -1.26729

System changes: positions 

Initializing position-dependent things.

Density initialized from wave functions
           .--------------------------------------.  
          /|                                      |  
         / |                                      |  
        /  |                                      |  
       /   |                                      |  
      /    |                                      |  
     /     |                                      |  
    /      |             C  C                     |  
   /       |           C                          |  
  /        |    C  C    C     C  C                |  
 *         |        C              C              |  
 |         |  C    C                C             |  
 |         .-C--C-------C-------------------------.  
 |        /               C  C  C                /   
 |       /     C C  C      C                    /    
 |      /              C                       /     
 |     /                                      /      
 |    /                                      /       
 |   /                                      /        
 |  /                                      /         
 | /                                      /          
 |/                                      /           
 *--------------------------------------*            

Positions:
   0 C     10.067183    4.975380    4.626988
   1 C      9.534557    3.645184    4.411735
   2 C     11.589107    9.013747    5.441241
   3 C      7.754337    6.303729    5.012559
   4 C      9.247409   10.019430    5.790823
   5 C      7.029359    3.351221    4.520054
   6 C     12.173260    7.872377    5.195944
   7 C      8.315791    3.159234    4.395524
   8 C     10.534332    9.784645    5.616780
   9 C      8.951370    5.829250    4.816937
  10 C     11.360339    5.495829    4.687996
  11 C      3.448608    6.367201    5.227143
  12 C      4.693989    4.125862    4.914648
  13 C      4.555798    5.473611    5.227400
  14 C      5.793762    3.387217    4.908703
  15 C      3.519112    7.638547    5.520273
  16 C      3.953245    8.854134    5.858174
  17 C      5.903669    6.079844    5.602206
  18 C      5.322177    8.658057    6.117012
  19 C      6.015212    7.371552    5.996867
  20 C      8.592603   10.053590    7.100123
  21 C      7.298644   10.423627    7.023446
  22 C      6.648908    9.268807    6.551246
  23 C      7.279692    7.942418    6.345169

Unit cell:
           periodic     x           y           z      points  spacing
  1. axis:    yes   16.000000    0.000000    0.000000    80     0.2000
  2. axis:    yes    0.000000   16.000000    0.000000    80     0.2000
  3. axis:    yes    0.000000    0.000000   10.000000    48     0.2083

Effective grid spacing dv^(1/3) = 0.2027

                     log10-error:    total        iterations:
           time      wfs    density  energy       fermi  poisson
iter:   1  09:19:47          +inf  -168.414058    3      5      
iter:   2  09:19:48         -1.67  -168.099769    2      2      
iter:   3  09:19:48         -2.13  -168.069390    2      2      
iter:   4  09:19:49         -2.30  -168.056377    2      2      
iter:   5  09:19:49         -2.50  -168.054103    2      2      
iter:   6  09:19:50         -2.63  -168.053646    2      2      
iter:   7  09:19:50         -2.76  -168.053337    2      2      
iter:   8  09:19:51         -2.89  -168.052519    2      2      
iter:   9  09:19:51         -3.17  -168.050218    2      1      
iter:  10  09:19:52         -3.31  -168.051613    2      1      
iter:  11  09:19:52         -3.54  -168.052742    1      1      
iter:  12  09:19:53         -3.66  -168.052530    2      1      
iter:  13  09:19:54         -3.79  -168.053740    2      1      
iter:  14  09:19:54         -3.90  -168.054116    2      1      
iter:  15  09:19:55         -4.02  -168.053854    2      1      

Converged after 15 iterations.

Dipole moment: (-0.492199, -0.354523, -0.019715) |e|*Ang

Energy contributions relative to reference atoms: (reference = -24663.074771)

Kinetic:       +100.765310
Potential:     -110.008947
External:        +0.000000
XC:            -161.487118
Entropy (-ST):   -0.441022
Local:           +2.897411
--------------------------
Free energy:   -168.274365
Extrapolated:  -168.053854

Fermi level: -4.79657

 Band  Eigenvalues  Occupancy
    0    -22.88247    2.00000
    1    -21.47333    2.00000
    2    -21.28481    2.00000
    3    -20.73959    2.00000
    4    -20.35509    2.00000
    5    -19.99013    2.00000
    6    -19.66531    2.00000
    7    -19.00355    2.00000
    8    -18.35704    2.00000
    9    -17.86502    2.00000
   10    -17.58234    2.00000
   11    -17.48296    2.00000
   12    -16.38452    2.00000
   13    -15.52210    2.00000
   14    -15.26702    2.00000
   15    -14.33656    2.00000
   16    -14.25420    2.00000
   17    -14.01783    2.00000
   18    -12.99054    2.00000
   19    -12.83528    2.00000
   20    -12.22478    2.00000
   21    -12.05155    2.00000
   22    -11.35620    2.00000
   23    -10.80897    2.00000
   24    -10.52714    2.00000
   25     -9.76096    2.00000
   26     -9.58675    2.00000
   27     -9.41812    2.00000
   28     -9.14728    2.00000
   29     -8.89548    2.00000
   30     -8.68924    2.00000
   31     -8.49315    2.00000
   32     -8.34214    2.00000
   33     -7.87783    2.00000
   34     -7.81475    2.00000
   35     -7.57854    2.00000
   36     -7.36872    2.00000
   37     -7.07280    2.00000
   38     -6.85782    2.00000
   39     -6.56278    2.00000
   40     -6.40688    2.00000
   41     -6.32566    2.00000
   42     -5.76054    1.99987
   43     -5.61496    1.99944
   44     -5.35523    1.99253
   45     -5.17400    1.95512
   46     -5.02450    1.81430
   47     -4.82594    1.14582
   48     -4.75991    0.81874
   49     -4.61238    0.27365
   50     -3.95901    0.00046
   51     -3.75681    0.00006
   52     -3.39935    0.00000
   53     -2.88944    0.00000
   54     -2.71693    0.00000
   55     -2.65219    0.00000
   56     -2.30510    0.00000
   57     -1.98947    0.00000
   58     -1.58917    0.00000
   59     -1.36492    0.00000
   60     -0.52572    0.00000
   61     -0.20875    0.00000
   62      0.14543    0.00000
   63      0.40645    0.00000
   64      1.24839    0.00000
   65      1.40110    0.00000
   66      1.67786    0.00000
   67      2.42192    0.00000
   68      2.73510    0.00000
   69      3.32218    0.00000
   70      3.78406    0.00000
   71      4.07244    0.00000
   72      4.96172    0.00000
   73      5.59855    0.00000
   74      5.92620    0.00000
   75      6.34515    0.00000
   76      6.65781    0.00000
   77      7.15025    0.00000
   78      7.23957    0.00000
   79      7.48806    0.00000
   80      7.64190    0.00000
   81      8.21766    0.00000
   82      8.31524    0.00000
   83      8.47768    0.00000
   84      8.52827    0.00000
   85      8.63091    0.00000
   86      8.76177    0.00000
   87      8.77681    0.00000
   88      9.24771    0.00000
   89      9.32477    0.00000
   90      9.42011    0.00000
   91      9.46260    0.00000
   92      9.59186    0.00000
   93      9.64589    0.00000
   94      9.87892    0.00000
   95      9.92540    0.00000
   96     10.13089    0.00000
   97     10.17523    0.00000


Forces in eV/Ang:
  0 C    -0.05745    0.47515    0.10233
  1 C    -0.66973   -0.23713   -0.38365
  2 C     0.46010   -0.72765   -0.65556
  3 C     0.08994   -0.65410    1.31168
  4 C     2.08012    0.24211    3.65499
  5 C     0.39063   -1.82731    0.23674
  6 C    -0.02848   -0.05209    0.00229
  7 C     1.29937    0.89568    0.11135
  8 C    -1.37149   -0.25176   -0.15115
  9 C    -1.64946    1.02730    0.53033
 10 C     0.52906   -0.53509   -0.17640
 11 C     0.60406    0.23281    0.09011
 12 C     0.70793   -1.43641    0.18307
 13 C     0.58220    0.03649   -0.00155
 14 C    -1.71153    1.22448   -0.66978
 15 C    -0.49392   -0.40007   -0.33598
 16 C     0.24880   -0.05938    0.08375
 17 C     0.63736    0.59514   -1.66459
 18 C    -0.17145    0.29382    0.83607
 19 C    -0.60540    1.06849    1.11634
 20 C     0.30730    1.97169   -4.12309
 21 C    -0.70263   -1.09913    0.85223
 22 C    -0.51109   -0.08847    0.16481
 23 C     0.05884   -0.69563   -1.24454

System changes: positions 

Initializing position-dependent things.

Density initialized from wave functions
           .--------------------------------------.  
          /|                                      |  
         / |                                      |  
        /  |                                      |  
       /   |                                      |  
      /    |                                      |  
     /     |                                      |  
    /      |             C  C                     |  
   /       |           C                          |  
  /        |    C  C    C     C  C                |  
 *         |        C              C              |  
 |         |  C    C                C             |  
 |         .-C--C-------C-------------------------.  
 |        /               C  C  C                /   
 |       /     C C  C      C                    /    
 |      /              C                       /     
 |     /                                      /      
 |    /                                      /       
 |   /                                      /        
 |  /                                      /         
 | /                                      /          
 |/                                      /           
 *--------------------------------------*            

Positions:
   0 C     10.067281    4.982270    4.628398
   1 C      9.536006    3.645679    4.408633
   2 C     11.588945    9.012629    5.436545
   3 C      7.745190    6.301551    5.025930
   4 C      9.256219   10.024116    5.823063
   5 C      7.029499    3.333696    4.524867
   6 C     12.174829    7.867286    5.195147
   7 C      8.315146    3.164755    4.396636
   8 C     10.534535    9.778693    5.614269
   9 C      8.947432    5.833727    4.819958
  10 C     11.363805    5.490397    4.686320
  11 C      3.453987    6.367828    5.227643
  12 C      4.690508    4.122003    4.917279
  13 C      4.561298    5.470872    5.226515
  14 C      5.795971    3.390517    4.899167
  15 C      3.514874    7.639135    5.518210
  16 C      3.954971    8.851408    5.858216
  17 C      5.910138    6.091872    5.588044
  18 C      5.320921    8.661587    6.124795
  19 C      6.009333    7.375319    6.006211
  20 C      8.594462   10.071630    7.064471
  21 C      7.293218   10.413790    7.030929
  22 C      6.643849    9.267040    6.552531
  23 C      7.279917    7.936514    6.333778

Unit cell:
           periodic     x           y           z      points  spacing
  1. axis:    yes   16.000000    0.000000    0.000000    80     0.2000
  2. axis:    yes    0.000000   16.000000    0.000000    80     0.2000
  3. axis:    yes    0.000000    0.000000   10.000000    48     0.2083

Effective grid spacing dv^(1/3) = 0.2027

                     log10-error:    total        iterations:
           time      wfs    density  energy       fermi  poisson
iter:   1  09:19:57          +inf  -168.918669    3      5      
iter:   2  09:19:57         -1.67  -168.610027    2      2      
iter:   3  09:19:58         -2.11  -168.570033    2      2      
iter:   4  09:19:58         -2.29  -168.558377    2      2      
iter:   5  09:19:59         -2.49  -168.551652    2      1      
iter:   6  09:19:59         -2.58  -168.554036    2      2      
iter:   7  09:20:00         -2.74  -168.554929    2      2      
iter:   8  09:20:00         -2.83  -168.553789    2      2      
iter:   9  09:20:01         -3.08  -168.550139    2      1      
iter:  10  09:20:02         -3.25  -168.551169    2      1      
iter:  11  09:20:02         -3.43  -168.553267    2      1      
iter:  12  09:20:03         -3.62  -168.553871    2      1      
iter:  13  09:20:03         -3.72  -168.555761    2      1      
iter:  14  09:20:04         -3.94  -168.554714    2      1      
iter:  15  09:20:04         -4.05  -168.554201    2      1      

Converged after 15 iterations.

Dipole moment: (-0.454216, -0.280326, -0.003568) |e|*Ang

Energy contributions relative to reference atoms: (reference = -24663.074771)

Kinetic:       +103.029045
Potential:     -111.851085
External:        +0.000000
XC:            -162.422198
Entropy (-ST):   -0.428155
Local:           +2.904116
--------------------------
Free energy:   -168.768278
Extrapolated:  -168.554201

Fermi level: -4.76192

 Band  Eigenvalues  Occupancy
    0    -22.89725    2.00000
    1    -21.43567    2.00000
    2    -21.24046    2.00000
    3    -20.80085    2.00000
    4    -20.37053    2.00000
    5    -19.97514    2.00000
    6    -19.71128    2.00000
    7    -18.97937    2.00000
    8    -18.38970    2.00000
    9    -17.91054    2.00000
   10    -17.56627    2.00000
   11    -17.49123    2.00000
   12    -16.36500    2.00000
   13    -15.66068    2.00000
   14    -15.28817    2.00000
   15    -14.33502    2.00000
   16    -14.27216    2.00000
   17    -14.02438    2.00000
   18    -12.99332    2.00000
   19    -12.80829    2.00000
   20    -12.30127    2.00000
   21    -12.06136    2.00000
   22    -11.48021    2.00000
   23    -10.85294    2.00000
   24    -10.52448    2.00000
   25     -9.71820    2.00000
   26     -9.58449    2.00000
   27     -9.42437    2.00000
   28     -9.16892    2.00000
   29     -8.93712    2.00000
   30     -8.72957    2.00000
   31     -8.58344    2.00000
   32     -8.36394    2.00000
   33     -7.88183    2.00000
   34     -7.79771    2.00000
   35     -7.61516    2.00000
   36     -7.37669    2.00000
   37     -7.05997    2.00000
   38     -6.88169    2.00000
   39     -6.60776    2.00000
   40     -6.42587    2.00000
   41     -6.32832    2.00000
   42     -5.75014    1.99990
   43     -5.61864    1.99962
   44     -5.37146    1.99550
   45     -5.14360    1.95695
   46     -5.01203    1.84844
   47     -4.79034    1.14113
   48     -4.71937    0.79041
   49     -4.57511    0.26753
   50     -3.91819    0.00043
   51     -3.75559    0.00009
   52     -3.34830    0.00000
   53     -2.89632    0.00000
   54     -2.67961    0.00000
   55     -2.62677    0.00000
   56     -2.24831    0.00000
   57     -1.95568    0.00000
   58     -1.55582    0.00000
   59     -1.31779    0.00000
   60     -0.49957    0.00000
   61     -0.11004    0.00000
   62      0.18783    0.00000
   63      0.50526    0.00000
   64      1.26439    0.00000
   65      1.46978    0.00000
   66      1.74713    0.00000
   67      2.42654    0.00000
   68      2.73903    0.00000
   69      3.36725    0.00000
   70      3.87295    0.00000
   71      4.11762    0.00000
   72      5.03504    0.00000
   73      5.62308    0.00000
   74      5.91205    0.00000
   75      6.38707    0.00000
   76      6.68813    0.00000
   77      7.22588    0.00000
   78      7.28948    0.00000
   79      7.56487    0.00000
   80      7.77693    0.00000
   81      8.26264    0.00000
   82      8.44432    0.00000
   83      8.49075    0.00000
   84      8.59015    0.00000
   85      8.73467    0.00000
   86      8.76437    0.00000
   87      8.79983    0.00000
   88      9.30152    0.00000
   89      9.32882    0.00000
   90      9.41861    0.00000
   91      9.49755    0.00000
   92      9.62801    0.00000
   93      9.65359    0.00000
   94      9.89168    0.00000
   95     10.03395    0.00000
   96     10.13829    0.00000
   97     10.20661    0.00000


Forces in eV/Ang:
  0 C    -0.20254    0.43546    0.06283
  1 C    -0.63647   -0.12368   -0.34009
  2 C     0.53759   -0.80878   -0.72047
  3 C     0.16454   -0.64831    1.32746
  4 C     2.65979    0.23670    2.76245
  5 C     0.42383   -1.76691    0.16886
  6 C    -0.07149    0.05700    0.03574
  7 C     1.46608    0.86351    0.11261
  8 C    -1.30048   -0.28150   -0.13806
  9 C    -1.75285    1.00240    0.58010
 10 C     0.53375   -0.54446   -0.17191
 11 C     0.59819    0.21237    0.05745
 12 C     0.75160   -1.41201    0.16540
 13 C     0.61250    0.13671   -0.02531
 14 C    -1.92929    1.19816   -0.52161
 15 C    -0.44532   -0.44619   -0.30012
 16 C     0.18321    0.03780    0.08395
 17 C     0.62728    0.32456   -1.69843
 18 C    -0.27869    0.23621    0.84008
 19 C    -0.55538    1.11137    1.07644
 20 C    -0.28280    1.95546   -3.29941
 21 C    -0.78232   -0.99878    0.89306
 22 C    -0.36183   -0.04027    0.20606
 23 C     0.04412   -0.72124   -1.17605

System changes: positions 

Initializing position-dependent things.

Density initialized from wave functions
           .--------------------------------------.  
          /|                                      |  
         / |                                      |  
        /  |                                      |  
       /   |                                      |  
      /    |                                      |  
     /     |                                      |  
    /      |             C  C                     |  
   /       |           C                          |  
  /        |    C  C    C     C  C                |  
 *         |        C              C              |  
 |         |  C    C                C             |  
 |         .-C--C-------C-------------------------.  
 |        /               C  C  C                /   
 |       /     C C  C      C                    /    
 |      /              C                       /     
 |     /                                      /      
 |    /                                      /       
 |   /                                      /        
 |  /                                      /         
 | /                                      /          
 |/                                      /           
 *--------------------------------------*            

Positions:
   0 C     10.066626    4.990507    4.629743
   1 C      9.537900    3.646818    4.405218
   2 C     11.590169    9.009903    5.430252
   3 C      7.734629    6.299085    5.042327
   4 C      9.271006   10.029876    5.852387
   5 C      7.029198    3.312965    4.530686
   6 C     12.176536    7.861773    5.194459
   7 C      8.315090    3.171310    4.398034
   8 C     10.535343    9.771953    5.611619
   9 C      8.941935    5.839045    4.824057
  10 C     11.367942    5.483847    4.684341
  11 C      3.460347    6.368405    5.227949
  12 C      4.686788    4.117521    4.920345
  13 C      4.568186    5.468165    5.225137
  14 C      5.797965    3.394167    4.888423
  15 C      3.510153    7.639716    5.516069
  16 C      3.956497    8.848809    5.858220
  17 C      5.917886    6.104941    5.571026
  18 C      5.318812    8.665552    6.134225
  19 C      6.002643    7.379682    6.017254
  20 C      8.591246   10.093016    7.030821
  21 C      7.286262   10.403036    7.039980
  22 C      6.638752    9.264943    6.554209
  23 C      7.279932    7.929316    6.320817

Unit cell:
           periodic     x           y           z      points  spacing
  1. axis:    yes   16.000000    0.000000    0.000000    80     0.2000
  2. axis:    yes    0.000000   16.000000    0.000000    80     0.2000
  3. axis:    yes    0.000000    0.000000   10.000000    48     0.2083

Effective grid spacing dv^(1/3) = 0.2027

                     log10-error:    total        iterations:
           time      wfs    density  energy       fermi  poisson
iter:   1  09:20:06          +inf  -169.355532    3      5      
iter:   2  09:20:07         -1.69  -169.094387    2      2      
iter:   3  09:20:07         -2.10  -169.052078    2      2      
iter:   4  09:20:08         -2.30  -169.041351    3      2      
iter:   5  09:20:08         -2.48  -169.034431    2      1      
iter:   6  09:20:09         -2.57  -169.036720    2      2      
iter:   7  09:20:09         -2.73  -169.037941    2      2      
iter:   8  09:20:10         -2.83  -169.036798    2      2      
iter:   9  09:20:11         -3.07  -169.033309    2      1      
iter:  10  09:20:11         -3.23  -169.034027    2      1      
iter:  11  09:20:12         -3.41  -169.036080    2      1      
iter:  12  09:20:12         -3.61  -169.036639    2      1      
iter:  13  09:20:13         -3.71  -169.038611    2      1      
iter:  14  09:20:13         -3.92  -169.037640    2      1      
iter:  15  09:20:14         -4.03  -169.037173    2      1      

Converged after 15 iterations.

Dipole moment: (-0.425940, -0.213381, 0.011565) |e|*Ang

Energy contributions relative to reference atoms: (reference = -24663.074771)

Kinetic:       +105.276116
Potential:     -113.661302
External:        +0.000000
XC:            -163.358990
Entropy (-ST):   -0.415598
Local:           +2.914802
--------------------------
Free energy:   -169.244973
Extrapolated:  -169.037173

Fermi level: -4.73318

 Band  Eigenvalues  Occupancy
    0    -22.92025    2.00000
    1    -21.40710    2.00000
    2    -21.20276    2.00000
    3    -20.86169    2.00000
    4    -20.36857    2.00000
    5    -19.96971    2.00000
    6    -19.75559    2.00000
    7    -18.96276    2.00000
    8    -18.42889    2.00000
    9    -17.96776    2.00000
   10    -17.55099    2.00000
   11    -17.49933    2.00000
   12    -16.35171    2.00000
   13    -15.79665    2.00000
   14    -15.30687    2.00000
   15    -14.38046    2.00000
   16    -14.26135    2.00000
   17    -14.03728    2.00000
   18    -13.02221    2.00000
   19    -12.79153    2.00000
   20    -12.40565    2.00000
   21    -12.05430    2.00000
   22    -11.57535    2.00000
   23    -10.90300    2.00000
   24    -10.52495    2.00000
   25     -9.67397    2.00000
   26     -9.59704    2.00000
   27     -9.44238    2.00000
   28     -9.20808    2.00000
   29     -8.95570    2.00000
   30     -8.78246    2.00000
   31     -8.67214    2.00000
   32     -8.37518    2.00000
   33     -7.89497    2.00000
   34     -7.78596    2.00000
   35     -7.65731    2.00000
   36     -7.38690    2.00000
   37     -7.06230    2.00000
   38     -6.91183    2.00000
   39     -6.65861    2.00000
   40     -6.44089    2.00000
   41     -6.33330    2.00000
   42     -5.74853    1.99992
   43     -5.62707    1.99974
   44     -5.38670    1.99710
   45     -5.11634    1.95757
   46     -5.00447    1.87556
   47     -4.76561    1.16070
   48     -4.68211    0.75005
   49     -4.54258    0.25885
   50     -3.88041    0.00040
   51     -3.75640    0.00011
   52     -3.30280    0.00000
   53     -2.90999    0.00000
   54     -2.63903    0.00000
   55     -2.57124    0.00000
   56     -2.14167    0.00000
   57     -1.92598    0.00000
   58     -1.51927    0.00000
   59     -1.27888    0.00000
   60     -0.47416    0.00000
   61     -0.02710    0.00000
   62      0.23811    0.00000
   63      0.59360    0.00000
   64      1.28189    0.00000
   65      1.56926    0.00000
   66      1.81365    0.00000
   67      2.44912    0.00000
   68      2.73031    0.00000
   69      3.40184    0.00000
   70      3.95216    0.00000
   71      4.17609    0.00000
   72      5.09683    0.00000
   73      5.64658    0.00000
   74      5.88477    0.00000
   75      6.41866    0.00000
   76      6.70985    0.00000
   77      7.28801    0.00000
   78      7.33515    0.00000
   79      7.63664    0.00000
   80      7.83781    0.00000
   81      8.29534    0.00000
   82      8.43195    0.00000
   83      8.50206    0.00000
   84      8.61114    0.00000
   85      8.71308    0.00000
   86      8.79746    0.00000
   87      8.94792    0.00000
   88      9.30837    0.00000
   89      9.34576    0.00000
   90      9.42299    0.00000
   91      9.53446    0.00000
   92      9.64135    0.00000
   93      9.69402    0.00000
   94      9.89506    0.00000
   95     10.09642    0.00000
   96     10.14197    0.00000
   97     10.24478    0.00000


Forces in eV/Ang:
  0 C    -0.35957    0.44402    0.02948
  1 C    -0.59950    0.00457   -0.29291
  2 C     0.54931   -0.82646   -0.75563
  3 C     0.18692   -0.60216    1.30131
  4 C     3.06236    0.24502    1.78040
  5 C     0.53093   -1.69499    0.04654
  6 C    -0.09987    0.09615    0.04625
  7 C     1.55782    0.82033    0.11769
  8 C    -1.01599   -0.33488   -0.12810
  9 C    -1.82381    0.95482    0.61992
 10 C     0.52792   -0.55383   -0.17414
 11 C     0.60482    0.20189    0.02242
 12 C     0.78949   -1.35325    0.14924
 13 C     0.65096    0.22530   -0.06187
 14 C    -2.12813    1.17814   -0.40656
 15 C    -0.38151   -0.49677   -0.25773
 16 C     0.10726    0.13626    0.08699
 17 C     0.62942    0.06489   -1.69764
 18 C    -0.36458    0.16535    0.82953
 19 C    -0.46783    1.06233    0.97269
 20 C    -0.89278    1.91839   -2.28270
 21 C    -0.81638   -0.84433    0.90290
 22 C    -0.21979   -0.01316    0.22660
 23 C     0.00798   -0.75882   -1.12267

System changes: positions 

Initializing position-dependent things.

Density initialized from wave functions
           .--------------------------------------.  
          /|                                      |  
         / |                                      |  
        /  |                                      |  
       /   |                                      |  
      /    |                                      |  
     /     |                                      |  
    /      |             C  C                     |  
   /       |           C                          |  
  /        |    C  C    C     C  C                |  
 *         |        C              C              |  
 |         |  C                     C             |  
 |         .-C--C--C----C-------------------------.  
 |        /               C  C  C                /   
 |       /     C C         C                    /    
 |      /           C  C                       /     
 |     /                                      /      
 |    /                                      /       
 |   /                                      /        
 |  /                                      /         
 | /                                      /          
 |/                                      /           
 *--------------------------------------*            

Positions:
   0 C     10.065006    5.000713    4.631111
   1 C      9.539825    3.648658    4.401443
   2 C     11.592125    9.006075    5.422586
   3 C      7.722429    6.296559    5.061361
   4 C      9.290239   10.036820    5.878614
   5 C      7.029717    3.288866    4.536674
   6 C     12.178476    7.855112    5.193604
   7 C      8.315477    3.179035    4.399784
   8 C     10.538783    9.764181    5.608793
   9 C      8.934473    5.845322    4.829280
  10 C     11.372769    5.476093    4.681936
  11 C      3.467994    6.369184    5.228065
  12 C      4.683324    4.112180    4.923860
  13 C      4.576675    5.465488    5.223142
  14 C      5.798802    3.398857    4.876064
  15 C      3.505046    7.639944    5.513823
  16 C      3.957761    8.846439    5.858277
  17 C      5.927168    6.118997    5.551236
  18 C      5.316077    8.669785    6.145257
  19 C      5.995549    7.383885    6.029373
  20 C      8.582893   10.117875    7.000618
  21 C      7.278201   10.391842    7.050374
  22 C      6.633445    9.262286    6.556056
  23 C      7.279491    7.920494    6.305814

Unit cell:
           periodic     x           y           z      points  spacing
  1. axis:    yes   16.000000    0.000000    0.000000    80     0.2000
  2. axis:    yes    0.000000   16.000000    0.000000    80     0.2000
  3. axis:    yes    0.000000    0.000000   10.000000    48     0.2083

Effective grid spacing dv^(1/3) = 0.2027

                     log10-error:    total        iterations:
           time      wfs    density  energy       fermi  poisson
iter:   1  09:20:16          +inf  -169.748230    3      5      
iter:   2  09:20:16         -1.74  -169.557149    3      2      
iter:   3  09:20:17         -2.13  -169.521850    2      2      
iter:   4  09:20:17         -2.32  -169.511770    3      2      
iter:   5  09:20:18         -2.49  -169.505116    2      1      
iter:   6  09:20:18         -2.58  -169.507925    2      2      
iter:   7  09:20:19         -2.74  -169.509226    2      2      
iter:   8  09:20:20         -2.86  -169.508117    2      2      
iter:   9  09:20:20         -3.11  -169.505962    2      1      
iter:  10  09:20:21         -3.26  -169.506368    2      1      
iter:  11  09:20:21         -3.42  -169.507477    2      1      
iter:  12  09:20:22         -3.61  -169.507846    2      1      
iter:  13  09:20:22         -3.73  -169.509623    2      1      
iter:  14  09:20:23         -3.92  -169.508847    2      1      
iter:  15  09:20:23         -4.05  -169.508569    2      1      

Converged after 15 iterations.

Dipole moment: (-0.405571, -0.155852, 0.024905) |e|*Ang

Energy contributions relative to reference atoms: (reference = -24663.074771)

Kinetic:       +107.077244
Potential:     -115.106034
External:        +0.000000
XC:            -164.201925
Entropy (-ST):   -0.403107
Local:           +2.923700
--------------------------
Free energy:   -169.710122
Extrapolated:  -169.508569

Fermi level: -4.71025

 Band  Eigenvalues  Occupancy
    0    -22.95051    2.00000
    1    -21.38611    2.00000
    2    -21.17214    2.00000
    3    -20.89564    2.00000
    4    -20.35666    2.00000
    5    -19.97750    2.00000
    6    -19.79614    2.00000
    7    -18.95981    2.00000
    8    -18.46602    2.00000
    9    -18.02617    2.00000
   10    -17.53511    2.00000
   11    -17.50853    2.00000
   12    -16.35044    2.00000
   13    -15.91955    2.00000
   14    -15.32617    2.00000
   15    -14.44382    2.00000
   16    -14.24712    2.00000
   17    -14.05810    2.00000
   18    -13.08177    2.00000
   19    -12.79277    2.00000
   20    -12.48681    2.00000
   21    -12.04445    2.00000
   22    -11.64489    2.00000
   23    -10.95675    2.00000
   24    -10.52804    2.00000
   25     -9.63577    2.00000
   26     -9.62486    2.00000
   27     -9.46474    2.00000
   28     -9.25110    2.00000
   29     -8.96597    2.00000
   30     -8.83025    2.00000
   31     -8.74960    2.00000
   32     -8.38135    2.00000
   33     -7.92009    2.00000
   34     -7.78132    2.00000
   35     -7.70307    2.00000
   36     -7.40285    2.00000
   37     -7.08877    2.00000
   38     -6.93508    2.00000
   39     -6.70733    2.00000
   40     -6.46088    2.00000
   41     -6.33809    2.00000
   42     -5.75542    1.99994
   43     -5.63808    1.99981
   44     -5.40237    1.99803
   45     -5.09010    1.95617
   46     -5.00352    1.89888
   47     -4.74885    1.19066
   48     -4.65050    0.70982
   49     -4.51389    0.24616
   50     -3.85290    0.00038
   51     -3.75404    0.00014
   52     -3.26333    0.00000
   53     -2.91327    0.00000
   54     -2.59662    0.00000
   55     -2.50558    0.00000
   56     -2.01061    0.00000
   57     -1.89334    0.00000
   58     -1.47353    0.00000
   59     -1.24823    0.00000
   60     -0.44663    0.00000
   61      0.02189    0.00000
   62      0.30538    0.00000
   63      0.66042    0.00000
   64      1.30647    0.00000
   65      1.67796    0.00000
   66      1.87930    0.00000
   67      2.49924    0.00000
   68      2.71275    0.00000
   69      3.42425    0.00000
   70      4.01841    0.00000
   71      4.24573    0.00000
   72      5.15111    0.00000
   73      5.66971    0.00000
   74      5.84638    0.00000
   75      6.43796    0.00000
   76      6.72725    0.00000
   77      7.32909    0.00000
   78      7.37549    0.00000
   79      7.69492    0.00000
   80      7.87774    0.00000
   81      8.30598    0.00000
   82      8.42030    0.00000
   83      8.50406    0.00000
   84      8.62253    0.00000
   85      8.70313    0.00000
   86      8.81223    0.00000
   87      9.03220    0.00000
   88      9.27167    0.00000
   89      9.36920    0.00000
   90      9.42591    0.00000
   91      9.55014    0.00000
   92      9.66137    0.00000
   93      9.72967    0.00000
   94      9.89567    0.00000
   95     10.08243    0.00000
   96     10.16503    0.00000
   97     10.27283    0.00000


Forces in eV/Ang:
  0 C    -0.52836    0.41545    0.00882
  1 C    -0.50278    0.17544   -0.24109
  2 C     0.62864   -0.92409   -0.78395
  3 C     0.14569   -0.50989    1.29251
  4 C     3.30647    0.28553    0.89539
  5 C     0.51313   -1.62969   -0.03247
  6 C    -0.14101    0.12402    0.04154
  7 C     1.58795    0.74624    0.11968
  8 C    -0.80846   -0.31617   -0.07852
  9 C    -1.85729    0.85337    0.61780
 10 C     0.51248   -0.55408   -0.17191
 11 C     0.64004    0.17044   -0.01109
 12 C     0.77511   -1.22451    0.14190
 13 C     0.66212    0.31467   -0.10277
 14 C    -2.11749    1.09525   -0.27366
 15 C    -0.30235   -0.51159   -0.20909
 16 C     0.02682    0.22235    0.09179
 17 C     0.60587   -0.18127   -1.66966
 18 C    -0.46369    0.06150    0.82707
 19 C    -0.39923    0.98915    0.85825
 20 C    -1.36708    1.88001   -1.35256
 21 C    -0.87114   -0.66165    0.86788
 22 C    -0.05370    0.01720    0.22663
 23 C    -0.02682   -0.72884   -1.07553

System changes: positions 

Initializing position-dependent things.

Density initialized from wave functions
           .--------------------------------------.  
          /|                                      |  
         / |                                      |  
        /  |                                      |  
       /   |                                      |  
      /    |                                      |  
     /     |                                      |  
    /      |             C  C                     |  
   /       |           C                          |  
  /        |    C  C          C  C                |  
 *         |        C   C          C              |  
 |         |  C                     C             |  
 |         .-C--C--C----C-------------------------.  
 |        /               C  C  C                /   
 |       /     C C         C                    /    
 |      /           C  C                       /     
 |     /                                      /      
 |    /                                      /       
 |   /                                      /        
 |  /                                      /         
 | /                                      /          
 |/                                      /           
 *--------------------------------------*            

Positions:
   0 C     10.061996    5.011795    4.632561
   1 C      9.542290    3.651837    4.397550
   2 C     11.595745    9.000048    5.413798
   3 C      7.708684    6.294516    5.082546
   4 C      9.312393   10.044993    5.901564
   5 C      7.029722    3.262285    4.542883
   6 C     12.180245    7.847768    5.192486
   7 C      8.316317    3.187275    4.401770
   8 C     10.543262    9.756571    5.606422
   9 C      8.925241    5.851737    4.835002
  10 C     11.378086    5.467530    4.679257
  11 C      3.477057    6.369881    5.227987
  12 C      4.679955    4.106782    4.927749
  13 C      4.586126    5.463246    5.220575
  14 C      5.800019    3.403880    4.863203
  15 C      3.499985    7.640012    5.511624
  16 C      3.958608    8.844451    5.858449
  17 C      5.937263    6.132910    5.529559
  18 C      5.312421    8.673549    6.157613
  19 C      5.988113    7.387930    6.041989
  20 C      8.570970   10.145344    6.974097
  21 C      7.268833   10.381025    7.061280
  22 C      6.628688    9.259385    6.557840
  23 C      7.278651    7.911200    6.289262

Unit cell:
           periodic     x           y           z      points  spacing
  1. axis:    yes   16.000000    0.000000    0.000000    80     0.2000
  2. axis:    yes    0.000000   16.000000    0.000000    80     0.2000
  3. axis:    yes    0.000000    0.000000   10.000000    48     0.2083

Effective grid spacing dv^(1/3) = 0.2027

                     log10-error:    total        iterations:
           time      wfs    density  energy       fermi  poisson
iter:   1  09:20:25          +inf  -170.130754    3      5      
iter:   2  09:20:26         -1.80  -170.001224    3      2      
iter:   3  09:20:26         -2.16  -169.975230    2      2      
iter:   4  09:20:27         -2.35  -169.965859    3      2      
iter:   5  09:20:27         -2.52  -169.960145    2      1      
iter:   6  09:20:28         -2.61  -169.963122    2      2      
iter:   7  09:20:29         -2.77  -169.964369    3      2      
iter:   8  09:20:29         -2.90  -169.963341    2      2      
iter:   9  09:20:30         -3.17  -169.962487    2      1      
iter:  10  09:20:30         -3.30  -169.962405    2      1      
iter:  11  09:20:31         -3.46  -169.962829    2      1      
iter:  12  09:20:31         -3.62  -169.962948    2      1      
iter:  13  09:20:32         -3.77  -169.964282    2      1      
iter:  14  09:20:32         -3.95  -169.963886    2      1      
iter:  15  09:20:33         -4.08  -169.963763    2      1      

Converged after 15 iterations.

Dipole moment: (-0.396888, -0.109231, 0.036528) |e|*Ang

Energy contributions relative to reference atoms: (reference = -24663.074771)

Kinetic:       +107.971903
Potential:     -115.820188
External:        +0.000000
XC:            -164.847065
Entropy (-ST):   -0.391986
Local:           +2.927580
--------------------------
Free energy:   -170.159756
Extrapolated:  -169.963763

Fermi level: -4.69455

 Band  Eigenvalues  Occupancy
    0    -22.98592    2.00000
    1    -21.37101    2.00000
    2    -21.14887    2.00000
    3    -20.90291    2.00000
    4    -20.34375    2.00000
    5    -20.00112    2.00000
    6    -19.82136    2.00000
    7    -18.96225    2.00000
    8    -18.49719    2.00000
    9    -18.08433    2.00000
   10    -17.52689    2.00000
   11    -17.51344    2.00000
   12    -16.35503    2.00000
   13    -16.02106    2.00000
   14    -15.34783    2.00000
   15    -14.50378    2.00000
   16    -14.23760    2.00000
   17    -14.08472    2.00000
   18    -13.17132    2.00000
   19    -12.81705    2.00000
   20    -12.52562    2.00000
   21    -12.03754    2.00000
   22    -11.69786    2.00000
   23    -11.00974    2.00000
   24    -10.53347    2.00000
   25     -9.69166    2.00000
   26     -9.58704    2.00000
   27     -9.48613    2.00000
   28     -9.29049    2.00000
   29     -8.98040    2.00000
   30     -8.86042    2.00000
   31     -8.80647    2.00000
   32     -8.38793    2.00000
   33     -7.95622    2.00000
   34     -7.78559    2.00000
   35     -7.74110    2.00000
   36     -7.42235    2.00000
   37     -7.13013    2.00000
   38     -6.94509    2.00000
   39     -6.74762    2.00000
   40     -6.48381    2.00000
   41     -6.34406    2.00000
   42     -5.77008    1.99996
   43     -5.65346    1.99986
   44     -5.41815    1.99856
   45     -5.06888    1.95374
   46     -5.00847    1.91696
   47     -4.73907    1.21899
   48     -4.62841    0.68085
   49     -4.49075    0.23054
   50     -3.83872    0.00038
   51     -3.74265    0.00015
   52     -3.23389    0.00000
   53     -2.90297    0.00000
   54     -2.56220    0.00000
   55     -2.44734    0.00000
   56     -1.92457    0.00000
   57     -1.81156    0.00000
   58     -1.42001    0.00000
   59     -1.22712    0.00000
   60     -0.41668    0.00000
   61      0.04522    0.00000
   62      0.38768    0.00000
   63      0.69756    0.00000
   64      1.34029    0.00000
   65      1.76648    0.00000
   66      1.93849    0.00000
   67      2.57735    0.00000
   68      2.69250    0.00000
   69      3.43285    0.00000
   70      4.06654    0.00000
   71      4.31498    0.00000
   72      5.18482    0.00000
   73      5.68038    0.00000
   74      5.80461    0.00000
   75      6.43960    0.00000
   76      6.74737    0.00000
   77      7.34421    0.00000
   78      7.41913    0.00000
   79      7.73578    0.00000
   80      7.90118    0.00000
   81      8.28855    0.00000
   82      8.41391    0.00000
   83      8.49808    0.00000
   84      8.61925    0.00000
   85      8.71154    0.00000
   86      8.82376    0.00000
   87      9.07218    0.00000
   88      9.22557    0.00000
   89      9.38123    0.00000
   90      9.42785    0.00000
   91      9.55168    0.00000
   92      9.68104    0.00000
   93      9.74231    0.00000
   94      9.91031    0.00000
   95     10.06253    0.00000
   96     10.17436    0.00000
   97     10.26929    0.00000


Forces in eV/Ang:
  0 C    -0.64137    0.43912    0.00914
  1 C    -0.44067    0.32500   -0.19382
  2 C     0.61906   -0.94620   -0.81699
  3 C     0.11528   -0.40020    1.26554
  4 C     3.30864    0.32977    0.29419
  5 C     0.58870   -1.56666   -0.12260
  6 C    -0.16266    0.07585    0.02384
  7 C     1.54099    0.68999    0.12412
  8 C    -0.50368   -0.34000   -0.05878
  9 C    -1.87062    0.73721    0.62833
 10 C     0.48367   -0.54554   -0.17158
 11 C     0.64520    0.16083   -0.02858
 12 C     0.76679   -1.09558    0.14220
 13 C     0.66978    0.38249   -0.16334
 14 C    -2.12526    1.00337   -0.19345
 15 C    -0.22595   -0.53549   -0.16794
 16 C    -0.05463    0.29570    0.09850
 17 C     0.61185   -0.33259   -1.54954
 18 C    -0.52344   -0.05071    0.81698
 19 C    -0.33438    0.81425    0.68558
 20 C    -1.67524    1.80807   -0.68982
 21 C    -0.86494   -0.46394    0.81258
 22 C     0.08342    0.02496    0.20025
 23 C    -0.04113   -0.71928   -1.00401

System changes: positions 

Initializing position-dependent things.

Density initialized from wave functions
           .--------------------------------------.  
          /|                                      |  
         / |                                      |  
        /  |                                      |  
       /   |                                      |  
      /    |                                      |  
     /     |                                      |  
    /      |             C  C                     |  
   /       |           C                          |  
  /        |    C  C          C  C                |  
 *         |        C   C          C              |  
 |         |  C                     C             |  
 |         .-C--C--C----C-------------------------.  
[...]

Kinetic:       +104.620197
Potential:     -112.452589
External:        +0.000000
XC:            -175.904689
Entropy (-ST):   -0.281909
Local:           +3.042714
--------------------------
Free energy:   -180.976276
Extrapolated:  -180.835322

Fermi level: -4.40068

 Band  Eigenvalues  Occupancy
    0    -23.43585    2.00000
    1    -22.87427    2.00000
    2    -20.95119    2.00000
    3    -20.53398    2.00000
    4    -20.40848    2.00000
    5    -20.28392    2.00000
    6    -19.68476    2.00000
    7    -19.22159    2.00000
    8    -18.51887    2.00000
    9    -18.26135    2.00000
   10    -17.83958    2.00000
   11    -17.06488    2.00000
   12    -16.68805    2.00000
   13    -16.03088    2.00000
   14    -15.79253    2.00000
   15    -14.96404    2.00000
   16    -14.56316    2.00000
   17    -13.80215    2.00000
   18    -13.62031    2.00000
   19    -13.20519    2.00000
   20    -12.61062    2.00000
   21    -12.39683    2.00000
   22    -12.06577    2.00000
   23    -11.10190    2.00000
   24    -10.57042    2.00000
   25    -10.39819    2.00000
   26    -10.18977    2.00000
   27     -9.97634    2.00000
   28     -9.57516    2.00000
   29     -9.16217    2.00000
   30     -9.13040    2.00000
   31     -8.92492    2.00000
   32     -8.65623    2.00000
   33     -8.46204    2.00000
   34     -8.11227    2.00000
   35     -8.01435    2.00000
   36     -7.80573    2.00000
   37     -7.59653    2.00000
   38     -7.50318    2.00000
   39     -7.07086    2.00000
   40     -6.92676    2.00000
   41     -5.87256    2.00000
   42     -5.83000    2.00000
   43     -5.71765    2.00000
   44     -5.48223    1.99996
   45     -5.32599    1.99981
   46     -4.67358    1.87743
   47     -4.51200    1.50546
   48     -4.32003    0.61726
   49     -3.38925    0.00008
   50     -3.07932    0.00000
   51     -2.62522    0.00000
   52     -2.48873    0.00000
   53     -1.64849    0.00000
   54     -1.44019    0.00000
   55     -1.28866    0.00000
   56     -1.08720    0.00000
   57     -0.80224    0.00000
   58     -0.41999    0.00000
   59     -0.28177    0.00000
   60     -0.00099    0.00000
   61      0.89461    0.00000
   62      1.17181    0.00000
   63      2.37423    0.00000
   64      2.60353    0.00000
   65      2.97334    0.00000
   66      3.42287    0.00000
   67      3.74547    0.00000
   68      4.28832    0.00000
   69      4.66221    0.00000
   70      4.78694    0.00000
   71      5.13851    0.00000
   72      5.34390    0.00000
   73      6.18138    0.00000
   74      6.60082    0.00000
   75      6.97836    0.00000
   76      7.25907    0.00000
   77      7.66089    0.00000
   78      7.77693    0.00000
   79      8.14784    0.00000
   80      8.20773    0.00000
   81      8.31599    0.00000
   82      8.57400    0.00000
   83      8.69164    0.00000
   84      8.74556    0.00000
   85      8.99429    0.00000
   86      9.07586    0.00000
   87      9.28761    0.00000
   88      9.45432    0.00000
   89      9.57247    0.00000
   90      9.60967    0.00000
   91      9.69814    0.00000
   92      9.83890    0.00000
   93      9.97618    0.00000
   94     10.08822    0.00000
   95     10.21639    0.00000
   96     10.28966    0.00000
   97     10.40442    0.00000


Forces in eV/Ang:
  0 C     0.07183    0.02973   -0.03882
  1 C     0.04275    0.03290    0.01264
  2 C    -0.01101    0.08076   -0.00789
  3 C     0.05471   -0.02605   -0.05150
  4 C     0.12927    0.02239   -0.02826
  5 C     0.01649    0.09851    0.06916
  6 C     0.00276   -0.01852   -0.05211
  7 C    -0.00964   -0.10142    0.01304
  8 C    -0.04281    0.04206   -0.02844
  9 C    -0.08302    0.13885    0.05404
 10 C    -0.04866   -0.14616    0.03003
 11 C    -0.02052    0.00202   -0.01864
 12 C    -0.05743    0.01695    0.04259
 13 C    -0.08494    0.02710   -0.04043
 14 C     0.02524   -0.01141   -0.05560
 15 C    -0.02509   -0.01848    0.00328
 16 C     0.06895    0.00353    0.01549
 17 C     0.07563   -0.00655   -0.02146
 18 C     0.07342    0.01413    0.00971
 19 C    -0.03551    0.00752   -0.00251
 20 C     0.01670   -0.01195   -0.01791
 21 C    -0.18521   -0.05881    0.00200
 22 C     0.00044   -0.19710    0.06277
 23 C    -0.02091    0.01136   -0.03959

System changes: positions 

Initializing position-dependent things.

Density initialized from wave functions
           .--------------------------------------.  
          /|                                      |  
         / |                                      |  
        /  |                                      |  
       /   |                                      |  
      /    |                                      |  
     /     |                                      |  
    /      |                                      |  
   /       |              C  C  C                 |  
  /        |    C  C   C          C               |  
 *         |                       C              |  
 |         |   C   C   C          C               |  
 |         .--C-C--------C------C-----------------.  
 |        /                 C                    /   
 |       /      C         C                     /    
 |      /        C  C   C                      /     
 |     /                                      /      
 |    /                                      /       
 |   /                                      /        
 |  /                                      /         
 | /                                      /          
 |/                                      /           
 *--------------------------------------*            

Positions:
   0 C      9.839238    5.491586    5.052439
   1 C      8.966020    4.448168    4.708379
   2 C     11.732652    8.731923    5.269541
   3 C      7.361550    6.192545    6.054971
   4 C      9.997712   10.606164    5.781053
   5 C      7.159906    3.068731    3.849948
   6 C     11.431851    7.432375    5.160105
   7 C      8.373796    3.376627    4.048998
   8 C     10.967940    9.736636    5.582398
   9 C      8.443678    5.554841    5.481621
  10 C     10.987801    6.251118    4.967393
  11 C      3.638230    6.286725    5.082269
  12 C      5.068787    4.246352    4.513857
  13 C      4.775777    5.429538    5.212245
  14 C      5.867154    3.384230    4.054979
  15 C      3.620358    7.532699    5.458584
  16 C      4.016654    8.752210    5.860704
  17 C      5.854906    5.991049    6.050369
  18 C      5.266055    8.549986    6.535287
  19 C      5.703897    7.198690    6.814751
  20 C      8.720988   10.427046    6.064042
  21 C      7.489890   10.087070    6.263971
  22 C      6.713401    9.001724    6.556231
  23 C      7.099164    7.528301    6.724833

Unit cell:
           periodic     x           y           z      points  spacing
  1. axis:    yes   16.000000    0.000000    0.000000    80     0.2000
  2. axis:    yes    0.000000   16.000000    0.000000    80     0.2000
  3. axis:    yes    0.000000    0.000000   10.000000    48     0.2083

Effective grid spacing dv^(1/3) = 0.2027

                     log10-error:    total        iterations:
           time      wfs    density  energy       fermi  poisson
iter:   1  09:35:00          +inf  -180.842616    2      4      
iter:   2  09:35:01         -2.73  -180.838618    3      1      
iter:   3  09:35:01         -3.11  -180.837448    2      1      
iter:   4  09:35:02         -3.27  -180.837297    2      1      
iter:   5  09:35:03         -3.41  -180.836685    2      1      
iter:   6  09:35:03         -3.26  -180.837619    3      1      
iter:   7  09:35:04         -3.39  -180.837866    2      1      
iter:   8  09:35:04         -3.30  -180.837068    2      1      
iter:   9  09:35:05         -4.07  -180.837013    1      1      

Converged after 9 iterations.

Dipole moment: (0.137508, -0.434179, 0.118522) |e|*Ang

Energy contributions relative to reference atoms: (reference = -24663.074771)

Kinetic:       +104.704611
Potential:     -112.505403
External:        +0.000000
XC:            -175.924639
Entropy (-ST):   -0.282794
Local:           +3.029815
--------------------------
Free energy:   -180.978409
Extrapolated:  -180.837013

Fermi level: -4.40186

 Band  Eigenvalues  Occupancy
    0    -23.44457    2.00000
    1    -22.86924    2.00000
    2    -20.95662    2.00000
    3    -20.53331    2.00000
    4    -20.40827    2.00000
    5    -20.28580    2.00000
    6    -19.67949    2.00000
    7    -19.22599    2.00000
    8    -18.51917    2.00000
    9    -18.26335    2.00000
   10    -17.84361    2.00000
   11    -17.06793    2.00000
   12    -16.69268    2.00000
   13    -16.02865    2.00000
   14    -15.79282    2.00000
   15    -14.96164    2.00000
   16    -14.56455    2.00000
   17    -13.79473    2.00000
   18    -13.62290    2.00000
   19    -13.21203    2.00000
   20    -12.61103    2.00000
   21    -12.39972    2.00000
   22    -12.06157    2.00000
   23    -11.10928    2.00000
   24    -10.57274    2.00000
   25    -10.39764    2.00000
   26    -10.19483    2.00000
   27     -9.97549    2.00000
   28     -9.57988    2.00000
   29     -9.16007    2.00000
   30     -9.13187    2.00000
   31     -8.92438    2.00000
   32     -8.65608    2.00000
   33     -8.46227    2.00000
   34     -8.10668    2.00000
   35     -8.01243    2.00000
   36     -7.80675    2.00000
   37     -7.59448    2.00000
   38     -7.50122    2.00000
   39     -7.07243    2.00000
   40     -6.92664    2.00000
   41     -5.87150    2.00000
   42     -5.82831    2.00000
   43     -5.71837    2.00000
   44     -5.48759    1.99996
   45     -5.32652    1.99981
   46     -4.67282    1.87519
   47     -4.51304    1.50495
   48     -4.32185    0.62001
   49     -3.38853    0.00008
   50     -3.07767    0.00000
   51     -2.62027    0.00000
   52     -2.48809    0.00000
   53     -1.64938    0.00000
   54     -1.43701    0.00000
   55     -1.29462    0.00000
   56     -1.08543    0.00000
   57     -0.80299    0.00000
   58     -0.42316    0.00000
   59     -0.28972    0.00000
   60     -0.00221    0.00000
   61      0.89515    0.00000
   62      1.16983    0.00000
   63      2.37351    0.00000
   64      2.60264    0.00000
   65      2.96989    0.00000
   66      3.43788    0.00000
   67      3.73709    0.00000
   68      4.28759    0.00000
   69      4.65721    0.00000
   70      4.78322    0.00000
   71      5.15158    0.00000
   72      5.34652    0.00000
   73      6.17136    0.00000
   74      6.60708    0.00000
   75      6.97404    0.00000
   76      7.27087    0.00000
   77      7.65040    0.00000
   78      7.77407    0.00000
   79      8.14875    0.00000
   80      8.20432    0.00000
   81      8.31754    0.00000
   82      8.57066    0.00000
   83      8.69505    0.00000
   84      8.74409    0.00000
   85      8.99477    0.00000
   86      9.07530    0.00000
   87      9.29021    0.00000
   88      9.45471    0.00000
   89      9.57708    0.00000
   90      9.61363    0.00000
   91      9.70216    0.00000
   92      9.84272    0.00000
   93      9.97585    0.00000
   94     10.09430    0.00000
   95     10.22049    0.00000
   96     10.29083    0.00000
   97     10.40144    0.00000


Forces in eV/Ang:
  0 C     0.03643    0.00656   -0.03725
  1 C     0.01900    0.01907    0.01523
  2 C    -0.00127    0.05536   -0.03161
  3 C     0.00812   -0.00099   -0.04548
  4 C     0.02882    0.02542   -0.01146
  5 C     0.00268    0.06300    0.05057
  6 C    -0.00644   -0.01227   -0.04245
  7 C     0.03918   -0.06223    0.02177
  8 C    -0.01354    0.01518   -0.02842
  9 C    -0.03404    0.06663    0.03594
 10 C     0.01889   -0.05487    0.02478
 11 C    -0.03023    0.00691   -0.02007
 12 C    -0.04537    0.01365    0.02706
 13 C    -0.05143   -0.00041   -0.02145
 14 C    -0.00196    0.00602   -0.03818
 15 C    -0.00524    0.02113    0.02023
 16 C     0.06743   -0.02881    0.00057
 17 C     0.03835    0.01203   -0.01236
 18 C     0.02943    0.00437    0.02115
 19 C    -0.03172   -0.02944   -0.00354
 20 C    -0.05103   -0.03757   -0.01252
 21 C    -0.01139    0.00096   -0.02137
 22 C     0.01959   -0.14340    0.03171
 23 C    -0.01998    0.00339   -0.00273

System changes: positions 

Initializing position-dependent things.

Density initialized from wave functions
           .--------------------------------------.  
          /|                                      |  
         / |                                      |  
        /  |                                      |  
       /   |                                      |  
      /    |                                      |  
     /     |                                      |  
    /      |                                      |  
   /       |              C  C  C                 |  
  /        |       C   C          C               |  
 *         |    C                  C              |  
 |         |   C   C   C          C               |  
 |         .--C-C--------C------C-----------------.  
 |        /                 C                    /   
 |       /      C         C                     /    
 |      /        C  C   C                      /     
 |     /                                      /      
 |    /                                      /       
 |   /                                      /        
 |  /                                      /         
 | /                                      /          
 |/                                      /           
 *--------------------------------------*            

Positions:
   0 C      9.843138    5.491139    5.051694
   1 C      8.968260    4.450313    4.705519
   2 C     11.731752    8.731920    5.268688
   3 C      7.364422    6.191203    6.056488
   4 C      9.996447   10.607856    5.778222
   5 C      7.158836    3.075587    3.854014
   6 C     11.433160    7.430872    5.160790
   7 C      8.375393    3.376856    4.048048
   8 C     10.964105    9.736630    5.576589
   9 C      8.446154    5.557932    5.481277
  10 C     10.994920    6.246222    4.970248
  11 C      3.636820    6.287097    5.080814
  12 C      5.064400    4.246118    4.516642
  13 C      4.773697    5.431222    5.211244
  14 C      5.865074    3.386267    4.056139
  15 C      3.620361    7.533860    5.455535
  16 C      4.021627    8.751805    5.855981
  17 C      5.857200    5.990572    6.049201
  18 C      5.268276    8.549043    6.534337
  19 C      5.704422    7.196844    6.814173
  20 C      8.718251   10.428748    6.063261
  21 C      7.487947   10.086051    6.268453
  22 C      6.714711    8.997363    6.561948
  23 C      7.100372    7.526621    6.726978

Unit cell:
           periodic     x           y           z      points  spacing
  1. axis:    yes   16.000000    0.000000    0.000000    80     0.2000
  2. axis:    yes    0.000000   16.000000    0.000000    80     0.2000
  3. axis:    yes    0.000000    0.000000   10.000000    48     0.2083

Effective grid spacing dv^(1/3) = 0.2027

                     log10-error:    total        iterations:
           time      wfs    density  energy       fermi  poisson
iter:   1  09:35:07          +inf  -180.847536    3      4      
iter:   2  09:35:07         -2.53  -180.840104    3      1      
iter:   3  09:35:08         -3.06  -180.839078    2      1      
iter:   4  09:35:09         -3.16  -180.839820    2      1      
iter:   5  09:35:09         -3.24  -180.839304    3      1      
iter:   6  09:35:10         -3.12  -180.839681    2      1      
iter:   7  09:35:10         -3.66  -180.841667    3      1      
iter:   8  09:35:11         -2.91  -180.839245    3      1      
iter:   9  09:35:11         -4.05  -180.838682    2      1      

Converged after 9 iterations.

Dipole moment: (0.127670, -0.431821, 0.118888) |e|*Ang

Energy contributions relative to reference atoms: (reference = -24663.074771)

Kinetic:       +104.394323
Potential:     -112.260846
External:        +0.000000
XC:            -175.847753
Entropy (-ST):   -0.284028
Local:           +3.017607
--------------------------
Free energy:   -180.980696
Extrapolated:  -180.838682

Fermi level: -4.40497

 Band  Eigenvalues  Occupancy
    0    -23.45132    2.00000
    1    -22.85170    2.00000
    2    -20.96224    2.00000
    3    -20.53155    2.00000
    4    -20.40789    2.00000
    5    -20.28571    2.00000
    6    -19.67284    2.00000
    7    -19.22974    2.00000
    8    -18.51858    2.00000
    9    -18.26663    2.00000
   10    -17.84561    2.00000
   11    -17.07274    2.00000
   12    -16.70038    2.00000
   13    -16.02079    2.00000
   14    -15.78997    2.00000
   15    -14.95616    2.00000
   16    -14.56536    2.00000
   17    -13.78548    2.00000
   18    -13.62199    2.00000
   19    -13.22315    2.00000
   20    -12.60636    2.00000
   21    -12.40239    2.00000
   22    -12.05609    2.00000
   23    -11.11810    2.00000
   24    -10.57259    2.00000
   25    -10.39485    2.00000
   26    -10.20184    2.00000
   27     -9.96964    2.00000
   28     -9.58347    2.00000
   29     -9.15478    2.00000
   30     -9.13375    2.00000
   31     -8.92153    2.00000
   32     -8.65329    2.00000
   33     -8.46238    2.00000
   34     -8.09922    2.00000
   35     -8.00759    2.00000
   36     -7.81070    2.00000
   37     -7.59247    2.00000
   38     -7.49862    2.00000
   39     -7.07203    2.00000
   40     -6.92962    2.00000
   41     -5.87047    2.00000
   42     -5.82766    2.00000
   43     -5.71995    2.00000
   44     -5.49535    1.99996
   45     -5.32645    1.99980
   46     -4.67439    1.87337
   47     -4.51532    1.50182
   48     -4.32611    0.62497
   49     -3.39072    0.00008
   50     -3.07727    0.00000
   51     -2.61724    0.00000
   52     -2.48968    0.00000
   53     -1.65177    0.00000
   54     -1.43345    0.00000
   55     -1.30358    0.00000
   56     -1.08778    0.00000
   57     -0.80370    0.00000
   58     -0.43104    0.00000
   59     -0.30057    0.00000
   60     -0.00617    0.00000
   61      0.89026    0.00000
   62      1.16409    0.00000
   63      2.36257    0.00000
   64      2.59782    0.00000
   65      2.96107    0.00000
   66      3.44897    0.00000
   67      3.72603    0.00000
   68      4.28648    0.00000
   69      4.64778    0.00000
   70      4.77876    0.00000
   71      5.16632    0.00000
   72      5.36047    0.00000
   73      6.15138    0.00000
   74      6.62381    0.00000
   75      6.95611    0.00000
   76      7.28476    0.00000
   77      7.64143    0.00000
   78      7.75598    0.00000
   79      8.14470    0.00000
   80      8.19053    0.00000
   81      8.31612    0.00000
   82      8.56404    0.00000
   83      8.69419    0.00000
   84      8.73615    0.00000
   85      8.99278    0.00000
   86      9.07195    0.00000
   87      9.28916    0.00000
   88      9.45543    0.00000
   89      9.57636    0.00000
   90      9.61706    0.00000
   91      9.69873    0.00000
   92      9.84403    0.00000
   93      9.97089    0.00000
   94     10.09354    0.00000
   95     10.21965    0.00000
   96     10.28881    0.00000
   97     10.40006    0.00000


Forces in eV/Ang:
  0 C    -0.00084   -0.00234   -0.02030
  1 C    -0.01803    0.03905    0.05358
  2 C    -0.02314    0.01293   -0.04205
  3 C    -0.04395    0.04288   -0.02842
  4 C    -0.06531    0.03235   -0.01393
  5 C     0.01281    0.04798    0.04038
  6 C     0.00097    0.01925   -0.04026
  7 C     0.04126   -0.03401    0.03111
  8 C     0.02105   -0.01068   -0.00707
  9 C     0.06135   -0.02684   -0.03073
 10 C     0.03514   -0.00317    0.01215
 11 C    -0.03866    0.04345   -0.00893
 12 C    -0.01556   -0.02208   -0.01755
 13 C    -0.01039   -0.01523    0.00555
 14 C    -0.01684    0.02212   -0.02092
 15 C     0.01120    0.01672    0.01942
 16 C     0.06153   -0.04883    0.01618
 17 C    -0.01634    0.00617   -0.02466
 18 C     0.00200   -0.02401    0.04213
 19 C    -0.01903   -0.05210   -0.00435
 20 C    -0.02548   -0.05743   -0.00639
 21 C     0.05816    0.00708   -0.03184
 22 C     0.05995   -0.04049   -0.00499
 23 C    -0.03439   -0.01198    0.01564

