
  ___ ___ ___ _ _ _  
 |   |   |_  | | | | 
 | | | | | . | | | | 
 |__ |  _|___|_____|  1.3.0b1
 |___|_|             

User:   esb@s65n12.grendel.cscaa.dk
Date:   Thu Nov  9 10:52:52 2017
Arch:   x86_64
Pid:    20232
Python: 2.7.13
gpaw:   /home/esb/DFT/gpaw_git/gpaw
_gpaw:  /home/esb/DFT/gpaw_git/build/bin.linux-x86_64-2.7/gpaw-python
ase:    /home/esb/DFT/ase_git/ase (version 3.15.0b1)
numpy:  /comm/swstack/core/python/2.7.13/lib/python2.7/site-packages/numpy (version 1.13.3)
scipy:  /comm/swstack/core/python/2.7.13/lib/python2.7/site-packages/scipy (version 0.19.1)
units:  Angstrom and eV
cores:  16
Extra parameters: {'blacs': True}

Input parameters:
  basis: dzp
  gpts: [80 80 48]
  kpts: [1 1 1]
  maxiter: 99
  mixer: {backend: pulay,
          beta: 0.05,
          method: separate,
          nmaxold: 5,
          weight: 75}
  mode: lcao
  nbands: -50
  occupations: {name: fermi-dirac,
                width: 0.1}
  poissonsolver: {eps: 1e-07,
                  name: fd,
                  nn: 3,
                  relax: GS}
  xc: PBE

System changes: positions, numbers, cell, pbc, initial_charges, initial_magmoms 

Initialize ...

C-setup:
  name: Carbon
  id: 4aa54d4b901d75f77cc0ea3eec22967b
  Z: 6
  valence: 4
  core: 2
  charge: 0.0
  file: /home/esb/DFT/gpaw-setups-0.8.7929/C.PBE.gz
  cutoffs: 0.64(comp), 1.14(filt), 1.14(core), lmax=2
  valence states:
                energy  radius
    2s(2.00)   -13.751   0.635
    2p(2.00)    -5.284   0.635
    *s          13.461   0.635
    *p          21.927   0.635
    *d           0.000   0.635

  LCAO basis set for C:
    Name: dzp
    File: /home/esb/DFT/gpaw-setups-0.8.7929/C.dzp.basis.gz
    Number of radial functions: 5
    Number of spherical harmonics: 13
      l=0, rc=5.5469 Bohr: 2s-sz confined orbital
      l=1, rc=6.6719 Bohr: 2p-sz confined orbital
      l=0, rc=3.0312 Bohr: 2s-dz split-valence wave
      l=1, rc=3.7500 Bohr: 2p-dz split-valence wave
      l=2, rc=6.6719 Bohr: d-type Gaussian polarization

Reference energy: -24663.074771

Spin-paired calculation

Occupation numbers:
  Fermi-Dirac: width=0.1000 eV

Convergence criteria:
  Maximum total energy change: 0.0005 eV / electron
  Maximum integral of absolute density change: 0.0001 electrons
  Maximum integral of absolute eigenstate change: 4e-08 eV^2
  Maximum number of iterations: 99

Symmetries present (total): 1

  ( 1  0  0)
  ( 0  1  0)
  ( 0  0  1)

1 k-point (Gamma)
1 k-point in the irreducible part of the Brillouin zone
       k-points in crystal coordinates                weights
   0:     0.00000000    0.00000000    0.00000000          1/1

Wave functions: LCAO
  Diagonalizer: Serial LAPACK
  Atomic Correction: dense with blas
  Datatype: float
  Eigensolver: None 

LCAO using direct dense diagonalizer 

Densities:
  Coarse grid: 80*80*48 grid
  Fine grid: 160*160*96 grid
  Total Charge: 0.000000 

Density mixing:
  Method: separate
  Backend: pulay
  Linear mixing parameter: 0.05
  Mixing with 5 old densities
  Damping of long wave oscillations: 75 

Hamiltonian:
  XC and Coulomb potentials evaluated on a 160*160*96 grid
  Using the PBE Exchange-Correlation functional
  Interpolation: tri-quintic (5. degree polynomial)
  Poisson solver: Gauss-Seidel solver with 6 multi-grid levels
    Coarsest grid: 5 x 5 x 3 points
    Stencil: 6*3+1=19 point O(h^6) finite-difference Laplacian
    Max iterations: 1000
    Tolerance: 1.000000e-07 

Memory estimate:
  Process memory now: 77.55 MiB
  Calculator: 15.59 MiB
    Density: 6.13 MiB
      Arrays: 3.81 MiB
      Localized functions: 0.86 MiB
      Mixer: 1.46 MiB
    Hamiltonian: 5.40 MiB
      Arrays: 2.49 MiB
      XC: 0.00 MiB
      Poisson: 2.85 MiB
      vbar: 0.07 MiB
    Wavefunctions: 4.05 MiB
      C [qnM]: 0.23 MiB
      S, T [2 x qmm]: 1.49 MiB
      P [aqMi]: 0.01 MiB
      TCI: 0.00 MiB
      BasisFunctions: 2.33 MiB
      Eigensolver: 0.00 MiB

Total number of cores used: 16
Domain decomposition: 2 x 4 x 2

Number of atoms: 24
Number of atomic orbitals: 312
Number of bands in calculation: 98
Bands to converge: occupied states only
Number of valence electrons: 96

... initialized

Initializing position-dependent things.

Density initialized from atomic densities
           .--------------------------------------.  
          /|                                      |  
         / |                                      |  
        /  |                                      |  
       /   |                                      |  
      /    |                                      |  
     /     |                                      |  
    /      |                                      |  
   /       |       C             C                |  
  /        | CC      C            C               |  
 *         |C            C C C    C               |  
 |         |  C     C   C     C  C                |  
 |         .----C--------C------------------------.  
 |        /          C      C                    /   
 |       /          C  C                        /    
 |      /                C                     /     
 |     /                                      /      
 |    /                                      /       
 |   /                                      /        
 |  /                                      /         
 | /                                      /          
 |/                                      /           
 *--------------------------------------*            

Positions:
   0 C     10.924983    9.583195    5.566326
   1 C     11.488699    8.418328    5.478877
   2 C     10.033563    6.807713    5.705122
   3 C     11.347805    7.106017    5.310168
   4 C     10.245334   10.834145    5.647999
   5 C      8.999319    3.522620    4.191600
   6 C      9.542181    5.276789    5.013189
   7 C      9.248066    9.509327    4.722975
   8 C      7.119319    9.875273    4.753873
   9 C      5.813460   10.054829    5.687124
  10 C      8.085363    3.596956    4.939934
  11 C      7.437776    7.709797    5.343433
  12 C      8.314814    6.101170    5.038309
  13 C      6.030449    7.463140    5.307907
  14 C      6.837665    4.055964    4.964471
  15 C      8.306078    8.918050    5.313529
  16 C      6.966450    5.457200    5.021648
  17 C      2.606930   10.580814    5.427454
  18 C      2.430586    9.157365    5.895387
  19 C      4.590607   10.414242    5.890251
  20 C      2.543378    7.878158    5.721057
  21 C      3.492019    7.086450    5.479086
  22 C      4.522968    6.459664    5.215783
  23 C      6.555734    6.391367    4.447201

Unit cell:
           periodic     x           y           z      points  spacing
  1. axis:    yes   16.000000    0.000000    0.000000    80     0.2000
  2. axis:    yes    0.000000   16.000000    0.000000    80     0.2000
  3. axis:    yes    0.000000    0.000000   10.000000    48     0.2083

Effective grid spacing dv^(1/3) = 0.2027

                     log10-error:    total        iterations:
           time      wfs    density  energy       fermi  poisson
iter:   1  10:52:54          +inf  -157.453077    2      6      
iter:   2  10:52:54         -0.89  -155.988813    3      3      
iter:   3  10:52:55         -0.92  -153.906935    4      3      
iter:   4  10:52:55         -1.03  -152.873299    4      3      
iter:   5  10:52:56         -1.18  -152.394237    32     3      
iter:   6  10:52:56         -1.40  -152.310009    4      3      
iter:   7  10:52:57         -1.59  -152.249749    3      3      
iter:   8  10:52:57         -1.70  -152.204363    3      3      
iter:   9  10:52:58         -1.86  -152.191452    3      2      
iter:  10  10:52:58         -1.97  -152.180964    3      2      
iter:  11  10:52:59         -2.09  -152.172063    3      2      
iter:  12  10:52:59         -2.18  -152.163543    3      2      
iter:  13  10:53:00         -2.35  -152.160301    3      2      
iter:  14  10:53:00         -2.57  -152.160076    3      2      
iter:  15  10:53:01         -2.88  -152.165434    2      1      
iter:  16  10:53:01         -2.93  -152.163690    3      2      
iter:  17  10:53:02         -3.35  -152.161406    2      1      
iter:  18  10:53:02         -3.42  -152.165713    2      1      
iter:  19  10:53:03         -3.61  -152.163245    2      1      
iter:  20  10:53:03         -3.67  -152.160891    2      1      
iter:  21  10:53:04         -3.95  -152.162922    2      1      
iter:  22  10:53:04         -4.07  -152.162077    2      1      

Converged after 22 iterations.

Dipole moment: (-0.197412, -0.188304, 0.371849) |e|*Ang

Energy contributions relative to reference atoms: (reference = -24663.074771)

Kinetic:       +120.734424
Potential:     -119.545813
External:        +0.000000
XC:            -155.973211
Entropy (-ST):   -0.412859
Local:           +2.828952
--------------------------
Free energy:   -152.368507
Extrapolated:  -152.162077

Fermi level: -4.75162

 Band  Eigenvalues  Occupancy
    0    -24.69488    2.00000
    1    -21.99201    2.00000
    2    -21.62725    2.00000
    3    -21.30187    2.00000
    4    -20.91265    2.00000
    5    -19.80628    2.00000
    6    -19.61981    2.00000
    7    -19.15225    2.00000
    8    -18.63520    2.00000
    9    -18.28269    2.00000
   10    -17.40728    2.00000
   11    -17.26696    2.00000
   12    -16.74455    2.00000
   13    -15.80486    2.00000
   14    -15.61491    2.00000
   15    -14.74510    2.00000
   16    -14.50101    2.00000
   17    -13.66488    2.00000
   18    -12.71844    2.00000
   19    -11.96430    2.00000
   20    -11.68275    2.00000
   21    -11.37051    2.00000
   22    -11.13997    2.00000
   23    -10.46937    2.00000
   24    -10.15201    2.00000
   25     -9.77378    2.00000
   26     -9.62247    2.00000
   27     -9.56788    2.00000
   28     -9.08214    2.00000
   29     -8.98461    2.00000
   30     -8.80763    2.00000
   31     -8.48083    2.00000
   32     -8.33590    2.00000
   33     -8.02040    2.00000
   34     -7.70147    2.00000
   35     -7.56120    2.00000
   36     -7.44738    2.00000
   37     -7.19990    2.00000
   38     -7.07581    2.00000
   39     -6.83135    2.00000
   40     -6.68671    2.00000
   41     -6.38051    2.00000
   42     -6.10452    2.00000
   43     -5.78928    1.99994
   44     -5.63142    1.99970
   45     -5.22425    1.98244
   46     -5.02980    1.88336
   47     -4.78795    1.17967
   48     -4.66726    0.60156
   49     -4.59236    0.33804
   50     -4.25742    0.01418
   51     -3.99642    0.00105
   52     -3.70609    0.00006
   53     -3.51418    0.00001
   54     -3.12644    0.00000
   55     -2.92334    0.00000
   56     -2.67055    0.00000
   57     -2.65470    0.00000
   58     -1.66617    0.00000
   59     -1.30929    0.00000
   60     -1.13729    0.00000
   61     -1.02388    0.00000
   62     -0.75415    0.00000
   63     -0.35662    0.00000
   64      0.45391    0.00000
   65      0.58740    0.00000
   66      0.83418    0.00000
   67      1.09373    0.00000
   68      1.19050    0.00000
   69      1.47217    0.00000
   70      1.55777    0.00000
   71      1.80583    0.00000
   72      2.32082    0.00000
   73      2.80777    0.00000
   74      3.57448    0.00000
   75      3.96408    0.00000
   76      4.79083    0.00000
   77      5.50289    0.00000
   78      5.59450    0.00000
   79      5.84642    0.00000
   80      6.39105    0.00000
   81      6.54906    0.00000
   82      7.14985    0.00000
   83      7.50826    0.00000
   84      8.00210    0.00000
   85      8.22214    0.00000
   86      8.38782    0.00000
   87      8.61905    0.00000
   88      8.74755    0.00000
   89      8.83212    0.00000
   90      9.01864    0.00000
   91      9.06552    0.00000
   92      9.14611    0.00000
   93      9.28388    0.00000
   94      9.47432    0.00000
   95      9.56890    0.00000
   96      9.65091    0.00000
   97      9.81409    0.00000


Forces in eV/Ang:
  0 C    -1.36865    3.21476   -0.76169
  1 C     0.88183   -0.19721    0.02632
  2 C     2.58429   -4.60644   -2.24599
  3 C    -1.03201    0.78235    1.42262
  4 C    -0.20576   -3.68192   -1.52012
  5 C    11.13541    0.51276   -6.41798
  6 C    -2.99533    3.12072    0.18715
  7 C     7.53935    5.78060   -0.35310
  8 C    -3.17328    0.23169    2.22219
  9 C     2.19845    0.06070   -2.19236
 10 C    -9.05191   -1.01971    7.08332
 11 C     3.10733    0.84940    1.92082
 12 C    -0.32508    0.35685    1.53833
 13 C    -0.52104   -1.30893   -2.64810
 14 C    -0.48836    0.15949    0.50112
 15 C    -8.81250   -3.47465    2.12056
 16 C     6.12880  -15.59509    5.01562
 17 C     2.51300   -3.56822    2.16573
 18 C     0.80645    3.94019   -1.15110
 19 C    -2.11917   -0.26036   -0.97752
 20 C    -3.43683    3.05245    0.48466
 21 C    -1.08486    0.11693    0.44077
 22 C     6.75872   -1.11047   -0.12475
 23 C    -9.02343   12.59471   -6.79773

System changes: positions 

Initializing position-dependent things.

Density initialized from wave functions
           .--------------------------------------.  
          /|                                      |  
         / |                                      |  
        /  |                                      |  
       /   |                                      |  
      /    |                                      |  
     /     |                                      |  
    /      |                                      |  
   /       |       C             C                |  
  /        | CC      C            C               |  
 *         |C            C C  C   C               |  
 |         |  C     C   C     C  C                |  
 |         .----C--------C------------------------.  
 |        /          C      C                    /   
 |       /          C  C                        /    
 |      /                C                     /     
 |     /                                      /      
 |    /                                      /       
 |   /                                      /        
 |  /                                      /         
 | /                                      /          
 |/                                      /           
 *--------------------------------------*            

Positions:
   0 C     10.921853    9.590546    5.564584
   1 C     11.490715    8.417877    5.478937
   2 C     10.039473    6.797178    5.699986
   3 C     11.345445    7.107807    5.313422
   4 C     10.244863   10.825725    5.644523
   5 C      9.024785    3.523793    4.176922
   6 C      9.535331    5.283926    5.013617
   7 C      9.265308    9.522547    4.722168
   8 C      7.112062    9.875803    4.758955
   9 C      5.818487   10.054968    5.682110
  10 C      8.064662    3.594624    4.956133
  11 C      7.444882    7.711740    5.347826
  12 C      8.314070    6.101986    5.041827
  13 C      6.029258    7.460147    5.301851
  14 C      6.836548    4.056329    4.965617
  15 C      8.285924    8.910104    5.318378
  16 C      6.980466    5.421535    5.033118
  17 C      2.612677   10.572654    5.432407
  18 C      2.432430    9.166376    5.892754
  19 C      4.585761   10.413646    5.888015
  20 C      2.535519    7.885138    5.722166
  21 C      3.489538    7.086718    5.480094
  22 C      4.538424    6.457125    5.215498
  23 C      6.535098    6.420170    4.431655

Unit cell:
           periodic     x           y           z      points  spacing
  1. axis:    yes   16.000000    0.000000    0.000000    80     0.2000
  2. axis:    yes    0.000000   16.000000    0.000000    80     0.2000
  3. axis:    yes    0.000000    0.000000   10.000000    48     0.2083

Effective grid spacing dv^(1/3) = 0.2027

                     log10-error:    total        iterations:
           time      wfs    density  energy       fermi  poisson
iter:   1  10:53:06          +inf  -154.858063    2      5      
iter:   2  10:53:06         -1.64  -154.659379    2      2      
iter:   3  10:53:07         -1.92  -154.631178    2      2      
iter:   4  10:53:07         -2.05  -154.611056    3      2      
iter:   5  10:53:08         -2.24  -154.606097    3      2      
iter:   6  10:53:08         -2.42  -154.603478    2      2      
iter:   7  10:53:09         -2.58  -154.600171    2      2      
iter:   8  10:53:09         -2.82  -154.599411    2      2      
iter:   9  10:53:10         -2.95  -154.599531    2      2      
iter:  10  10:53:10         -3.16  -154.599140    2      1      
iter:  11  10:53:11         -3.29  -154.597324    2      1      
iter:  12  10:53:11         -3.44  -154.598228    2      1      
iter:  13  10:53:12         -3.60  -154.599036    1      1      
iter:  14  10:53:12         -3.83  -154.598346    2      1      
iter:  15  10:53:13         -4.01  -154.598948    2      1      

Converged after 15 iterations.

Dipole moment: (-0.205748, -0.202470, 0.386197) |e|*Ang

Energy contributions relative to reference atoms: (reference = -24663.074771)

Kinetic:       +104.219846
Potential:     -107.576038
External:        +0.000000
XC:            -153.800779
Entropy (-ST):   -0.424961
Local:           +2.770503
--------------------------
Free energy:   -154.811429
Extrapolated:  -154.598948

Fermi level: -4.75749

 Band  Eigenvalues  Occupancy
    0    -24.36234    2.00000
    1    -21.93772    2.00000
    2    -21.62208    2.00000
    3    -21.27048    2.00000
    4    -20.85637    2.00000
    5    -19.81095    2.00000
    6    -19.51216    2.00000
    7    -19.10270    2.00000
    8    -18.64932    2.00000
    9    -18.29312    2.00000
   10    -17.37796    2.00000
   11    -17.15203    2.00000
   12    -16.77598    2.00000
   13    -15.81554    2.00000
   14    -15.58428    2.00000
   15    -14.75740    2.00000
   16    -14.42006    2.00000
   17    -13.68722    2.00000
   18    -12.78820    2.00000
   19    -11.92471    2.00000
   20    -11.68986    2.00000
   21    -11.27615    2.00000
   22    -11.08839    2.00000
   23    -10.38135    2.00000
   24    -10.16110    2.00000
   25     -9.76781    2.00000
   26     -9.61229    2.00000
   27     -9.55196    2.00000
   28     -9.04033    2.00000
   29     -8.98814    2.00000
   30     -8.78593    2.00000
   31     -8.49013    2.00000
   32     -8.26494    2.00000
   33     -7.96771    2.00000
   34     -7.73588    2.00000
   35     -7.56720    2.00000
   36     -7.41615    2.00000
   37     -7.21620    2.00000
   38     -7.11374    2.00000
   39     -6.82027    2.00000
   40     -6.63202    2.00000
   41     -6.37619    2.00000
   42     -6.16153    2.00000
   43     -5.78141    1.99993
   44     -5.60732    1.99959
   45     -5.22550    1.98161
   46     -5.01965    1.86448
   47     -4.78187    1.12131
   48     -4.69542    0.69928
   49     -4.59010    0.31583
   50     -4.28177    0.01703
   51     -3.98611    0.00089
   52     -3.66500    0.00004
   53     -3.45057    0.00000
   54     -3.09889    0.00000
   55     -2.95727    0.00000
   56     -2.66334    0.00000
   57     -2.62111    0.00000
   58     -1.65682    0.00000
   59     -1.33725    0.00000
   60     -1.09364    0.00000
   61     -0.93833    0.00000
   62     -0.69240    0.00000
   63     -0.34659    0.00000
   64      0.35308    0.00000
   65      0.70331    0.00000
   66      0.82862    0.00000
   67      1.05791    0.00000
   68      1.17282    0.00000
   69      1.37009    0.00000
   70      1.45834    0.00000
   71      1.68547    0.00000
   72      2.32117    0.00000
   73      2.74430    0.00000
   74      3.60565    0.00000
   75      4.02811    0.00000
   76      4.93453    0.00000
   77      5.62192    0.00000
   78      5.72644    0.00000
   79      6.05880    0.00000
   80      6.50621    0.00000
   81      6.57836    0.00000
   82      7.19618    0.00000
   83      7.47689    0.00000
   84      8.02825    0.00000
   85      8.22373    0.00000
   86      8.41577    0.00000
   87      8.57930    0.00000
   88      8.74968    0.00000
   89      8.87065    0.00000
   90      9.03311    0.00000
   91      9.10847    0.00000
   92      9.20901    0.00000
   93      9.32331    0.00000
   94      9.43843    0.00000
   95      9.46893    0.00000
   96      9.66784    0.00000
   97      9.77068    0.00000


Forces in eV/Ang:
  0 C    -1.04306    2.19499   -0.92696
  1 C     0.74822    0.38727    0.03635
  2 C     2.10671   -5.12981   -2.37813
  3 C    -0.84870    0.84549    1.41649
  4 C    -0.57295   -3.23660   -1.60216
  5 C     6.85922    0.79952   -2.83442
  6 C    -2.62707    3.08778    0.25757
  7 C     5.77591    4.72544    1.03535
  8 C    -2.98990    0.13756    2.42507
  9 C     1.56602    0.25310   -2.16052
 10 C    -3.80166   -1.95649    3.54184
 11 C     2.85234    0.36202    1.90820
 12 C    -0.68858   -0.00143    1.62198
 13 C    -0.46990   -1.35562   -2.30502
 14 C    -0.97304   -0.02724    0.40632
 15 C    -6.82569   -1.94680    0.68843
 16 C     3.35669   -7.70160    1.68916
 17 C     2.58670   -3.28152    2.12290
 18 C     0.84546    3.70843   -1.09029
 19 C    -1.63754   -0.39968   -1.06702
 20 C    -2.83093    2.44487    0.33390
 21 C    -0.48332   -0.07148    0.30823
 22 C     5.53727   -0.42203    0.10888
 23 C    -6.44229    6.50792   -3.55343

System changes: positions 

Initializing position-dependent things.

Density initialized from wave functions
           .--------------------------------------.  
          /|                                      |  
         / |                                      |  
        /  |                                      |  
       /   |                                      |  
      /    |                                      |  
     /     |                                      |  
    /      |                                      |  
   /       |       C             C                |  
  /        | CC      C            C               |  
 *         |C           C  C  C   C               |  
 |         |  C     C   C     C  C                |  
 |         .----C--------C------------------------.  
 |        /          C      C                    /   
 |       /          C  C                        /    
 |      /                C                     /     
 |     /                                      /      
 |    /                                      /       
 |   /                                      /        
 |  /                                      /         
 | /                                      /          
 |/                                      /           
 *--------------------------------------*            

Positions:
   0 C     10.916808    9.599547    5.557904
   1 C     11.494817    8.423158    5.479216
   2 C     10.050533    6.762102    5.684258
   3 C     11.340946    7.113476    5.322379
   4 C     10.239454   10.807341    5.633961
   5 C      9.047648    3.530251    4.176250
   6 C      9.520442    5.303358    5.015591
   7 C      9.293436    9.547432    4.735444
   8 C      7.093977    9.876221    4.775322
   9 C      5.825369   10.057503    5.668555
  10 C      8.065904    3.577685    4.961497
  11 C      7.461748    7.711682    5.359873
  12 C      8.307945    6.100246    5.052522
  13 C      6.026523    7.451320    5.288883
  14 C      6.828033    4.055254    4.967737
  15 C      8.252214    8.905132    5.315828
  16 C      6.988372    5.410802    5.027766
  17 C      2.629446   10.553218    5.445669
  18 C      2.437983    9.188786    5.886131
  19 C      4.577698   10.410438    5.880813
  20 C      2.520484    7.897716    5.723556
  21 C      3.489378    7.085354    5.481410
  22 C      4.567657    6.457773    5.217318
  23 C      6.506691    6.432058    4.424781

Unit cell:
           periodic     x           y           z      points  spacing
  1. axis:    yes   16.000000    0.000000    0.000000    80     0.2000
  2. axis:    yes    0.000000   16.000000    0.000000    80     0.2000
  3. axis:    yes    0.000000    0.000000   10.000000    48     0.2083

Effective grid spacing dv^(1/3) = 0.2027

                     log10-error:    total        iterations:
           time      wfs    density  energy       fermi  poisson
iter:   1  10:53:14          +inf  -157.249561    3      5      
iter:   2  10:53:15         -1.52  -156.885091    3      2      
iter:   3  10:53:15         -1.83  -156.823955    3      2      
iter:   4  10:53:16         -1.97  -156.788003    3      2      
iter:   5  10:53:16         -2.16  -156.780353    3      2      
iter:   6  10:53:17         -2.30  -156.776704    2      2      
iter:   7  10:53:17         -2.44  -156.773785    2      2      
iter:   8  10:53:18         -2.63  -156.773243    2      2      
iter:   9  10:53:18         -2.82  -156.773729    2      2      
iter:  10  10:53:19         -3.05  -156.771948    2      1      
iter:  11  10:53:19         -3.20  -156.772371    2      1      
iter:  12  10:53:20         -3.35  -156.773450    2      1      
iter:  13  10:53:20         -3.46  -156.772580    2      1      
iter:  14  10:53:20         -3.68  -156.773376    2      1      
iter:  15  10:53:21         -3.85  -156.773836    1      1      
iter:  16  10:53:21         -3.94  -156.773556    2      1      
iter:  17  10:53:22         -4.15  -156.774043    2      1      

Converged after 17 iterations.

Dipole moment: (-0.192541, -0.216941, 0.385219) |e|*Ang

Energy contributions relative to reference atoms: (reference = -24663.074771)

Kinetic:        +93.763504
Potential:      -99.802408
External:        +0.000000
XC:            -153.309188
Entropy (-ST):   -0.438175
Local:           +2.793136
--------------------------
Free energy:   -156.993131
Extrapolated:  -156.774043

Fermi level: -4.76069

 Band  Eigenvalues  Occupancy
    0    -24.20929    2.00000
    1    -21.85958    2.00000
    2    -21.60181    2.00000
    3    -21.18103    2.00000
    4    -20.76222    2.00000
    5    -20.01155    2.00000
    6    -19.47352    2.00000
    7    -19.10469    2.00000
    8    -18.64940    2.00000
    9    -18.34998    2.00000
   10    -17.46222    2.00000
   11    -17.02080    2.00000
   12    -16.85245    2.00000
   13    -15.91751    2.00000
   14    -15.59131    2.00000
   15    -14.74391    2.00000
   16    -14.45898    2.00000
   17    -13.72252    2.00000
   18    -12.79818    2.00000
   19    -11.98928    2.00000
   20    -11.81090    2.00000
   21    -11.29323    2.00000
   22    -11.02721    2.00000
   23    -10.38260    2.00000
   24    -10.17664    2.00000
   25     -9.81643    2.00000
   26     -9.63825    2.00000
   27     -9.49476    2.00000
   28     -9.01699    2.00000
   29     -8.99891    2.00000
   30     -8.83130    2.00000
   31     -8.53356    2.00000
   32     -8.20036    2.00000
   33     -7.95271    2.00000
   34     -7.86484    2.00000
   35     -7.59032    2.00000
   36     -7.43818    2.00000
   37     -7.23691    2.00000
   38     -7.16241    2.00000
   39     -6.86291    2.00000
   40     -6.62788    2.00000
   41     -6.37192    2.00000
   42     -6.15666    2.00000
   43     -5.79268    1.99993
   44     -5.62589    1.99965
   45     -5.21359    1.97865
   46     -4.99024    1.81700
   47     -4.79469    1.16838
   48     -4.69696    0.69173
   49     -4.59683    0.32532
   50     -4.29435    0.01869
   51     -3.95250    0.00062
   52     -3.59520    0.00002
   53     -3.41914    0.00000
   54     -3.04096    0.00000
   55     -2.98975    0.00000
   56     -2.63871    0.00000
   57     -2.56369    0.00000
   58     -1.59565    0.00000
   59     -1.28804    0.00000
   60     -0.99850    0.00000
   61     -0.84324    0.00000
   62     -0.57897    0.00000
   63     -0.26652    0.00000
   64      0.31160    0.00000
   65      0.76039    0.00000
   66      0.93269    0.00000
   67      1.13941    0.00000
   68      1.19558    0.00000
   69      1.36692    0.00000
   70      1.56307    0.00000
   71      1.67323    0.00000
   72      2.39491    0.00000
   73      2.64069    0.00000
   74      3.81315    0.00000
   75      4.39505    0.00000
   76      5.26469    0.00000
   77      5.84128    0.00000
   78      5.91598    0.00000
   79      6.53943    0.00000
   80      6.67943    0.00000
   81      6.75280    0.00000
   82      7.23254    0.00000
   83      7.54327    0.00000
   84      8.02031    0.00000
   85      8.25370    0.00000
   86      8.44661    0.00000
   87      8.56252    0.00000
   88      8.73516    0.00000
   89      8.91673    0.00000
   90      9.03482    0.00000
   91      9.11802    0.00000
   92      9.25178    0.00000
   93      9.35128    0.00000
   94      9.38825    0.00000
   95      9.45684    0.00000
   96      9.68578    0.00000
   97      9.78224    0.00000


Forces in eV/Ang:
  0 C    -0.60051    0.77298   -1.11414
  1 C     0.66494    0.73983    0.03108
  2 C     1.96468   -5.77859   -2.60232
  3 C    -0.75237    1.03031    1.49796
  4 C    -1.29856   -2.41597   -1.78466
  5 C     5.54748    0.95293   -1.71050
  6 C    -2.07892    3.21276    0.48043
  7 C     4.19810    3.75448    2.47730
  8 C    -2.65084   -0.02050    2.69902
  9 C     0.68208    0.55848   -2.10255
 10 C    -3.20361   -1.76011    2.46817
 11 C     2.48518   -0.43342    1.82779
 12 C    -1.13228    0.16779    1.65318
 13 C    -0.33887   -1.16650   -1.86623
 14 C    -0.09673   -0.33627    0.27779
 15 C    -4.77971   -0.07353   -0.70066
 16 C     2.55816   -5.45897    0.78431
 17 C     2.75417   -2.49982    1.92976
 18 C     0.97111    2.71954   -0.94315
 19 C    -1.08530   -0.56551   -1.18046
 20 C    -1.59387    1.38118    0.05541
 21 C    -0.30893    0.25074    0.28885
 22 C     4.04675    0.54425    0.36767
 23 C    -5.91878    4.34471   -2.78310

System changes: positions 

Initializing position-dependent things.

Density initialized from wave functions
           .--------------------------------------.  
          /|                                      |  
         / |                                      |  
        /  |                                      |  
       /   |                                      |  
      /    |                                      |  
     /     |                                      |  
    /      |                                      |  
   /       |       C                              |  
  /        | CC      C           CC               |  
 *         |C           C  C  C   C               |  
 |         |  C     C   C     C  C                |  
 |         .----C--------C------------------------.  
 |        /          C      C                    /   
 |       /          C  C                        /    
 |      /                C                     /     
 |     /                                      /      
 |    /                                      /       
 |   /                                      /        
 |  /                                      /         
 | /                                      /          
 |/                                      /           
 *--------------------------------------*            

Positions:
   0 C     10.914701    9.599713    5.550824
   1 C     11.498202    8.429395    5.479417
   2 C     10.060422    6.726630    5.668639
   3 C     11.337205    7.119792    5.331096
   4 C     10.230184   10.795485    5.623242
   5 C      9.066632    3.536696    4.177328
   6 C      9.510030    5.321946    5.018794
   7 C      9.311182    9.565193    4.755063
   8 C      7.079539    9.875677    4.791745
   9 C      5.826639   10.061577    5.656568
  10 C      8.062336    3.565188    4.964960
  11 C      7.475006    7.707003    5.370302
  12 C      8.299946    6.100421    5.062325
  13 C      6.024846    7.444662    5.279514
  14 C      6.827094    4.052474    4.968945
  15 C      8.232220    8.910869    5.306402
  16 C      6.994742    5.403166    5.022276
  17 C      2.645722   10.540406    5.456484
  18 C      2.443828    9.202794    5.881010
  19 C      4.573334   10.406617    5.873635
  20 C      2.514256    7.902897    5.723168
  21 C      3.489418    7.086634    5.482696
  22 C      4.586097    6.463821    5.220352
  23 C      6.480110    6.438262    4.418367

Unit cell:
           periodic     x           y           z      points  spacing
  1. axis:    yes   16.000000    0.000000    0.000000    80     0.2000
  2. axis:    yes    0.000000   16.000000    0.000000    80     0.2000
  3. axis:    yes    0.000000    0.000000   10.000000    48     0.2083

Effective grid spacing dv^(1/3) = 0.2027

                     log10-error:    total        iterations:
           time      wfs    density  energy       fermi  poisson
iter:   1  10:53:23          +inf  -158.671599    3      5      
iter:   2  10:53:24         -1.61  -158.434249    3      2      
iter:   3  10:53:24         -1.96  -158.399158    2      2      
iter:   4  10:53:25         -2.09  -158.377069    2      2      
iter:   5  10:53:25         -2.28  -158.371442    2      2      
iter:   6  10:53:26         -2.43  -158.369072    2      2      
iter:   7  10:53:26         -2.57  -158.367593    2      2      
iter:   8  10:53:27         -2.73  -158.366631    2      2      
iter:   9  10:53:27         -2.99  -158.367400    2      2      
iter:  10  10:53:28         -3.17  -158.365790    2      1      
iter:  11  10:53:28         -3.30  -158.366161    2      1      
iter:  12  10:53:29         -3.43  -158.367153    2      1      
iter:  13  10:53:29         -3.59  -158.367092    2      1      
iter:  14  10:53:30         -3.78  -158.368052    2      1      
iter:  15  10:53:30         -3.86  -158.367764    2      1      
iter:  16  10:53:31         -3.97  -158.367397    2      1      
iter:  17  10:53:31         -4.11  -158.367333    2      1      

Converged after 17 iterations.

Dipole moment: (-0.184307, -0.229893, 0.373534) |e|*Ang

Energy contributions relative to reference atoms: (reference = -24663.074771)

Kinetic:        +89.322828
Potential:      -96.533992
External:        +0.000000
XC:            -153.752602
Entropy (-ST):   -0.423921
Local:           +2.808394
--------------------------
Free energy:   -158.579293
Extrapolated:  -158.367333

Fermi level: -4.74510

 Band  Eigenvalues  Occupancy
    0    -24.09742    2.00000
    1    -21.84753    2.00000
    2    -21.60948    2.00000
    3    -21.13034    2.00000
    4    -20.71310    2.00000
    5    -20.15188    2.00000
    6    -19.46211    2.00000
    7    -19.16314    2.00000
    8    -18.58255    2.00000
    9    -18.41931    2.00000
   10    -17.53057    2.00000
   11    -16.93821    2.00000
   12    -16.88508    2.00000
   13    -15.99722    2.00000
   14    -15.62055    2.00000
   15    -14.71377    2.00000
   16    -14.47525    2.00000
   17    -13.74906    2.00000
   18    -12.81266    2.00000
   19    -12.05942    2.00000
   20    -11.91793    2.00000
   21    -11.32209    2.00000
   22    -10.98383    2.00000
   23    -10.41795    2.00000
   24    -10.16872    2.00000
   25     -9.87878    2.00000
   26     -9.67196    2.00000
   27     -9.46598    2.00000
   28     -9.05393    2.00000
   29     -9.00493    2.00000
   30     -8.87254    2.00000
   31     -8.55760    2.00000
   32     -8.17375    2.00000
   33     -8.01554    2.00000
   34     -7.91018    2.00000
   35     -7.62781    2.00000
   36     -7.48058    2.00000
   37     -7.25291    2.00000
   38     -7.18673    2.00000
   39     -6.91570    2.00000
   40     -6.63156    2.00000
   41     -6.37729    2.00000
   42     -6.15618    2.00000
   43     -5.79982    1.99995
   44     -5.62442    1.99970
   45     -5.20064    1.97920
   46     -4.96827    1.80612
   47     -4.80609    1.29581
   48     -4.65860    0.59256
   49     -4.57436    0.30699
   50     -4.28119    0.01915
   51     -3.91899    0.00052
   52     -3.53745    0.00001
   53     -3.37564    0.00000
   54     -3.08125    0.00000
   55     -2.88335    0.00000
   56     -2.58824    0.00000
   57     -2.50333    0.00000
   58     -1.57645    0.00000
   59     -1.23038    0.00000
   60     -0.94253    0.00000
   61     -0.76475    0.00000
   62     -0.47838    0.00000
   63     -0.20823    0.00000
   64      0.31592    0.00000
   65      0.74081    0.00000
   66      1.02618    0.00000
   67      1.22540    0.00000
   68      1.24845    0.00000
   69      1.44067    0.00000
   70      1.69492    0.00000
   71      1.88667    0.00000
   72      2.49694    0.00000
   73      2.63422    0.00000
   74      4.03085    0.00000
   75      4.84188    0.00000
   76      5.51018    0.00000
   77      5.99913    0.00000
   78      6.03700    0.00000
   79      6.75267    0.00000
   80      6.81995    0.00000
   81      6.85633    0.00000
   82      7.31360    0.00000
   83      7.66290    0.00000
   84      7.99545    0.00000
   85      8.28010    0.00000
   86      8.48817    0.00000
   87      8.57103    0.00000
   88      8.72263    0.00000
   89      8.91130    0.00000
   90      9.08908    0.00000
   91      9.12568    0.00000
   92      9.28384    0.00000
   93      9.29818    0.00000
   94      9.40770    0.00000
   95      9.51447    0.00000
   96      9.69264    0.00000
   97      9.81080    0.00000


Forces in eV/Ang:
  0 C    -0.56298    0.29522   -1.20762
  1 C     0.73052    0.68877    0.01986
  2 C     2.09856   -6.18927   -2.88365
  3 C    -0.84720    1.00702    1.58155
  4 C    -1.73629   -2.00846   -1.94278
  5 C     4.48361    1.01166   -0.83717
  6 C    -1.61010    3.33449    0.68217
  7 C     3.90157    3.57875    3.11207
  8 C    -2.48834   -0.10036    2.79584
  9 C     0.37977    0.64015   -2.06934
 10 C    -2.26371   -1.71849    1.61302
 11 C     2.40330   -0.86288    1.67978
 12 C    -1.54217    0.39601    1.66169
 13 C    -0.27664   -0.91359   -1.51288
 14 C     0.15096   -0.35140    0.18546
 15 C    -4.16152    0.51095   -1.11288
 16 C     1.97824   -4.02485    0.22541
 17 C     2.98201   -1.89703    1.77205
 18 C     1.00939    1.90423   -0.86107
 19 C    -1.10072   -0.56768   -1.20547
 20 C    -1.13685    1.06538   -0.02282
 21 C    -0.13211    0.36338    0.24413
 22 C     3.41905    0.97930    0.41902
 23 C    -5.63615    2.81988   -2.33673

System changes: positions 

Initializing position-dependent things.

Density initialized from wave functions
           .--------------------------------------.  
          /|                                      |  
         / |                                      |  
        /  |                                      |  
       /   |                                      |  
      /    |                                      |  
     /     |                                      |  
    /      |                                      |  
   /       |       C                              |  
  /        | CC      C           CC               |  
 *         |C           C  C  C   C               |  
 |         |  C     C   C     C  C                |  
 |         .----C--------C------------------------.  
 |        /          C      C                    /   
 |       /          C  C                        /    
 |      /                C                     /     
 |     /                                      /      
 |    /                                      /       
 |   /                                      /        
 |  /                                      /         
 | /                                      /          
 |/                                      /           
 *--------------------------------------*            

Positions:
   0 C     10.912153    9.599120    5.543896
   1 C     11.502063    8.433941    5.479524
   2 C     10.071217    6.691715    5.652380
   3 C     11.332744    7.125247    5.339761
   4 C     10.219598   10.785874    5.612367
   5 C      9.081871    3.542726    4.180308
   6 C      9.502637    5.340098    5.022897
   7 C      9.329159    9.582690    4.775005
   8 C      7.066588    9.874877    4.807305
   9 C      5.827325   10.065424    5.645475
  10 C      8.060823    3.554259    4.966266
  11 C      7.487525    7.700967    5.379123
  12 C      8.290375    6.102288    5.071463
  13 C      6.023510    7.440034    5.272430
  14 C      6.827218    4.050319    4.969657
  15 C      8.213656    8.916760    5.297577
  16 C      6.999781    5.397131    5.016935
  17 C      2.662332   10.531482    5.465770
  18 C      2.449383    9.211538    5.876560
  19 C      4.568021   10.403353    5.866951
  20 C      2.509593    7.907368    5.722729
  21 C      3.490022    7.088365    5.483708
  22 C      4.601794    6.470795    5.223037
  23 C      6.454510    6.440769    4.411988

Unit cell:
           periodic     x           y           z      points  spacing
  1. axis:    yes   16.000000    0.000000    0.000000    80     0.2000
  2. axis:    yes    0.000000   16.000000    0.000000    80     0.2000
  3. axis:    yes    0.000000    0.000000   10.000000    48     0.2083

Effective grid spacing dv^(1/3) = 0.2027

                     log10-error:    total        iterations:
           time      wfs    density  energy       fermi  poisson
iter:   1  10:53:33          +inf  -160.052214    3      5      
iter:   2  10:53:33         -1.65  -159.860977    3      2      
iter:   3  10:53:34         -2.01  -159.829124    2      2      
iter:   4  10:53:34         -2.15  -159.809213    2      2      
iter:   5  10:53:35         -2.33  -159.804002    2      2      
iter:   6  10:53:35         -2.49  -159.802525    2      2      
iter:   7  10:53:36         -2.62  -159.801256    2      2      
iter:   8  10:53:36         -2.78  -159.800357    2      2      
iter:   9  10:53:37         -3.08  -159.798163    2      1      
iter:  10  10:53:37         -3.21  -159.799308    2      1      
iter:  11  10:53:38         -3.36  -159.800267    2      1      
iter:  12  10:53:38         -3.51  -159.799937    2      1      
iter:  13  10:53:39         -3.68  -159.801549    2      1      
iter:  14  10:53:39         -3.81  -159.801741    2      1      
iter:  15  10:53:40         -3.93  -159.801027    2      1      
iter:  16  10:53:40         -4.10  -159.801523    2      1      

Converged after 16 iterations.

Dipole moment: (-0.176144, -0.228507, 0.359089) |e|*Ang

Energy contributions relative to reference atoms: (reference = -24663.074771)

Kinetic:        +86.343746
Potential:      -94.390632
External:        +0.000000
XC:            -154.374071
Entropy (-ST):   -0.396706
Local:           +2.817787
--------------------------
Free energy:   -159.999876
Extrapolated:  -159.801523

Fermi level: -4.72351

 Band  Eigenvalues  Occupancy
    0    -24.00397    2.00000
    1    -21.86966    2.00000
    2    -21.61267    2.00000
    3    -21.09228    2.00000
    4    -20.67369    2.00000
    5    -20.28956    2.00000
    6    -19.46680    2.00000
    7    -19.22670    2.00000
    8    -18.51282    2.00000
    9    -18.47612    2.00000
   10    -17.56687    2.00000
   11    -16.96712    2.00000
   12    -16.80680    2.00000
   13    -16.07664    2.00000
   14    -15.63720    2.00000
   15    -14.68002    2.00000
   16    -14.49756    2.00000
   17    -13.77041    2.00000
   18    -12.81196    2.00000
   19    -12.13125    2.00000
   20    -12.02286    2.00000
   21    -11.34868    2.00000
   22    -10.95023    2.00000
   23    -10.46316    2.00000
   24    -10.15686    2.00000
   25     -9.93929    2.00000
   26     -9.71044    2.00000
   27     -9.45243    2.00000
   28     -9.10002    2.00000
   29     -9.02247    2.00000
   30     -8.90361    2.00000
   31     -8.58297    2.00000
   32     -8.19766    2.00000
   33     -8.11691    2.00000
   34     -7.89462    2.00000
   35     -7.67745    2.00000
   36     -7.52660    2.00000
   37     -7.26742    2.00000
   38     -7.19991    2.00000
   39     -6.96929    2.00000
   40     -6.63563    2.00000
   41     -6.39060    2.00000
   42     -6.15586    2.00000
   43     -5.80766    1.99996
   44     -5.61863    1.99974
   45     -5.18619    1.98062
   46     -4.95598    1.82182
   47     -4.80722    1.39571
   48     -4.62058    0.52646
   49     -4.53200    0.25683
   50     -4.25546    0.01838
   51     -3.88976    0.00048
   52     -3.48550    0.00001
   53     -3.32853    0.00000
   54     -3.12042    0.00000
   55     -2.76616    0.00000
   56     -2.52779    0.00000
   57     -2.44730    0.00000
   58     -1.56518    0.00000
   59     -1.18292    0.00000
   60     -0.91026    0.00000
   61     -0.69218    0.00000
   62     -0.37725    0.00000
   63     -0.14546    0.00000
   64      0.34727    0.00000
   65      0.73085    0.00000
   66      1.09604    0.00000
   67      1.27976    0.00000
   68      1.30518    0.00000
   69      1.55560    0.00000
   70      1.76119    0.00000
   71      2.23949    0.00000
   72      2.59751    0.00000
   73      2.65889    0.00000
   74      4.22346    0.00000
   75      5.30686    0.00000
   76      5.72543    0.00000
   77      6.10229    0.00000
   78      6.13267    0.00000
   79      6.74404    0.00000
   80      6.93188    0.00000
   81      6.99728    0.00000
   82      7.40936    0.00000
   83      7.77565    0.00000
   84      7.96616    0.00000
   85      8.30485    0.00000
   86      8.53234    0.00000
   87      8.58957    0.00000
   88      8.71745    0.00000
   89      8.88819    0.00000
   90      9.08079    0.00000
   91      9.17515    0.00000
   92      9.24512    0.00000
   93      9.34288    0.00000
   94      9.42619    0.00000
   95      9.57327    0.00000
   96      9.69116    0.00000
   97      9.86968    0.00000


Forces in eV/Ang:
  0 C    -0.54541   -0.10459   -1.29883
  1 C     0.71793    0.68928    0.01453
  2 C     2.29647   -6.38568   -3.05153
  3 C    -0.93076    0.92191    1.64026
  4 C    -2.06239   -1.69102   -2.07842
  5 C     3.87623    1.02760   -0.31904
  6 C    -1.34387    3.38145    0.82969
  7 C     3.55933    3.33885    3.58034
  8 C    -2.32634   -0.15155    2.85666
  9 C     0.05137    0.73729   -2.04014
 10 C    -1.80074   -1.62440    1.12956
 11 C     2.36356   -1.16868    1.54369
 12 C    -1.80886    0.63387    1.62585
 13 C    -0.20366   -0.72952   -1.23511
 14 C     0.37844   -0.42898    0.12586
 15 C    -3.54076    0.97273   -1.42852
 16 C     1.49086   -2.95703   -0.14640
 17 C     3.24591   -1.48604    1.68863
 18 C     1.01923    1.43038   -0.79857
 19 C    -1.13999   -0.54139   -1.22017
 20 C    -0.81492    0.70060   -0.07348
 21 C    -0.00301    0.45524    0.20497
 22 C     2.99720    1.30192    0.41396
 23 C    -5.47367    1.66330   -2.04603

System changes: positions 

Initializing position-dependent things.

Density initialized from wave functions
           .--------------------------------------.  
          /|                                      |  
         / |                                      |  
        /  |                                      |  
       /   |                                      |  
      /    |                                      |  
     /     |                                      |  
    /      |                                      |  
   /       |       C                              |  
  /        | CC      C           CC               |  
 *         |C           C  C  C   C               |  
 |         |  C     C   C     C  C                |  
 |         .----C--------C------------------------.  
 |        /          C     C                     /   
 |       /          C  C                        /    
 |      /                C                     /     
 |     /                                      /      
 |    /                                      /       
 |   /                                      /        
 |  /                                      /         
 | /                                      /          
 |/                                      /           
 *--------------------------------------*            

Positions:
   0 C     10.909242    9.597794    5.536730
   1 C     11.505687    8.438099    5.479614
   2 C     10.083472    6.657398    5.635883
   3 C     11.327746    7.129777    5.348519
   4 C     10.208206   10.777276    5.601072
   5 C      9.096856    3.548435    4.183374
   6 C      9.495853    5.357970    5.027478
   7 C      9.346494    9.599413    4.795431
   8 C      7.054474    9.874013    4.822621
   9 C      5.826858   10.069537    5.634656
  10 C      8.058695    3.544338    4.967622
  11 C      7.500104    7.694303    5.387097
  12 C      8.280200    6.105558    5.080079
  13 C      6.022540    7.436256    5.266457
  14 C      6.828110    4.047865    4.970221
  15 C      8.196856    8.923039    5.288799
  16 C      7.003578    5.392342    5.011711
  17 C      2.680218   10.523928    5.474785
  18 C      2.454726    9.219089    5.872363
  19 C      4.561901   10.400546    5.860424
  20 C      2.505397    7.910485    5.722335
  21 C      3.490936    7.090370    5.484544
  22 C      4.616845    6.478315    5.225221
  23 C      6.428715    6.440924    4.405397

Unit cell:
           periodic     x           y           z      points  spacing
  1. axis:    yes   16.000000    0.000000    0.000000    80     0.2000
  2. axis:    yes    0.000000   16.000000    0.000000    80     0.2000
  3. axis:    yes    0.000000    0.000000   10.000000    48     0.2083

Effective grid spacing dv^(1/3) = 0.2027

                     log10-error:    total        iterations:
           time      wfs    density  energy       fermi  poisson
iter:   1  10:53:42          +inf  -161.427357    3      5      
iter:   2  10:53:42         -1.65  -161.234486    3      2      
iter:   3  10:53:43         -2.03  -161.202348    2      2      
iter:   4  10:53:43         -2.18  -161.182688    2      2      
iter:   5  10:53:44         -2.36  -161.177945    2      2      
iter:   6  10:53:44         -2.51  -161.176681    2      2      
iter:   7  10:53:45         -2.64  -161.175663    2      2      
iter:   8  10:53:45         -2.81  -161.175018    2      2      
iter:   9  10:53:46         -3.11  -161.172978    2      1      
iter:  10  10:53:46         -3.23  -161.174177    2      1      
iter:  11  10:53:47         -3.38  -161.175009    2      1      
iter:  12  10:53:47         -3.54  -161.174617    2      1      
iter:  13  10:53:48         -3.69  -161.176118    2      1      
iter:  14  10:53:48         -3.80  -161.176298    2      1      
iter:  15  10:53:49         -3.92  -161.175612    2      1      
iter:  16  10:53:49         -4.08  -161.176031    1      1      

Converged after 16 iterations.

Dipole moment: (-0.166378, -0.218863, 0.342534) |e|*Ang

Energy contributions relative to reference atoms: (reference = -24663.074771)

Kinetic:        +84.103725
Potential:      -92.838881
External:        +0.000000
XC:            -155.085705
Entropy (-ST):   -0.366407
Local:           +2.828034
--------------------------
Free energy:   -161.359234
Extrapolated:  -161.176031

Fermi level: -4.69686

 Band  Eigenvalues  Occupancy
    0    -23.91709    2.00000
    1    -21.93713    2.00000
    2    -21.60419    2.00000
    3    -21.05386    2.00000
    4    -20.64244    2.00000
    5    -20.41960    2.00000
    6    -19.48217    2.00000
    7    -19.28035    2.00000
    8    -18.54148    2.00000
    9    -18.42895    2.00000
   10    -17.58922    2.00000
   11    -17.01248    2.00000
   12    -16.70968    2.00000
   13    -16.15555    2.00000
   14    -15.65083    2.00000
   15    -14.63650    2.00000
   16    -14.51914    2.00000
   17    -13.78446    2.00000
   18    -12.80446    2.00000
   19    -12.20583    2.00000
   20    -12.12153    2.00000
   21    -11.37121    2.00000
   22    -10.92193    2.00000
   23    -10.51384    2.00000
   24    -10.15606    2.00000
   25     -9.99365    2.00000
   26     -9.75458    2.00000
   27     -9.45181    2.00000
   28     -9.14033    2.00000
   29     -9.05917    2.00000
   30     -8.91926    2.00000
   31     -8.60935    2.00000
   32     -8.32704    2.00000
   33     -8.13254    2.00000
   34     -7.87696    2.00000
   35     -7.73761    2.00000
   36     -7.56839    2.00000
   37     -7.28219    2.00000
   38     -7.20907    2.00000
   39     -7.02361    2.00000
   40     -6.63658    2.00000
   41     -6.40371    2.00000
   42     -6.16075    2.00000
   43     -5.81539    1.99997
   44     -5.60790    1.99978
   45     -5.17166    1.98281
   46     -4.94766    1.84941
   47     -4.79396    1.45063
   48     -4.59205    0.51918
   49     -4.46640    0.18150
   50     -4.21634    0.01624
   51     -3.86067    0.00047
   52     -3.43407    0.00001
   53     -3.27404    0.00000
   54     -3.15037    0.00000
   55     -2.64020    0.00000
   56     -2.46679    0.00000
   57     -2.38034    0.00000
   58     -1.55971    0.00000
   59     -1.14474    0.00000
   60     -0.89682    0.00000
   61     -0.61935    0.00000
   62     -0.28134    0.00000
   63     -0.07832    0.00000
   64      0.39178    0.00000
   65      0.73314    0.00000
   66      1.15665    0.00000
   67      1.33815    0.00000
   68      1.35713    0.00000
   69      1.68320    0.00000
   70      1.85732    0.00000
   71      2.48874    0.00000
   72      2.70361    0.00000
   73      2.81238    0.00000
   74      4.40553    0.00000
   75      5.67595    0.00000
   76      5.97638    0.00000
   77      6.16954    0.00000
   78      6.23365    0.00000
   79      6.67849    0.00000
   80      7.03645    0.00000
   81      7.10740    0.00000
   82      7.51414    0.00000
   83      7.86892    0.00000
   84      7.95237    0.00000
   85      8.32728    0.00000
   86      8.56291    0.00000
   87      8.62035    0.00000
   88      8.71760    0.00000
   89      8.85897    0.00000
   90      9.05338    0.00000
   91      9.18283    0.00000
   92      9.27112    0.00000
   93      9.40160    0.00000
   94      9.44859    0.00000
   95      9.62207    0.00000
   96      9.69412    0.00000
   97      9.93385    0.00000


Forces in eV/Ang:
  0 C    -0.53373   -0.38491   -1.33669
  1 C     0.68012    0.60702    0.01102
  2 C     2.50559   -6.35286   -3.08157
  3 C    -0.94363    0.86644    1.68305
  4 C    -2.29539   -1.40972   -2.15029
  5 C     3.27494    1.03139    0.11311
  6 C    -1.18291    3.31063    0.91465
  7 C     3.18577    3.08496    3.88504
  8 C    -2.17374   -0.20383    2.86039
  9 C    -0.22329    0.80012   -1.97034
 10 C    -1.29524   -1.48816    0.68379
 11 C     2.32936   -1.38365    1.39314
 12 C    -1.99150    0.85096    1.59288
 13 C    -0.10059   -0.55906   -0.99052
 14 C     0.52103   -0.50092    0.08091
 15 C    -2.98349    1.31534   -1.60945
 16 C     1.09746   -2.10603   -0.45812
 17 C     3.48988   -1.07349    1.59513
 18 C     1.00804    0.97364   -0.75037
 19 C    -1.22887   -0.49180   -1.21415
 20 C    -0.56108    0.42407   -0.08873
 21 C     0.12327    0.52670    0.15987
 22 C     2.63071    1.58372    0.39177
 23 C    -5.40613    0.68753   -1.76080

System changes: positions 

Initializing position-dependent things.

Density initialized from wave functions
           .--------------------------------------.  
          /|                                      |  
         / |                                      |  
        /  |                                      |  
       /   |                                      |  
      /    |                                      |  
     /     |                                      |  
    /      |                                      |  
   /       |       C                              |  
  /        | CC      C           CC               |  
 *         |C           C  C  C   C               |  
 |         |  C     C   C     C  C                |  
 |         .----C--------C------------------------.  
 |        /          C     C                     /   
 |       /          C  C                        /    
 |      /                C                     /     
 |     /                                      /      
 |    /                                      /       
 |   /                                      /        
 |  /                                      /         
 | /                                      /          
 |/                                      /           
 *--------------------------------------*            

Positions:
   0 C     10.905947    9.596390    5.529444
   1 C     11.509030    8.441303    5.479708
   2 C     10.097854    6.623819    5.619583
   3 C     11.322787    7.134150    5.357752
   4 C     10.196045   10.769147    5.589347
   5 C      9.111423    3.554142    4.186648
   6 C      9.488440    5.375377    5.032204
   7 C      9.363201    9.615834    4.816416
   8 C      7.042485    9.872936    4.838092
   9 C      5.825518   10.073868    5.623957
  10 C      8.057271    3.535265    4.968613
  11 C      7.513356    7.687253    5.394516
  12 C      8.269501    6.110169    5.088786
  13 C      6.022257    7.433046    5.261071
  14 C      6.829139    4.044965    4.970762
  15 C      8.180933    8.929599    5.280406
  16 C      7.006933    5.387606    5.006287
  17 C      2.700199   10.517740    5.483817
  18 C      2.460010    9.225462    5.868073
  19 C      4.554328   10.398188    5.853845
  20 C      2.501238    7.913092    5.722231
  21 C      3.492310    7.092650    5.485168
  22 C      4.631991    6.486838    5.227013
  23 C      6.400570    6.439411    4.398767

Unit cell:
           periodic     x           y           z      points  spacing
  1. axis:    yes   16.000000    0.000000    0.000000    80     0.2000
  2. axis:    yes    0.000000   16.000000    0.000000    80     0.2000
  3. axis:    yes    0.000000    0.000000   10.000000    48     0.2083

Effective grid spacing dv^(1/3) = 0.2027

                     log10-error:    total        iterations:
           time      wfs    density  energy       fermi  poisson
iter:   1  10:53:51          +inf  -162.773612    3      5      
iter:   2  10:53:51         -1.65  -162.578762    3      2      
iter:   3  10:53:52         -2.03  -162.545891    2      2      
iter:   4  10:53:52         -2.20  -162.527298    2      2      
iter:   5  10:53:53         -2.38  -162.523035    2      2      
iter:   6  10:53:53         -2.51  -162.521458    2      2      
iter:   7  10:53:54         -2.65  -162.520897    2      2      
iter:   8  10:53:54         -2.84  -162.520957    2      2      
iter:   9  10:53:55         -3.05  -162.516175    2      1      
iter:  10  10:53:55         -3.25  -162.519591    2      1      
iter:  11  10:53:55         -3.37  -162.521323    2      1      
iter:  12  10:53:56         -3.51  -162.519529    2      1      
iter:  13  10:53:56         -3.65  -162.521400    2      1      
iter:  14  10:53:57         -3.81  -162.521537    2      1      
iter:  15  10:53:57         -3.93  -162.520737    2      1      
iter:  16  10:53:58         -4.19  -162.521565    2      1      

Converged after 16 iterations.

Dipole moment: (-0.159840, -0.195549, 0.325847) |e|*Ang

Energy contributions relative to reference atoms: (reference = -24663.074771)

Kinetic:        +82.461085
Potential:      -91.768143
External:        +0.000000
XC:            -155.884221
Entropy (-ST):   -0.339990
Local:           +2.839710
--------------------------
Free energy:   -162.691560
Extrapolated:  -162.521565

Fermi level: -4.66841

 Band  Eigenvalues  Occupancy
    0    -23.82633    2.00000
    1    -22.04838    2.00000
    2    -21.58679    2.00000
    3    -21.01785    2.00000
    4    -20.61886    2.00000
    5    -20.53492    2.00000
    6    -19.51221    2.00000
    7    -19.31566    2.00000
    8    -18.59890    2.00000
    9    -18.35648    2.00000
   10    -17.59656    2.00000
   11    -17.05588    2.00000
   12    -16.60656    2.00000
   13    -16.23465    2.00000
   14    -15.66261    2.00000
   15    -14.59804    2.00000
   16    -14.53016    2.00000
   17    -13.79045    2.00000
   18    -12.78688    2.00000
   19    -12.28458    2.00000
   20    -12.21352    2.00000
   21    -11.38887    2.00000
   22    -10.89449    2.00000
   23    -10.57234    2.00000
   24    -10.18359    2.00000
   25    -10.03107    2.00000
   26     -9.80134    2.00000
   27     -9.46985    2.00000
   28     -9.16526    2.00000
   29     -9.11819    2.00000
   30     -8.92302    2.00000
   31     -8.64802    2.00000
   32     -8.46212    2.00000
   33     -8.14359    2.00000
   34     -7.87023    2.00000
   35     -7.79374    2.00000
   36     -7.60743    2.00000
   37     -7.29697    2.00000
   38     -7.21635    2.00000
   39     -7.07543    2.00000
   40     -6.63410    2.00000
   41     -6.41541    2.00000
   42     -6.17433    2.00000
   43     -5.82028    1.99998
   44     -5.59305    1.99981
   45     -5.15714    1.98503
   46     -4.93844    1.87409
   47     -4.77194    1.47587
   48     -4.56755    0.53452
   49     -4.39126    0.11776
   50     -4.16121    0.01246
   51     -3.83325    0.00047
   52     -3.37930    0.00001
   53     -3.21193    0.00000
   54     -3.16717    0.00000
   55     -2.50787    0.00000
   56     -2.40551    0.00000
   57     -2.29060    0.00000
   58     -1.54818    0.00000
   59     -1.12246    0.00000
   60     -0.88762    0.00000
   61     -0.54420    0.00000
   62     -0.20014    0.00000
   63     -0.00094    0.00000
   64      0.45605    0.00000
   65      0.74815    0.00000
   66      1.20941    0.00000
   67      1.41005    0.00000
   68      1.42010    0.00000
   69      1.81566    0.00000
   70      1.99382    0.00000
   71      2.56974    0.00000
   72      2.78104    0.00000
   73      3.16607    0.00000
   74      4.58218    0.00000
   75      5.89074    0.00000
   76      6.12247    0.00000
   77      6.32315    0.00000
   78      6.36512    0.00000
   79      6.62261    0.00000
   80      7.13003    0.00000
   81      7.21774    0.00000
   82      7.60198    0.00000
   83      7.87764    0.00000
   84      8.00838    0.00000
   85      8.35047    0.00000
   86      8.57349    0.00000
   87      8.65370    0.00000
   88      8.71521    0.00000
   89      8.83814    0.00000
   90      9.04033    0.00000
   91      9.15440    0.00000
   92      9.33244    0.00000
   93      9.46334    0.00000
   94      9.47637    0.00000
   95      9.66431    0.00000
   96      9.71704    0.00000
   97      9.94250    0.00000


Forces in eV/Ang:
  0 C    -0.46481   -0.62645   -1.31753
  1 C     0.62607    0.54886    0.00853
  2 C     2.70881   -6.05447   -2.99304
  3 C    -0.87716    0.77505    1.65941
  4 C    -2.42683   -1.10872   -2.13713
  5 C     2.77397    1.02361    0.47992
  6 C    -1.09553    3.05687    0.91086
  7 C     2.70032    2.72670    4.03788
  8 C    -2.02883   -0.22149    2.82121
  9 C    -0.51493    0.85817   -1.89504
 10 C    -0.86641   -1.35641    0.33775
 11 C     2.28530   -1.55074    1.23312
 12 C    -2.09451    1.02840    1.53221
 13 C     0.04148   -0.37193   -0.74902
 14 C     0.64053   -0.60543    0.03973
 15 C    -2.43243    1.53495   -1.68435
 16 C     0.73302   -1.29221   -0.77392
 17 C     3.84012   -0.74901    1.55590
 18 C     0.99480    0.55727   -0.71723
 19 C    -1.37384   -0.44514   -1.24198
 20 C    -0.31668    0.14874   -0.08614
 21 C     0.23403    0.58981    0.11143
 22 C     2.28385    1.82767    0.31174
 23 C    -5.37438   -0.25082   -1.44042

System changes: positions 

Initializing position-dependent things.

Density initialized from wave functions
           .--------------------------------------.  
          /|                                      |  
         / |                                      |  
        /  |                                      |  
       /   |                                      |  
      /    |                                      |  
     /     |                                      |  
    /      |                                      |  
   /       |       C                              |  
  /        | CC      C           CC               |  
 *         |C           C C   C   C               |  
 |         |  C     C   C     C  C                |  
 |         .----C--------C------------------------.  
 |        /          C     C                     /   
 |       /          C  C                        /    
 |      /                C                     /     
 |     /                                      /      
 |    /                                      /       
 |   /                                      /        
 |  /                                      /         
 | /                                      /          
 |/                                      /           
 *--------------------------------------*            

Positions:
   0 C     10.902883    9.594815    5.522165
   1 C     11.512201    8.444235    5.479816
   2 C     10.115067    6.591462    5.603562
   3 C     11.318441    7.138247    5.367276
   4 C     10.183261   10.761458    5.577358
   5 C      9.127156    3.560156    4.190148
   6 C      9.479427    5.391438    5.036444
   7 C      9.378787    9.631627    4.838046
   8 C      7.029812    9.871964    4.854351
   9 C      5.822816   10.078726    5.612700
  10 C      8.055936    3.526293    4.969999
  11 C      7.527896    7.679594    5.401761
  12 C      8.258275    6.115938    5.097843
  13 C      6.023082    7.430492    5.256051
  14 C      6.830369    4.041022    4.971294
  15 C      8.165200    8.935930    5.272639
  16 C      7.010080    5.383187    4.999848
  17 C      2.724876   10.511665    5.494053
  18 C      2.465634    9.231136    5.863288
  19 C      4.544340   10.395990    5.846304
  20 C      2.497153    7.915116    5.722502
  21 C      3.494104    7.095345    5.485588
  22 C      4.647947    6.496741    5.227936
  23 C      6.368196    6.435681    4.392388

Unit cell:
           periodic     x           y           z      points  spacing
  1. axis:    yes   16.000000    0.000000    0.000000    80     0.2000
  2. axis:    yes    0.000000   16.000000    0.000000    80     0.2000
  3. axis:    yes    0.000000    0.000000   10.000000    48     0.2083

Effective grid spacing dv^(1/3) = 0.2027

                     log10-error:    total        iterations:
           time      wfs    density  energy       fermi  poisson
iter:   1  10:53:59          +inf  -164.129241    3      5      
iter:   2  10:54:00         -1.66  -163.927312    3      2      
iter:   3  10:54:00         -2.01  -163.891669    2      2      
iter:   4  10:54:01         -2.20  -163.874565    3      2      
iter:   5  10:54:01         -2.38  -163.870888    2      2      
iter:   6  10:54:02         -2.48  -163.867887    2      2      
iter:   7  10:54:02         -2.65  -163.867906    2      2      
iter:   8  10:54:03         -2.84  -163.868320    2      2      
iter:   9  10:54:03         -3.04  -163.868314    2      2      
iter:  10  10:54:04         -3.26  -163.868022    2      1      
iter:  11  10:54:04         -3.35  -163.867858    2      1      
iter:  12  10:54:05         -3.52  -163.868339    2      1      
iter:  13  10:54:05         -3.64  -163.868269    2      1      
iter:  14  10:54:06         -3.79  -163.868679    2      1      
iter:  15  10:54:06         -3.91  -163.868795    2      1      
iter:  16  10:54:07         -3.97  -163.868662    2      1      
iter:  17  10:54:07         -4.04  -163.868456    2      1      

Converged after 17 iterations.

Dipole moment: (-0.161231, -0.161929, 0.308749) |e|*Ang

Energy contributions relative to reference atoms: (reference = -24663.074771)

Kinetic:        +81.175198
Potential:      -90.992885
External:        +0.000000
XC:            -156.742851
Entropy (-ST):   -0.319448
Local:           +2.851806
--------------------------
Free energy:   -164.028180
Extrapolated:  -163.868456

Fermi level: -4.63697

 Band  Eigenvalues  Occupancy
    0    -23.72844    2.00000
    1    -22.19205    2.00000
    2    -21.56195    2.00000
    3    -20.98427    2.00000
    4    -20.62719    2.00000
    5    -20.59472    2.00000
    6    -19.54785    2.00000
    7    -19.33187    2.00000
    8    -18.65914    2.00000
    9    -18.28800    2.00000
   10    -17.58744    2.00000
   11    -17.09551    2.00000
   12    -16.49678    2.00000
   13    -16.31013    2.00000
   14    -15.67295    2.00000
   15    -14.59580    2.00000
   16    -14.49789    2.00000
   17    -13.78709    2.00000
   18    -12.76398    2.00000
   19    -12.36607    2.00000
   20    -12.29281    2.00000
   21    -11.40024    2.00000
   22    -10.86596    2.00000
   23    -10.64686    2.00000
   24    -10.24731    2.00000
   25    -10.04821    2.00000
   26     -9.84034    2.00000
   27     -9.49819    2.00000
   28     -9.21908    2.00000
   29     -9.15552    2.00000
   30     -8.92369    2.00000
   31     -8.71354    2.00000
   32     -8.55302    2.00000
   33     -8.16811    2.00000
   34     -7.90338    2.00000
   35     -7.81083    2.00000
   36     -7.64321    2.00000
   37     -7.31466    2.00000
   38     -7.22762    2.00000
   39     -7.11889    2.00000
   40     -6.62853    2.00000
   41     -6.42394    2.00000
   42     -6.19798    2.00000
   43     -5.81998    1.99999
   44     -5.57381    1.99983
   45     -5.14216    1.98729
   46     -4.92391    1.89262
   47     -4.74285    1.48491
   48     -4.54037    0.55136
   49     -4.31307    0.07545
   50     -4.08600    0.00806
   51     -3.80709    0.00050
   52     -3.31685    0.00000
   53     -3.18047    0.00000
   54     -3.12335    0.00000
   55     -2.39091    0.00000
   56     -2.33688    0.00000
   57     -2.15699    0.00000
   58     -1.52761    0.00000
   59     -1.11730    0.00000
   60     -0.87673    0.00000
   61     -0.46263    0.00000
   62     -0.13352    0.00000
   63      0.08317    0.00000
   64      0.54270    0.00000
   65      0.77811    0.00000
   66      1.25478    0.00000
   67      1.47561    0.00000
   68      1.52478    0.00000
   69      1.97050    0.00000
   70      2.17774    0.00000
   71      2.61510    0.00000
   72      2.87412    0.00000
   73      3.52408    0.00000
   74      4.74607    0.00000
   75      6.07099    0.00000
   76      6.12463    0.00000
   77      6.38162    0.00000
   78      6.44138    0.00000
   79      6.77613    0.00000
   80      7.20263    0.00000
   81      7.37094    0.00000
   82      7.67013    0.00000
   83      7.84988    0.00000
   84      8.08272    0.00000
   85      8.37285    0.00000
   86      8.56335    0.00000
   87      8.65396    0.00000
   88      8.72212    0.00000
   89      8.84451    0.00000
   90      9.05248    0.00000
   91      9.12349    0.00000
   92      9.39093    0.00000
   93      9.50662    0.00000
   94      9.50925    0.00000
   95      9.70971    0.00000
   96      9.75846    0.00000
   97      9.95128    0.00000


Forces in eV/Ang:
  0 C    -0.38590   -0.80689   -1.29410
  1 C     0.57338    0.46680    0.01124
  2 C     2.83410   -5.59673   -2.81667
  3 C    -0.75759    0.69009    1.57481
  4 C    -2.48681   -0.78946   -2.05901
  5 C     2.19081    0.99961    0.82536
  6 C    -1.02654    2.68904    0.89279
  7 C     2.12085    2.31487    4.05981
  8 C    -1.86574   -0.25172    2.72577
  9 C    -0.82234    0.91533   -1.80062
 10 C    -0.39153   -1.19481    0.01280
 11 C     2.20405   -1.64590    1.04929
 12 C    -2.12988    1.13353    1.43869
 13 C     0.21914   -0.16257   -0.52244
 14 C     0.72643   -0.69620   -0.01085
 15 C    -1.88592    1.69720   -1.72390
 16 C     0.37996   -0.55305   -1.07541
 17 C     4.23669   -0.44385    1.52556
 18 C     0.98989    0.15082   -0.69440
 19 C    -1.59267   -0.38096   -1.29658
 20 C    -0.08770   -0.10787   -0.06833
 21 C     0.35459    0.62526    0.05718
 22 C     1.98098    2.03974    0.19913
 23 C    -5.42603   -1.09360   -1.10951

System changes: positions 

Initializing position-dependent things.

Density initialized from wave functions
           .--------------------------------------.  
          /|                                      |  
         / |                                      |  
        /  |                                      |  
       /   |                                      |  
      /    |                                      |  
     /     |                                      |  
    /      |                                      |  
   /       |       C                              |  
  /        | CC      C           CC               |  
 *         |C           C C   C   C               |  
 |         |  C     C   C     C  C                |  
 |         .----C--------C------------------------.  
 |        /         CC     C                     /   
 |       /          C  C                        /    
 |      /                 C                    /     
 |     /                                      /      
 |    /                                      /       
 |   /                                      /        
 |  /                                      /         
 | /                                      /          
 |/                                      /           
 *--------------------------------------*            

Positions:
   0 C     10.900057    9.593423    5.514507
   1 C     11.515423    8.446824    5.480004
   2 C     10.134593    6.560250    5.587923
   3 C     11.315028    7.142407    5.376794
   4 C     10.169945   10.754235    5.565272
   5 C      9.143209    3.566565    4.194121
   6 C      9.468619    5.405809    5.040419
   7 C      9.392745    9.646839    4.860078
   8 C      7.016249    9.870826    4.871467
   9 C      5.818393   10.084342    5.600648
  10 C      8.055430    3.517386    4.971712
  11 C      7.543716    7.671679    5.408868
  12 C      8.246683    6.122172    5.107240
  13 C      6.025369    7.428763    5.251077
  14 C      6.831650    4.036124    4.971675
  15 C      8.149240    8.942113    5.265122
  16 C      7.013094    5.378508    4.992165
  17 C      2.755478   10.505428    5.505869
  18 C      2.471973    9.236230    5.857758
  19 C      4.530934   10.394010    5.837195
  20 C      2.493058    7.916716    5.723225
  21 C      3.496537    7.098268    5.485769
  22 C      4.665560    6.508183    5.227806
  23 C      6.329661    6.430400    4.386206

Unit cell:
           periodic     x           y           z      points  spacing
  1. axis:    yes   16.000000    0.000000    0.000000    80     0.2000
  2. axis:    yes    0.000000   16.000000    0.000000    80     0.2000
  3. axis:    yes    0.000000    0.000000   10.000000    48     0.2083

Effective grid spacing dv^(1/3) = 0.2027

                     log10-error:    total        iterations:
           time      wfs    density  energy       fermi  poisson
iter:   1  10:54:09          +inf  -165.518760    3      5      
iter:   2  10:54:09         -1.65  -165.297898    3      2      
iter:   3  10:54:10         -1.98  -165.256011    2      2      
iter:   4  10:54:10         -2.19  -165.241233    3      2      
iter:   5  10:54:11         -2.35  -165.237192    2      2      
iter:   6  10:54:11         -2.44  -165.232146    2      2      
iter:   7  10:54:12         -2.63  -165.232991    2      2      
iter:   8  10:54:12         -2.85  -165.233505    2      2      
iter:   9  10:54:13         -3.04  -165.229290    2      1      
iter:  10  10:54:13         -3.22  -165.231956    2      1      
iter:  11  10:54:14         -3.33  -165.233744    2      1      
iter:  12  10:54:14         -3.52  -165.231947    2      1      
iter:  13  10:54:15         -3.62  -165.234265    2      1      
iter:  14  10:54:15         -3.80  -165.234114    2      1      
iter:  15  10:54:16         -3.94  -165.233375    2      1      
iter:  16  10:54:16         -4.17  -165.234146    2      1      

Converged after 16 iterations.

Dipole moment: (-0.177895, -0.113930, 0.292027) |e|*Ang

Energy contributions relative to reference atoms: (reference = -24663.074771)

Kinetic:        +80.033664
Potential:      -90.329046
External:        +0.000000
XC:            -157.651187
Entropy (-ST):   -0.303246
Local:           +2.864047
--------------------------
Free energy:   -165.385769
Extrapolated:  -165.234146

Fermi level: -4.60232

 Band  Eigenvalues  Occupancy
    0    -23.61985    2.00000
    1    -22.35825    2.00000
    2    -21.53475    2.00000
    3    -20.95623    2.00000
    4    -20.68147    2.00000
    5    -20.58291    2.00000
    6    -19.57720    2.00000
    7    -19.33868    2.00000
    8    -18.72160    2.00000
    9    -18.23120    2.00000
   10    -17.55684    2.00000
   11    -17.12744    2.00000
   12    -16.43483    2.00000
   13    -16.32519    2.00000
   14    -15.68100    2.00000
   15    -14.61269    2.00000
   16    -14.43909    2.00000
   17    -13.77182    2.00000
   18    -12.74395    2.00000
   19    -12.44563    2.00000
   20    -12.35112    2.00000
   21    -11.40650    2.00000
   22    -10.85983    2.00000
   23    -10.72860    2.00000
   24    -10.32906    2.00000
   25    -10.05770    2.00000
   26     -9.86202    2.00000
   27     -9.52819    2.00000
   28     -9.33541    2.00000
   29     -9.14952    2.00000
   30     -8.93298    2.00000
   31     -8.78683    2.00000
   32     -8.59661    2.00000
   33     -8.20794    2.00000
   34     -7.95683    2.00000
   35     -7.81146    2.00000
   36     -7.66850    2.00000
   37     -7.33806    2.00000
   38     -7.24831    2.00000
   39     -7.14335    2.00000
   40     -6.62088    2.00000
   41     -6.42967    2.00000
   42     -6.23421    2.00000
   43     -5.81092    1.99999
   44     -5.55067    1.99985
   45     -5.12336    1.98914
   46     -4.90521    1.90772
   47     -4.70938    1.48941
   48     -4.50782    0.55977
   49     -4.23410    0.04910
   50     -3.99209    0.00447
   51     -3.78441    0.00056
   52     -3.24705    0.00000
   53     -3.16548    0.00000
   54     -3.02712    0.00000
   55     -2.31263    0.00000
   56     -2.24569    0.00000
   57     -1.97919    0.00000
   58     -1.48957    0.00000
   59     -1.12961    0.00000
   60     -0.85396    0.00000
   61     -0.36929    0.00000
   62     -0.07368    0.00000
   63      0.16767    0.00000
   64      0.65518    0.00000
   65      0.82623    0.00000
   66      1.29967    0.00000
   67      1.55074    0.00000
   68      1.65985    0.00000
   69      2.16103    0.00000
   70      2.41258    0.00000
   71      2.66091    0.00000
   72      2.98603    0.00000
   73      3.83589    0.00000
   74      4.87971    0.00000
   75      6.08348    0.00000
   76      6.27168    0.00000
   77      6.32967    0.00000
   78      6.51988    0.00000
   79      6.97687    0.00000
   80      7.26971    0.00000
   81      7.56062    0.00000
   82      7.70511    0.00000
   83      7.81226    0.00000
   84      8.13741    0.00000
   85      8.38933    0.00000
   86      8.53719    0.00000
   87      8.62225    0.00000
   88      8.74770    0.00000
   89      8.86257    0.00000
   90      9.08362    0.00000
   91      9.11218    0.00000
   92      9.44457    0.00000
   93      9.53337    0.00000
   94      9.54473    0.00000
   95      9.73952    0.00000
   96      9.80633    0.00000
   97      9.98966    0.00000


Forces in eV/Ang:
  0 C    -0.26866   -0.93454   -1.25046
  1 C     0.51017    0.42231    0.01084
  2 C     2.91473   -5.04268   -2.58462
  3 C    -0.61602    0.58916    1.47002
  4 C    -2.35541   -0.36718   -1.89448
  5 C     1.69448    1.00495    1.14580
  6 C    -1.01065    2.23323    0.84362
  7 C     1.45816    1.79195    3.87298
  8 C    -1.73163   -0.24227    2.65935
  9 C    -1.14199    0.97365   -1.66971
 10 C     0.04489   -1.01145   -0.26409
 11 C     2.07164   -1.69541    0.85697
 12 C    -2.14204    1.22733    1.35993
 13 C     0.46527    0.07280   -0.29793
 14 C     0.80570   -0.78632   -0.06945
 15 C    -1.33119    1.77380   -1.65623
 16 C     0.00883    0.16835   -1.37226
 17 C     4.71206   -0.19086    1.52289
 18 C     0.97811   -0.22949   -0.70612
 19 C    -1.82917   -0.28907   -1.34221
 20 C     0.14703   -0.35059   -0.04177
 21 C     0.47654    0.64569   -0.00731
 22 C     1.66238    2.25065    0.05364
 23 C    -5.47774   -1.91019   -0.66784

System changes: positions 

Initializing position-dependent things.

Density initialized from wave functions
           .--------------------------------------.  
          /|                                      |  
         / |                                      |  
        /  |                                      |  
[...]
    1    -23.08285    2.00000
    2    -21.70511    2.00000
    3    -21.09336    2.00000
    4    -20.93302    2.00000
    5    -20.41200    2.00000
    6    -19.73626    2.00000
    7    -19.62135    2.00000
    8    -19.22724    2.00000
    9    -18.40336    2.00000
   10    -18.04116    2.00000
   11    -17.46576    2.00000
   12    -17.04621    2.00000
   13    -16.10240    2.00000
   14    -15.48182    2.00000
   15    -15.05679    2.00000
   16    -14.31165    2.00000
   17    -14.03373    2.00000
   18    -13.59868    2.00000
   19    -13.05605    2.00000
   20    -12.69667    2.00000
   21    -12.13132    2.00000
   22    -11.26789    2.00000
   23    -10.95136    2.00000
   24    -10.82508    2.00000
   25    -10.75903    2.00000
   26    -10.29947    2.00000
   27    -10.21625    2.00000
   28     -9.92200    2.00000
   29     -9.83513    2.00000
   30     -9.50151    2.00000
   31     -9.13572    2.00000
   32     -9.01362    2.00000
   33     -8.96833    2.00000
   34     -8.17799    2.00000
   35     -8.16439    2.00000
   36     -7.68868    2.00000
   37     -7.61631    2.00000
   38     -7.24351    2.00000
   39     -7.11079    2.00000
   40     -6.73910    2.00000
   41     -6.48274    2.00000
   42     -5.85762    2.00000
   43     -5.84507    2.00000
   44     -5.63719    1.99998
   45     -5.55165    1.99996
   46     -5.00738    1.99117
   47     -4.63993    1.70238
   48     -4.29406    0.30509
   49     -3.70976    0.00104
   50     -3.60663    0.00037
   51     -2.45096    0.00000
   52     -1.91215    0.00000
   53     -1.87481    0.00000
   54     -1.56707    0.00000
   55     -1.23165    0.00000
   56     -1.13341    0.00000
   57     -0.93891    0.00000
   58     -0.28456    0.00000
   59      0.13094    0.00000
   60      0.38832    0.00000
   61      0.67572    0.00000
   62      1.25285    0.00000
   63      1.50995    0.00000
   64      2.22480    0.00000
   65      2.51016    0.00000
   66      2.94612    0.00000
   67      3.36855    0.00000
   68      3.62282    0.00000
   69      4.13616    0.00000
   70      4.45769    0.00000
   71      4.59759    0.00000
   72      5.08734    0.00000
   73      5.48967    0.00000
   74      5.68383    0.00000
   75      6.11637    0.00000
   76      6.21304    0.00000
   77      6.92052    0.00000
   78      7.27960    0.00000
   79      7.63027    0.00000
   80      7.84457    0.00000
   81      7.94785    0.00000
   82      8.24531    0.00000
   83      8.45187    0.00000
   84      8.57159    0.00000
   85      8.72534    0.00000
   86      8.82862    0.00000
   87      8.97328    0.00000
   88      9.10053    0.00000
   89      9.28571    0.00000
   90      9.39839    0.00000
   91      9.63656    0.00000
   92      9.67023    0.00000
   93      9.95397    0.00000
   94     10.07641    0.00000
   95     10.25860    0.00000
   96     10.31838    0.00000
   97     10.43172    0.00000


Forces in eV/Ang:
  0 C    -0.01013   -0.00256    0.01403
  1 C    -0.02992   -0.01514   -0.01271
  2 C    -0.00885   -0.00023    0.01249
  3 C    -0.05698    0.01606   -0.00406
  4 C     0.02290   -0.04295   -0.01865
  5 C     0.09860   -0.03898   -0.02851
  6 C    -0.02585    0.04602   -0.07713
  7 C    -0.03999   -0.00385   -0.00536
  8 C     0.01077   -0.04323    0.05221
  9 C    -0.01247    0.01092    0.02335
 10 C    -0.01612    0.01020    0.06376
 11 C    -0.02005    0.03929   -0.00935
 12 C    -0.00656    0.05334   -0.00058
 13 C     0.00171    0.01471    0.04931
 14 C    -0.07980   -0.10630    0.01393
 15 C     0.02839   -0.04386    0.02463
 16 C     0.01323   -0.01360   -0.03459
 17 C     0.04572   -0.01907   -0.04923
 18 C     0.02687   -0.00439    0.00740
 19 C    -0.04131   -0.04846   -0.01263
 20 C    -0.00390    0.00892   -0.01688
 21 C     0.04817    0.07329    0.02791
 22 C     0.02935   -0.01798    0.02608
 23 C    -0.00721    0.00347   -0.02220

System changes: positions 

Initializing position-dependent things.

Density initialized from wave functions
           .--------------------------------------.  
          /|                                      |  
         / |                                      |  
        /  |                                      |  
       /   |                                      |  
      /    |                                      |  
     /     |                                      |  
    /      |                                      |  
   /       |       C                              |  
  /        | C  C     C         C                 |  
 *         | C          C C  C   CC               |  
 |         |  C     C   C        C                |  
 |         .-----CC-----C-----C-------------------.  
 |        /          C     C                     /   
 |       /          C  C   C                    /    
 |      /                                      /     
 |     /                                      /      
 |    /                                      /       
 |   /                                      /        
 |  /                                      /         
 | /                                      /          
 |/                                      /           
 *--------------------------------------*            

Positions:
   0 C     10.642104    9.551973    5.402261
   1 C     11.388950    8.487062    5.454055
   2 C     10.466752    6.187733    5.263756
   3 C     11.258199    7.159904    5.399062
   4 C      9.841597   10.730125    5.334187
   5 C      9.528613    3.926164    4.920735
   6 C      9.358253    5.378767    5.074509
   7 C      9.096757    9.573392    5.287776
   8 C      6.857024    9.734357    5.302969
   9 C      5.843669   10.479243    5.436737
  10 C      8.322593    3.443648    4.788302
  11 C      7.496580    7.372080    5.139068
  12 C      8.016225    5.985036    5.021234
  13 C      6.061699    7.202363    5.121536
  14 C      7.012771    3.629337    4.702659
  15 C      7.902481    8.794391    5.228485
  16 C      6.858256    5.037298    4.862733
  17 C      3.516292   10.450476    5.718564
  18 C      2.463898    9.648912    5.807813
  19 C      4.656002   11.091682    5.636294
  20 C      2.881429    8.366531    5.610995
  21 C      3.373764    7.203470    5.421396
  22 C      4.704049    6.810798    5.188855
  23 C      5.675630    5.822375    4.950289

Unit cell:
           periodic     x           y           z      points  spacing
  1. axis:    yes   16.000000    0.000000    0.000000    80     0.2000
  2. axis:    yes    0.000000   16.000000    0.000000    80     0.2000
  3. axis:    yes    0.000000    0.000000   10.000000    48     0.2083

Effective grid spacing dv^(1/3) = 0.2027

                     log10-error:    total        iterations:
           time      wfs    density  energy       fermi  poisson
iter:   1  11:02:29          +inf  -180.738484    3      5      
iter:   2  11:02:29         -2.39  -180.719538    3      1      
iter:   3  11:02:29         -2.59  -180.704402    3      1      
iter:   4  11:02:30         -2.80  -180.716000    2      2      
iter:   5  11:02:30         -2.72  -180.703912    3      1      
iter:   6  11:02:31         -3.09  -180.702163    2      2      
iter:   7  11:02:31         -3.17  -180.713095    3      1      
iter:   8  11:02:32         -2.90  -180.705078    3      1      
iter:   9  11:02:32         -3.80  -180.704411    2      1      
iter:  10  11:02:33         -3.75  -180.705607    2      1      
iter:  11  11:02:33         -3.77  -180.703805    2      1      
iter:  12  11:02:34         -3.63  -180.704902    2      1      
iter:  13  11:02:34         -4.21  -180.706569    2      1      

Converged after 13 iterations.

Dipole moment: (0.294352, 0.187104, 0.012009) |e|*Ang

Energy contributions relative to reference atoms: (reference = -24663.074771)

Kinetic:       +106.735964
Potential:     -115.102337
External:        +0.000000
XC:            -175.241373
Entropy (-ST):   -0.168689
Local:           +2.985522
--------------------------
Free energy:   -180.790913
Extrapolated:  -180.706569

Fermi level: -4.47434

 Band  Eigenvalues  Occupancy
    0    -23.75936    2.00000
    1    -23.09091    2.00000
    2    -21.70441    2.00000
    3    -21.10392    2.00000
    4    -20.95580    2.00000
    5    -20.42095    2.00000
    6    -19.73241    2.00000
    7    -19.62883    2.00000
    8    -19.23102    2.00000
    9    -18.41004    2.00000
   10    -18.04743    2.00000
   11    -17.47760    2.00000
   12    -17.06377    2.00000
   13    -16.11072    2.00000
   14    -15.49050    2.00000
   15    -15.05974    2.00000
   16    -14.32340    2.00000
   17    -14.06672    2.00000
   18    -13.59601    2.00000
   19    -13.07974    2.00000
   20    -12.68925    2.00000
   21    -12.11008    2.00000
   22    -11.26955    2.00000
   23    -10.94054    2.00000
   24    -10.83009    2.00000
   25    -10.76947    2.00000
   26    -10.29845    2.00000
   27    -10.21961    2.00000
   28     -9.93510    2.00000
   29     -9.83602    2.00000
   30     -9.50695    2.00000
   31     -9.14174    2.00000
   32     -9.02324    2.00000
   33     -8.97443    2.00000
   34     -8.18135    2.00000
   35     -8.17023    2.00000
   36     -7.69847    2.00000
   37     -7.62138    2.00000
   38     -7.24225    2.00000
   39     -7.11077    2.00000
   40     -6.73610    2.00000
   41     -6.48428    2.00000
   42     -5.85753    2.00000
   43     -5.83839    2.00000
   44     -5.63227    1.99998
   45     -5.55830    1.99996
   46     -5.00756    1.99038
   47     -4.65834    1.72591
   48     -4.29383    0.28245
   49     -3.71677    0.00102
   50     -3.59216    0.00029
   51     -2.45258    0.00000
   52     -1.90436    0.00000
   53     -1.88497    0.00000
   54     -1.58530    0.00000
   55     -1.23488    0.00000
   56     -1.13289    0.00000
   57     -0.84470    0.00000
   58     -0.28846    0.00000
   59      0.13478    0.00000
   60      0.39464    0.00000
   61      0.66038    0.00000
   62      1.26471    0.00000
   63      1.53448    0.00000
   64      2.24004    0.00000
   65      2.51624    0.00000
   66      2.93867    0.00000
   67      3.37236    0.00000
   68      3.65146    0.00000
   69      4.15066    0.00000
   70      4.43869    0.00000
   71      4.62680    0.00000
   72      5.08282    0.00000
   73      5.48532    0.00000
   74      5.69268    0.00000
   75      6.12170    0.00000
   76      6.22498    0.00000
   77      6.91602    0.00000
   78      7.29266    0.00000
   79      7.62515    0.00000
   80      7.84227    0.00000
   81      7.92846    0.00000
   82      8.25038    0.00000
   83      8.44481    0.00000
   84      8.56550    0.00000
   85      8.73644    0.00000
   86      8.80664    0.00000
   87      8.96763    0.00000
   88      9.03975    0.00000
   89      9.28244    0.00000
   90      9.40416    0.00000
   91      9.62709    0.00000
   92      9.66868    0.00000
   93      9.96133    0.00000
   94     10.07160    0.00000
   95     10.27048    0.00000
   96     10.36170    0.00000
   97     10.43568    0.00000


Forces in eV/Ang:
  0 C    -0.02160    0.02299    0.01330
  1 C     0.02024   -0.00551   -0.01123
  2 C    -0.02571   -0.01037   -0.00510
  3 C    -0.02115    0.00189    0.01682
  4 C     0.04393    0.00337    0.00623
  5 C    -0.15281    0.01802   -0.05690
  6 C    -0.01738   -0.00856   -0.02645
  7 C     0.01059   -0.02473   -0.03674
  8 C     0.00959   -0.05195    0.03679
  9 C     0.00838    0.02590    0.01491
 10 C    -0.00708    0.02237    0.02372
 11 C     0.01138   -0.02128    0.00809
 12 C     0.00766   -0.04191   -0.02122
 13 C    -0.03404   -0.01915    0.03825
 14 C     0.12991    0.05929    0.03851
 15 C    -0.06384   -0.00115    0.01396
 16 C     0.01035   -0.03589   -0.01996
 17 C     0.00066    0.00357   -0.02944
 18 C    -0.02243    0.02355   -0.01551
 19 C     0.05289    0.06778   -0.02945
 20 C    -0.02983    0.02209   -0.01416
 21 C     0.00728   -0.01514   -0.01109
 22 C     0.05524   -0.03852    0.00595
 23 C    -0.02911    0.04763   -0.01146

System changes: positions 

Initializing position-dependent things.

Density initialized from wave functions
           .--------------------------------------.  
          /|                                      |  
         / |                                      |  
        /  |                                      |  
       /   |                                      |  
      /    |                                      |  
     /     |                                      |  
    /      |                                      |  
   /       |       C                              |  
  /        | C  C     C         C                 |  
 *         | C          C C  C   CC               |  
 |         |  C     C   C        C                |  
 |         .-----CC-----C-----C-------------------.  
 |        /          C     C                     /   
 |       /          C  C   C                    /    
 |      /                                      /     
 |     /                                      /      
 |    /                                      /       
 |   /                                      /        
 |  /                                      /         
 | /                                      /          
 |/                                      /           
 *--------------------------------------*            

Positions:
   0 C     10.635902    9.554362    5.400742
   1 C     11.384849    8.490282    5.451839
   2 C     10.464931    6.187969    5.260360
   3 C     11.252736    7.163231    5.396555
   4 C      9.833466   10.731526    5.334915
   5 C      9.526820    3.924525    4.912208
   6 C      9.357842    5.375648    5.074433
   7 C      9.090729    9.572608    5.287874
   8 C      6.850524    9.729739    5.304103
   9 C      5.846987   10.487777    5.438898
  10 C      8.322716    3.440801    4.780804
  11 C      7.494419    7.367249    5.145177
  12 C      8.014609    5.979951    5.026403
  13 C      6.058950    7.196625    5.128456
  14 C      7.013734    3.626579    4.701925
  15 C      7.897010    8.791495    5.231168
  16 C      6.856605    5.032110    4.870064
  17 C      3.525951   10.460113    5.720524
  18 C      2.479100    9.652512    5.801648
  19 C      4.663325   11.109499    5.637788
  20 C      2.886531    8.367527    5.605443
  21 C      3.367934    7.199527    5.412640
  22 C      4.701061    6.806089    5.188386
  23 C      5.673121    5.817144    4.958096

Unit cell:
           periodic     x           y           z      points  spacing
  1. axis:    yes   16.000000    0.000000    0.000000    80     0.2000
  2. axis:    yes    0.000000   16.000000    0.000000    80     0.2000
  3. axis:    yes    0.000000    0.000000   10.000000    48     0.2083

Effective grid spacing dv^(1/3) = 0.2027

                     log10-error:    total        iterations:
           time      wfs    density  energy       fermi  poisson
iter:   1  11:02:36          +inf  -180.697335    3      5      
iter:   2  11:02:36         -2.30  -180.701486    3      2      
iter:   3  11:02:37         -2.84  -180.705117    2      1      
iter:   4  11:02:37         -3.09  -180.709606    2      1      
iter:   5  11:02:38         -3.12  -180.704844    2      1      
iter:   6  11:02:38         -3.28  -180.704751    2      1      
iter:   7  11:02:39         -3.42  -180.706426    2      1      
iter:   8  11:02:39         -3.79  -180.706193    2      1      
iter:   9  11:02:40         -3.98  -180.706279    2      1      
iter:  10  11:02:40         -4.15  -180.706138    2      1      

Converged after 10 iterations.

Dipole moment: (0.288346, 0.189518, 0.016185) |e|*Ang

Energy contributions relative to reference atoms: (reference = -24663.074771)

Kinetic:       +106.594473
Potential:     -114.988245
External:        +0.000000
XC:            -175.204809
Entropy (-ST):   -0.173004
Local:           +2.978945
--------------------------
Free energy:   -180.792640
Extrapolated:  -180.706138

Fermi level: -4.46872

 Band  Eigenvalues  Occupancy
    0    -23.76396    2.00000
    1    -23.08837    2.00000
    2    -21.70402    2.00000
    3    -21.10201    2.00000
    4    -20.94652    2.00000
    5    -20.41632    2.00000
    6    -19.73740    2.00000
    7    -19.62516    2.00000
    8    -19.22947    2.00000
    9    -18.40920    2.00000
   10    -18.04468    2.00000
   11    -17.47390    2.00000
   12    -17.05748    2.00000
   13    -16.10675    2.00000
   14    -15.48413    2.00000
   15    -15.05950    2.00000
   16    -14.31972    2.00000
   17    -14.05233    2.00000
   18    -13.59874    2.00000
   19    -13.06862    2.00000
   20    -12.69343    2.00000
   21    -12.12294    2.00000
   22    -11.26752    2.00000
   23    -10.94373    2.00000
   24    -10.82907    2.00000
   25    -10.76573    2.00000
   26    -10.29972    2.00000
   27    -10.21945    2.00000
   28     -9.93090    2.00000
   29     -9.83623    2.00000
   30     -9.50438    2.00000
   31     -9.14033    2.00000
   32     -9.02058    2.00000
   33     -8.97312    2.00000
   34     -8.17931    2.00000
   35     -8.16822    2.00000
   36     -7.69602    2.00000
   37     -7.62044    2.00000
   38     -7.24266    2.00000
   39     -7.11085    2.00000
   40     -6.73589    2.00000
   41     -6.48345    2.00000
   42     -5.85867    2.00000
   43     -5.84333    2.00000
   44     -5.63445    1.99998
   45     -5.55533    1.99996
   46     -5.00883    1.99102
   47     -4.64728    1.71277
   48     -4.29324    0.29487
   49     -3.71525    0.00107
   50     -3.59927    0.00033
   51     -2.45044    0.00000
   52     -1.90240    0.00000
   53     -1.87664    0.00000
   54     -1.57350    0.00000
   55     -1.22355    0.00000
   56     -1.13426    0.00000
   57     -0.89113    0.00000
   58     -0.28574    0.00000
   59      0.12914    0.00000
   60      0.39354    0.00000
   61      0.67231    0.00000
   62      1.25840    0.00000
   63      1.52368    0.00000
   64      2.23536    0.00000
   65      2.51581    0.00000
   66      2.94629    0.00000
   67      3.37023    0.00000
   68      3.64334    0.00000
   69      4.14800    0.00000
   70      4.44865    0.00000
   71      4.61134    0.00000
   72      5.08614    0.00000
   73      5.48642    0.00000
   74      5.68748    0.00000
   75      6.12534    0.00000
   76      6.21481    0.00000
   77      6.92404    0.00000
   78      7.28854    0.00000
   79      7.62825    0.00000
   80      7.84763    0.00000
   81      7.93647    0.00000
   82      8.24923    0.00000
   83      8.44970    0.00000
   84      8.56742    0.00000
   85      8.73285    0.00000
   86      8.81788    0.00000
   87      8.96905    0.00000
   88      9.07323    0.00000
   89      9.28373    0.00000
   90      9.39874    0.00000
   91      9.63108    0.00000
   92      9.66971    0.00000
   93      9.95627    0.00000
   94     10.07352    0.00000
   95     10.26559    0.00000
   96     10.33882    0.00000
   97     10.43330    0.00000


Forces in eV/Ang:
  0 C    -0.01682    0.00761    0.01517
  1 C     0.00129    0.00316   -0.01403
  2 C    -0.01945   -0.01346    0.00719
  3 C    -0.03416   -0.00024    0.00049
  4 C     0.01621   -0.01172   -0.00071
  5 C     0.04592    0.01767   -0.02423
  6 C    -0.01568    0.00475   -0.05130
  7 C     0.00455   -0.00041   -0.02625
  8 C     0.00994   -0.04816    0.02624
  9 C     0.00113    0.00887    0.01132
 10 C    -0.01628   -0.00915    0.01941
 11 C    -0.00622   -0.00969    0.00547
 12 C    -0.00172    0.00022   -0.01566
 13 C     0.00870    0.00294    0.05130
 14 C    -0.03875   -0.03397    0.02815
 15 C    -0.01959   -0.02776    0.01307
 16 C    -0.00869   -0.02998   -0.01469
 17 C     0.00795   -0.01384   -0.02680
 18 C    -0.01012    0.01128   -0.01463
 19 C    -0.00665    0.03376   -0.01400
 20 C    -0.03252    0.05013   -0.01356
 21 C     0.02569    0.01090    0.00714
 22 C     0.00504   -0.02966    0.02442
 23 C     0.01567   -0.00447   -0.01376

