
  ___ ___ ___ _ _ _  
 |   |   |_  | | | | 
 | | | | | . | | | | 
 |__ |  _|___|_____|  1.3.0b1
 |___|_|             

User:   esb@s65n11.grendel.cscaa.dk
Date:   Thu Nov  9 10:52:53 2017
Arch:   x86_64
Pid:    76571
Python: 2.7.13
gpaw:   /home/esb/DFT/gpaw_git/gpaw
_gpaw:  /home/esb/DFT/gpaw_git/build/bin.linux-x86_64-2.7/gpaw-python
ase:    /home/esb/DFT/ase_git/ase (version 3.15.0b1)
numpy:  /comm/swstack/core/python/2.7.13/lib/python2.7/site-packages/numpy (version 1.13.3)
scipy:  /comm/swstack/core/python/2.7.13/lib/python2.7/site-packages/scipy (version 0.19.1)
units:  Angstrom and eV
cores:  16
Extra parameters: {'blacs': True}

Input parameters:
  basis: dzp
  gpts: [80 80 48]
  kpts: [1 1 1]
  maxiter: 99
  mixer: {backend: pulay,
          beta: 0.05,
          method: separate,
          nmaxold: 5,
          weight: 75}
  mode: lcao
  nbands: -50
  occupations: {name: fermi-dirac,
                width: 0.1}
  poissonsolver: {eps: 1e-07,
                  name: fd,
                  nn: 3,
                  relax: GS}
  xc: PBE

System changes: positions, numbers, cell, pbc, initial_charges, initial_magmoms 

Initialize ...

C-setup:
  name: Carbon
  id: 4aa54d4b901d75f77cc0ea3eec22967b
  Z: 6
  valence: 4
  core: 2
  charge: 0.0
  file: /home/esb/DFT/gpaw-setups-0.8.7929/C.PBE.gz
  cutoffs: 0.64(comp), 1.14(filt), 1.14(core), lmax=2
  valence states:
                energy  radius
    2s(2.00)   -13.751   0.635
    2p(2.00)    -5.284   0.635
    *s          13.461   0.635
    *p          21.927   0.635
    *d           0.000   0.635

  LCAO basis set for C:
    Name: dzp
    File: /home/esb/DFT/gpaw-setups-0.8.7929/C.dzp.basis.gz
    Number of radial functions: 5
    Number of spherical harmonics: 13
      l=0, rc=5.5469 Bohr: 2s-sz confined orbital
      l=1, rc=6.6719 Bohr: 2p-sz confined orbital
      l=0, rc=3.0312 Bohr: 2s-dz split-valence wave
      l=1, rc=3.7500 Bohr: 2p-dz split-valence wave
      l=2, rc=6.6719 Bohr: d-type Gaussian polarization

Reference energy: -24663.074771

Spin-paired calculation

Occupation numbers:
  Fermi-Dirac: width=0.1000 eV

Convergence criteria:
  Maximum total energy change: 0.0005 eV / electron
  Maximum integral of absolute density change: 0.0001 electrons
  Maximum integral of absolute eigenstate change: 4e-08 eV^2
  Maximum number of iterations: 99

Symmetries present (total): 1

  ( 1  0  0)
  ( 0  1  0)
  ( 0  0  1)

1 k-point (Gamma)
1 k-point in the irreducible part of the Brillouin zone
       k-points in crystal coordinates                weights
   0:     0.00000000    0.00000000    0.00000000          1/1

Wave functions: LCAO
  Diagonalizer: Serial LAPACK
  Atomic Correction: dense with blas
  Datatype: float
  Eigensolver: None 

LCAO using direct dense diagonalizer 

Densities:
  Coarse grid: 80*80*48 grid
  Fine grid: 160*160*96 grid
  Total Charge: 0.000000 

Density mixing:
  Method: separate
  Backend: pulay
  Linear mixing parameter: 0.05
  Mixing with 5 old densities
  Damping of long wave oscillations: 75 

Hamiltonian:
  XC and Coulomb potentials evaluated on a 160*160*96 grid
  Using the PBE Exchange-Correlation functional
  Interpolation: tri-quintic (5. degree polynomial)
  Poisson solver: Gauss-Seidel solver with 6 multi-grid levels
    Coarsest grid: 5 x 5 x 3 points
    Stencil: 6*3+1=19 point O(h^6) finite-difference Laplacian
    Max iterations: 1000
    Tolerance: 1.000000e-07 

Memory estimate:
  Process memory now: 77.56 MiB
  Calculator: 15.59 MiB
    Density: 6.13 MiB
      Arrays: 3.81 MiB
      Localized functions: 0.86 MiB
      Mixer: 1.46 MiB
    Hamiltonian: 5.40 MiB
      Arrays: 2.49 MiB
      XC: 0.00 MiB
      Poisson: 2.85 MiB
      vbar: 0.07 MiB
    Wavefunctions: 4.05 MiB
      C [qnM]: 0.23 MiB
      S, T [2 x qmm]: 1.49 MiB
      P [aqMi]: 0.01 MiB
      TCI: 0.00 MiB
      BasisFunctions: 2.33 MiB
      Eigensolver: 0.00 MiB

Total number of cores used: 16
Domain decomposition: 2 x 4 x 2

Number of atoms: 24
Number of atomic orbitals: 312
Number of bands in calculation: 98
Bands to converge: occupied states only
Number of valence electrons: 96

... initialized

Initializing position-dependent things.

Density initialized from atomic densities
           .--------------------------------------.  
          /|                                      |  
         / |                                      |  
        /  |                                      |  
       /   |                                      |  
      /    |                                      |  
     /     |                                      |  
    /      |          C                           |  
   /       |       C                              |  
  /        |     C        C                       |  
 *         |  C     C      C   C  C               |  
 |         | C     C     C       C                |  
 |         .---C-----C---C-C---C-C----------------.  
 |        /    C          C                      /   
 |       /       C  C  C                        /    
 |      /                                      /     
 |     /                                      /      
 |    /                                      /       
 |   /                                      /        
 |  /                                      /         
 | /                                      /          
 |/                                      /           
 *--------------------------------------*            

Positions:
   0 C     10.747157    6.005169    5.043671
   1 C     11.269447    7.134263    4.957308
   2 C     11.113106    8.505769    4.934269
   3 C     10.978126    9.956465    4.854680
   4 C      9.289009    3.933811    5.174407
   5 C      9.501709    5.328032    5.187972
   6 C      9.873213    9.080310    5.151590
   7 C      7.622854    9.807095    5.802140
   8 C      8.244528    3.229307    5.229574
   9 C      7.778894    7.476540    5.450777
  10 C      8.217251    6.019402    5.321390
  11 C      8.496992    8.748068    5.468537
  12 C      5.548347    3.356786    4.939193
  13 C      6.878563    3.785099    5.003931
  14 C      4.509351    4.021253    5.177771
  15 C      6.994755    5.226605    5.413361
  16 C      4.436854    5.364954    5.565157
  17 C      5.792656    6.002502    5.695625
  18 C      3.396027    6.249711    5.869571
  19 C      6.081774   10.034463    6.912614
  20 C      4.949593    9.500842    6.807264
  21 C      4.661639    8.191085    6.405778
  22 C      5.903413    7.396757    6.106901
  23 C      3.487354    7.449353    6.229489

Unit cell:
           periodic     x           y           z      points  spacing
  1. axis:    yes   16.000000    0.000000    0.000000    80     0.2000
  2. axis:    yes    0.000000   16.000000    0.000000    80     0.2000
  3. axis:    yes    0.000000    0.000000   10.000000    48     0.2083

Effective grid spacing dv^(1/3) = 0.2027

                     log10-error:    total        iterations:
           time      wfs    density  energy       fermi  poisson
iter:   1  10:52:55          +inf  -182.745386    2      6      
iter:   2  10:52:56         -0.89  -181.729162    3      3      
iter:   3  10:52:56         -0.93  -178.942122    3      4      
iter:   4  10:52:57         -1.13  -178.385379    34     3      
iter:   5  10:52:58         -1.22  -177.943796    34     3      
iter:   6  10:52:58         -1.47  -178.070935    31     3      
iter:   7  10:52:59         -1.64  -178.002976    4      3      
iter:   8  10:53:00         -1.84  -177.975270    3      3      
iter:   9  10:53:00         -2.01  -177.967264    3      2      
iter:  10  10:53:01         -2.15  -177.955521    3      2      
iter:  11  10:53:02         -2.36  -177.945892    3      2      
iter:  12  10:53:02         -2.59  -177.941937    3      2      
iter:  13  10:53:03         -2.66  -177.940496    3      2      
iter:  14  10:53:03         -3.01  -177.939065    2      1      
iter:  15  10:53:04         -3.07  -177.939342    2      2      
iter:  16  10:53:05         -3.45  -177.940002    2      1      
iter:  17  10:53:05         -3.52  -177.940065    2      1      
iter:  18  10:53:06         -3.60  -177.942563    2      1      
iter:  19  10:53:06         -3.78  -177.941980    2      1      
iter:  20  10:53:07         -3.84  -177.941078    2      1      
iter:  21  10:53:08         -4.08  -177.941191    2      1      

Converged after 21 iterations.

Dipole moment: (-0.327701, -0.659438, -0.018575) |e|*Ang

Energy contributions relative to reference atoms: (reference = -24663.074771)

Kinetic:        +88.579750
Potential:     -100.211670
External:        +0.000000
XC:            -169.115973
Entropy (-ST):   -0.267387
Local:           +2.940396
--------------------------
Free energy:   -178.074884
Extrapolated:  -177.941191

Fermi level: -4.43523

 Band  Eigenvalues  Occupancy
    0    -22.94922    2.00000
    1    -22.39733    2.00000
    2    -21.57497    2.00000
    3    -20.95654    2.00000
    4    -20.48537    2.00000
    5    -19.89719    2.00000
    6    -19.60710    2.00000
    7    -19.40125    2.00000
    8    -18.47575    2.00000
    9    -17.99338    2.00000
   10    -17.45516    2.00000
   11    -16.79582    2.00000
   12    -15.92335    2.00000
   13    -15.60268    2.00000
   14    -15.23365    2.00000
   15    -15.04549    2.00000
   16    -14.49396    2.00000
   17    -13.35650    2.00000
   18    -13.11588    2.00000
   19    -12.84163    2.00000
   20    -12.41155    2.00000
   21    -12.01229    2.00000
   22    -11.89623    2.00000
   23    -11.04237    2.00000
   24    -10.92614    2.00000
   25    -10.40118    2.00000
   26    -10.27827    2.00000
   27    -10.08353    2.00000
   28     -9.89772    2.00000
   29     -9.46869    2.00000
   30     -9.43181    2.00000
   31     -8.86867    2.00000
   32     -8.73140    2.00000
   33     -8.48424    2.00000
   34     -8.09685    2.00000
   35     -7.76973    2.00000
   36     -7.30280    2.00000
   37     -7.08492    2.00000
   38     -6.95118    2.00000
   39     -6.72347    2.00000
   40     -6.61162    2.00000
   41     -6.45985    2.00000
   42     -6.36936    2.00000
   43     -5.99928    2.00000
   44     -5.86354    2.00000
   45     -5.49244    1.99995
   46     -4.84680    1.96789
   47     -4.51570    1.38194
   48     -4.36188    0.64884
   49     -3.70049    0.00129
   50     -3.36552    0.00005
   51     -3.35911    0.00004
   52     -2.98693    0.00000
   53     -2.78648    0.00000
   54     -2.63140    0.00000
   55     -1.85220    0.00000
   56     -1.71995    0.00000
   57     -1.39599    0.00000
   58     -1.06478    0.00000
   59     -0.81821    0.00000
   60      0.22387    0.00000
   61      0.45159    0.00000
   62      0.96933    0.00000
   63      1.55687    0.00000
   64      2.03068    0.00000
   65      2.56664    0.00000
   66      3.00691    0.00000
   67      3.54132    0.00000
   68      4.05490    0.00000
   69      4.45114    0.00000
   70      4.61487    0.00000
   71      5.07275    0.00000
   72      5.30710    0.00000
   73      5.62044    0.00000
   74      6.27515    0.00000
   75      6.40206    0.00000
   76      6.83883    0.00000
   77      6.93001    0.00000
   78      7.13467    0.00000
   79      7.49319    0.00000
   80      7.96517    0.00000
   81      8.36444    0.00000
   82      8.55742    0.00000
   83      8.58966    0.00000
   84      8.87171    0.00000
   85      9.06692    0.00000
   86      9.14116    0.00000
   87      9.30111    0.00000
   88      9.44340    0.00000
   89      9.49301    0.00000
   90      9.62168    0.00000
   91      9.69638    0.00000
   92      9.73739    0.00000
   93      9.81784    0.00000
   94     10.06154    0.00000
   95     10.13749    0.00000
   96     10.19792    0.00000
   97     10.38239    0.00000


Forces in eV/Ang:
  0 C    -0.61150   -0.28925   -0.07899
  1 C     0.14659    0.23290   -0.00732
  2 C     0.12485   -0.35049    0.03817
  3 C    -0.09285   -0.22055    0.05608
  4 C     0.03595    0.31087    0.00350
  5 C     1.02729   -0.15762   -0.00352
  6 C    -0.52562    1.06195   -0.10933
  7 C    -1.88876    2.50876    1.51864
  8 C    -2.27430    0.44302   -1.08517
  9 C    -0.28075   -1.13739    1.76037
 10 C    -2.01278    1.55170    0.50970
 11 C    -2.53502   -1.02895    1.06651
 12 C     0.48331   -0.42878   -0.06990
 13 C     2.55704   -0.05807    1.82734
 14 C     0.00668    0.02276   -0.18350
 15 C    -0.68861   -0.11508   -1.02283
 16 C    -0.21043   -0.00985    0.10382
 17 C    -1.03265    0.63340    0.22699
 18 C     0.15907   -0.46136    0.05172
 19 C     4.27791    0.15581   -1.74363
 20 C     0.34579    0.43454   -0.43961
 21 C     1.42020   -0.80151   -0.20526
 22 C     1.30035   -2.65949   -2.35288
 23 C     0.28118    0.31687    0.13089

System changes: positions 

Initializing position-dependent things.

Density initialized from wave functions
           .--------------------------------------.  
          /|                                      |  
         / |                                      |  
        /  |                                      |  
       /   |                                      |  
      /    |                                      |  
     /     |                                      |  
    /      |          C                           |  
   /       |       C                              |  
  /        |      C       C                       |  
 *         |  C     C      C   C  C               |  
 |         | C     C     C       C                |  
 |         .---C-----C---C--C--C-C----------------.  
 |        /    C          C                      /   
 |       /       C  C  C                        /    
 |      /                                      /     
 |     /                                      /      
 |    /                                      /       
 |   /                                      /        
 |  /                                      /         
 | /                                      /          
 |/                                      /           
 *--------------------------------------*            

Positions:
   0 C     10.741865    6.002666    5.042988
   1 C     11.270716    7.136278    4.957245
   2 C     11.114186    8.502736    4.934600
   3 C     10.977323    9.954557    4.855166
   4 C      9.289320    3.936502    5.174438
   5 C      9.510599    5.326668    5.187941
   6 C      9.868664    9.089499    5.150644
   7 C      7.606509    9.828805    5.815282
   8 C      8.224847    3.233141    5.220183
   9 C      7.776465    7.466697    5.466011
  10 C      8.199833    6.032830    5.325801
  11 C      8.475055    8.739164    5.477766
  12 C      5.552530    3.353075    4.938588
  13 C      6.900692    3.784597    5.019744
  14 C      4.509409    4.021450    5.176183
  15 C      6.988796    5.225609    5.404510
  16 C      4.435033    5.364869    5.566056
  17 C      5.783720    6.007984    5.697589
  18 C      3.397403    6.245719    5.870019
  19 C      6.118794   10.035811    6.897525
  20 C      4.952585    9.504602    6.803460
  21 C      4.673929    8.184148    6.404002
  22 C      5.914666    7.373742    6.086540
  23 C      3.489787    7.452095    6.230621

Unit cell:
           periodic     x           y           z      points  spacing
  1. axis:    yes   16.000000    0.000000    0.000000    80     0.2000
  2. axis:    yes    0.000000   16.000000    0.000000    80     0.2000
  3. axis:    yes    0.000000    0.000000   10.000000    48     0.2083

Effective grid spacing dv^(1/3) = 0.2027

                     log10-error:    total        iterations:
           time      wfs    density  energy       fermi  poisson
iter:   1  10:53:10          +inf  -178.775120    3      5      
iter:   2  10:53:10         -1.88  -178.714027    2      2      
iter:   3  10:53:11         -2.02  -178.665472    3      2      
iter:   4  10:53:12         -2.25  -178.646561    3      2      
iter:   5  10:53:12         -2.44  -178.650513    3      2      
iter:   6  10:53:13         -2.63  -178.649263    3      1      
iter:   7  10:53:13         -2.72  -178.645423    3      1      
iter:   8  10:53:14         -2.83  -178.643418    2      2      
iter:   9  10:53:15         -3.13  -178.644367    2      1      
iter:  10  10:53:15         -3.24  -178.643477    2      1      
iter:  11  10:53:16         -3.37  -178.643148    2      1      
iter:  12  10:53:16         -3.47  -178.643088    2      1      
iter:  13  10:53:17         -3.58  -178.642991    2      1      
iter:  14  10:53:18         -3.79  -178.642955    2      1      
iter:  15  10:53:18         -3.87  -178.642392    2      1      
iter:  16  10:53:19         -4.06  -178.643020    2      1      

Converged after 16 iterations.

Dipole moment: (-0.341438, -0.649543, 0.011969) |e|*Ang

Energy contributions relative to reference atoms: (reference = -24663.074771)

Kinetic:        +82.514373
Potential:      -95.662397
External:        +0.000000
XC:            -168.294697
Entropy (-ST):   -0.266918
Local:           +2.933160
--------------------------
Free energy:   -178.776479
Extrapolated:  -178.643020

Fermi level: -4.40707

 Band  Eigenvalues  Occupancy
    0    -22.85803    2.00000
    1    -22.41931    2.00000
    2    -21.56589    2.00000
    3    -20.88687    2.00000
    4    -20.39263    2.00000
    5    -19.90740    2.00000
    6    -19.59663    2.00000
    7    -19.36189    2.00000
    8    -18.46111    2.00000
    9    -17.97712    2.00000
   10    -17.47303    2.00000
   11    -16.81033    2.00000
   12    -15.91275    2.00000
   13    -15.65108    2.00000
   14    -15.16549    2.00000
   15    -14.88363    2.00000
   16    -14.46488    2.00000
   17    -13.38163    2.00000
   18    -13.10248    2.00000
   19    -12.89081    2.00000
   20    -12.38127    2.00000
   21    -11.99622    2.00000
   22    -11.94939    2.00000
   23    -11.06989    2.00000
   24    -10.96709    2.00000
   25    -10.39982    2.00000
   26    -10.33693    2.00000
   27    -10.04091    2.00000
   28     -9.87460    2.00000
   29     -9.49836    2.00000
   30     -9.40622    2.00000
   31     -8.92187    2.00000
   32     -8.69302    2.00000
   33     -8.46270    2.00000
   34     -8.14204    2.00000
   35     -7.80256    2.00000
   36     -7.28590    2.00000
   37     -7.06067    2.00000
   38     -6.90280    2.00000
   39     -6.69999    2.00000
   40     -6.58375    2.00000
   41     -6.48136    2.00000
   42     -6.38304    2.00000
   43     -6.00590    2.00000
   44     -5.82525    2.00000
   45     -5.51655    1.99997
   46     -4.78501    1.95534
   47     -4.49756    1.42388
   48     -4.32677    0.61875
   49     -3.71195    0.00191
   50     -3.39174    0.00008
   51     -3.37357    0.00006
   52     -2.96995    0.00000
   53     -2.85222    0.00000
   54     -2.65283    0.00000
   55     -1.85808    0.00000
   56     -1.71754    0.00000
   57     -1.30624    0.00000
   58     -0.94310    0.00000
   59     -0.77939    0.00000
   60      0.22508    0.00000
   61      0.47012    0.00000
   62      0.98826    0.00000
   63      1.54617    0.00000
   64      2.10218    0.00000
   65      2.53359    0.00000
   66      3.04064    0.00000
   67      3.44876    0.00000
   68      4.05256    0.00000
   69      4.51039    0.00000
   70      4.74836    0.00000
   71      5.09856    0.00000
   72      5.35000    0.00000
   73      5.75635    0.00000
   74      6.34424    0.00000
   75      6.49633    0.00000
   76      6.75694    0.00000
   77      6.85250    0.00000
   78      7.17360    0.00000
   79      7.52355    0.00000
   80      7.95931    0.00000
   81      8.44393    0.00000
   82      8.57045    0.00000
   83      8.59885    0.00000
   84      8.90037    0.00000
   85      9.07207    0.00000
   86      9.13660    0.00000
   87      9.28649    0.00000
   88      9.44807    0.00000
   89      9.48472    0.00000
   90      9.62962    0.00000
   91      9.71522    0.00000
   92      9.72458    0.00000
   93      9.83385    0.00000
   94     10.07891    0.00000
   95     10.13177    0.00000
   96     10.20231    0.00000
   97     10.39919    0.00000


Forces in eV/Ang:
  0 C    -0.09982    0.23466   -0.14269
  1 C    -0.08334   -0.21650    0.04275
  2 C    -0.15322   -0.10490    0.06120
  3 C    -0.08874   -0.19276    0.05671
  4 C    -0.79196   -0.21709    0.01720
  5 C     0.20747   -0.07737    0.08164
  6 C    -0.84545    0.65073    0.01659
  7 C    -2.02397    1.95428    1.64735
  8 C    -0.49279    0.77218   -0.87386
  9 C    -0.59620   -0.80495    1.76871
 10 C    -1.28395    0.75894    0.32005
 11 C    -2.13251   -0.17860    1.10411
 12 C     0.47461    0.00582    0.06873
 13 C     0.98342   -0.07365    1.42679
 14 C     0.44968   -0.30460   -0.25403
 15 C    -0.55557    0.23889   -0.81596
 16 C    -0.30466   -0.09429    0.07859
 17 C    -0.73208   -0.25558   -0.13884
 18 C     0.07288    0.05537    0.19370
 19 C     2.92374   -0.95407   -2.24499
 20 C     2.08791    1.00908   -0.44609
 21 C     1.39097   -0.65712   -0.14199
 22 C     1.19146   -1.54695   -1.86919
 23 C     0.37390   -0.01362    0.04220

System changes: positions 

Initializing position-dependent things.

Density initialized from wave functions
           .--------------------------------------.  
          /|                                      |  
         / |                                      |  
        /  |                                      |  
       /   |                                      |  
      /    |                                      |  
     /     |                                      |  
    /      |          C                           |  
   /       |       C                              |  
  /        |      C       C                       |  
 *         |  C     C      C   C  C               |  
 |         | C     C     C       C                |  
 |         .---C-----C---C--C--C-C----------------.  
 |        /    C          C                      /   
 |       /       C  C  C                        /    
 |      /                                      /     
 |     /                                      /      
 |    /                                      /       
 |   /                                      /        
 |  /                                      /         
 | /                                      /          
 |/                                      /           
 *--------------------------------------*            

Positions:
   0 C     10.739860    6.004059    5.041650
   1 C     11.270305    7.134927    4.957586
   2 C     11.113153    8.501191    4.935181
   3 C     10.976407    9.952531    4.855745
   4 C      9.282809    3.935295    5.174587
   5 C      9.514298    5.325722    5.188613
   6 C      9.860629    9.096948    5.150572
   7 C      7.586060    9.849867    5.831890
   8 C      8.216379    3.240409    5.210835
   9 C      7.770971    7.457822    5.484093
  10 C      8.185294    6.042120    5.329441
  11 C      8.452461    8.735702    5.488991
  12 C      5.557402    3.352299    4.939025
  13 C      6.913780    3.783873    5.035114
  14 C      4.513158    4.018963    5.173719
  15 C      6.982855    5.227373    5.395763
  16 C      4.432096    5.364067    5.566908
  17 C      5.775651    6.007078    5.696872
  18 C      3.398315    6.245292    5.871728
  19 C      6.151313   10.028183    6.875518
  20 C      4.970599    9.513822    6.798908
  21 C      4.688217    8.177147    6.402428
  22 C      5.927067    7.355774    6.066484
  23 C      3.493434    7.452591    6.231224

Unit cell:
           periodic     x           y           z      points  spacing
  1. axis:    yes   16.000000    0.000000    0.000000    80     0.2000
  2. axis:    yes    0.000000   16.000000    0.000000    80     0.2000
  3. axis:    yes    0.000000    0.000000   10.000000    48     0.2083

Effective grid spacing dv^(1/3) = 0.2027

                     log10-error:    total        iterations:
           time      wfs    density  energy       fermi  poisson
iter:   1  10:53:21          +inf  -179.393871    3      5      
iter:   2  10:53:22         -1.91  -179.331552    3      2      
iter:   3  10:53:22         -2.04  -179.291831    3      2      
iter:   4  10:53:23         -2.20  -179.259014    3      2      
iter:   5  10:53:23         -2.48  -179.260348    3      2      
iter:   6  10:53:24         -2.65  -179.261404    2      2      
iter:   7  10:53:25         -2.74  -179.259627    2      1      
iter:   8  10:53:25         -2.81  -179.255622    3      2      
iter:   9  10:53:26         -3.14  -179.258594    3      1      
iter:  10  10:53:27         -3.12  -179.256457    2      1      
iter:  11  10:53:27         -3.41  -179.254953    2      1      
iter:  12  10:53:28         -3.43  -179.256254    2      1      
iter:  13  10:53:28         -3.73  -179.255894    2      1      
iter:  14  10:53:29         -3.86  -179.255934    2      1      
iter:  15  10:53:30         -3.95  -179.256031    2      1      
iter:  16  10:53:30         -4.06  -179.255926    2      1      

Converged after 16 iterations.

Dipole moment: (-0.361877, -0.632632, 0.045814) |e|*Ang

Energy contributions relative to reference atoms: (reference = -24663.074771)

Kinetic:        +80.407448
Potential:      -94.125507
External:        +0.000000
XC:            -168.357191
Entropy (-ST):   -0.264713
Local:           +2.951680
--------------------------
Free energy:   -179.388282
Extrapolated:  -179.255926

Fermi level: -4.37392

 Band  Eigenvalues  Occupancy
    0    -22.75844    2.00000
    1    -22.44387    2.00000
    2    -21.55875    2.00000
    3    -20.84342    2.00000
    4    -20.33057    2.00000
    5    -19.92299    2.00000
    6    -19.57294    2.00000
    7    -19.35163    2.00000
    8    -18.44769    2.00000
    9    -17.99221    2.00000
   10    -17.51476    2.00000
   11    -16.81688    2.00000
   12    -15.89252    2.00000
   13    -15.69130    2.00000
   14    -15.13212    2.00000
   15    -14.79095    2.00000
   16    -14.40677    2.00000
   17    -13.40662    2.00000
   18    -13.08728    2.00000
   19    -12.89832    2.00000
   20    -12.35777    2.00000
   21    -12.04360    2.00000
   22    -11.92410    2.00000
   23    -11.12529    2.00000
   24    -10.99063    2.00000
   25    -10.39997    2.00000
   26    -10.35455    2.00000
   27    -10.00276    2.00000
   28     -9.83329    2.00000
   29     -9.52384    2.00000
   30     -9.37965    2.00000
   31     -8.95898    2.00000
   32     -8.67236    2.00000
   33     -8.44014    2.00000
   34     -8.17319    2.00000
   35     -7.84245    2.00000
   36     -7.26333    2.00000
   37     -7.08154    2.00000
   38     -6.88153    2.00000
   39     -6.72617    2.00000
   40     -6.60392    2.00000
   41     -6.54382    2.00000
   42     -6.40553    2.00000
   43     -6.02608    2.00000
   44     -5.79731    2.00000
   45     -5.54374    1.99998
   46     -4.72716    1.94319
   47     -4.47499    1.46632
   48     -4.28644    0.58850
   49     -3.67537    0.00185
   50     -3.37815    0.00009
   51     -3.34346    0.00007
   52     -2.93233    0.00000
   53     -2.83406    0.00000
   54     -2.64839    0.00000
   55     -1.83607    0.00000
   56     -1.68460    0.00000
   57     -1.22714    0.00000
   58     -0.85304    0.00000
   59     -0.65375    0.00000
   60      0.25553    0.00000
   61      0.53032    0.00000
   62      1.09332    0.00000
   63      1.56725    0.00000
   64      2.30484    0.00000
   65      2.53384    0.00000
   66      3.16448    0.00000
   67      3.35140    0.00000
   68      4.06762    0.00000
   69      4.55184    0.00000
   70      4.84702    0.00000
   71      5.12220    0.00000
   72      5.36780    0.00000
   73      5.86578    0.00000
   74      6.31039    0.00000
   75      6.56690    0.00000
   76      6.69336    0.00000
   77      6.81008    0.00000
   78      7.17371    0.00000
   79      7.54870    0.00000
   80      7.94656    0.00000
   81      8.49207    0.00000
   82      8.57281    0.00000
   83      8.58873    0.00000
   84      8.92521    0.00000
   85      9.05991    0.00000
   86      9.14573    0.00000
   87      9.27637    0.00000
   88      9.44448    0.00000
   89      9.48257    0.00000
   90      9.61518    0.00000
   91      9.70047    0.00000
   92      9.73551    0.00000
   93      9.87745    0.00000
   94     10.06903    0.00000
   95     10.13181    0.00000
   96     10.23791    0.00000
   97     10.42835    0.00000


Forces in eV/Ang:
  0 C    -0.14438    0.02129   -0.12235
  1 C    -0.03213    0.06241    0.03666
  2 C    -0.46261   -0.00237    0.09741
  3 C    -0.13218   -0.16457    0.06064
  4 C    -0.51420    0.08473    0.01829
  5 C    -0.23282   -0.05567    0.09916
  6 C    -0.92682    0.28920    0.10047
  7 C    -2.28482    1.43100    1.93019
  8 C    -0.03813    0.40167   -0.71163
  9 C    -0.85296   -0.38039    1.71983
 10 C    -0.70214    0.16470    0.18552
 11 C    -1.85941    0.47896    1.13926
 12 C     0.60819    0.08540    0.12294
 13 C     0.01603    0.03630    1.13504
 14 C     0.41245   -0.25004   -0.20592
 15 C    -0.46522    0.26056   -0.63992
 16 C    -0.34018   -0.24957    0.02788
 17 C    -0.52375   -0.81506   -0.40860
 18 C     0.01440    0.09980    0.18520
 19 C     3.19356   -1.32203   -2.75105
 20 C     2.16894    0.64814   -0.60182
 21 C     1.40137   -0.32338   -0.06208
 22 C     1.07303   -0.67547   -1.46857
 23 C     0.57772    0.13454    0.10262

System changes: positions 

Initializing position-dependent things.

Density initialized from wave functions
           .--------------------------------------.  
          /|                                      |  
         / |                                      |  
        /  |                                      |  
       /   |                                      |  
      /    |                                      |  
     /     |                                      |  
    /      |                                      |  
   /       |       C  C                           |  
  /        |      C       C                       |  
 *         |  C     C      C   C  C               |  
 |         | C     C     C       C                |  
 |         .---C-----C---C--C--C-C----------------.  
 |        /    C          C                      /   
 |       /       C  C  C                        /    
 |      /                                      /     
 |     /                                      /      
 |    /                                      /       
 |   /                                      /        
 |  /                                      /         
 | /                                      /          
 |/                                      /           
 *--------------------------------------*            

Positions:
   0 C     10.737341    6.003532    5.040630
   1 C     11.270453    7.135836    4.957811
   2 C     11.110539    8.500229    4.935910
   3 C     10.975310    9.950863    4.856289
   4 C      9.279402    3.936545    5.174717
   5 C      9.515586    5.324938    5.189252
   6 C      9.853180    9.101742    5.150920
   7 C      7.566185    9.866006    5.848457
   8 C      8.210071    3.244348    5.203267
   9 C      7.764710    7.452207    5.500022
  10 C      8.175230    6.047447    5.332035
  11 C      8.433521    8.735953    5.499260
  12 C      5.562618    3.351723    4.939635
  13 C      6.920868    3.783921    5.047447
  14 C      4.515913    4.017350    5.171866
  15 C      6.977968    5.228787    5.388825
  16 C      4.429319    5.362452    5.567380
  17 C      5.769442    6.003547    5.694863
  18 C      3.398843    6.244740    5.873088
  19 C      6.183367   10.019996    6.853033
  20 C      4.985784    9.519363    6.793856
  21 C      4.701141    8.172812    6.401456
  22 C      5.937561    7.344103    6.050548
  23 C      3.497899    7.454243    6.232217

Unit cell:
           periodic     x           y           z      points  spacing
  1. axis:    yes   16.000000    0.000000    0.000000    80     0.2000
  2. axis:    yes    0.000000   16.000000    0.000000    80     0.2000
  3. axis:    yes    0.000000    0.000000   10.000000    48     0.2083

Effective grid spacing dv^(1/3) = 0.2027

                     log10-error:    total        iterations:
           time      wfs    density  energy       fermi  poisson
iter:   1  10:53:32          +inf  -179.913244    3      5      
iter:   2  10:53:33         -1.90  -179.832879    3      2      
iter:   3  10:53:33         -2.14  -179.810870    3      2      
iter:   4  10:53:34         -2.25  -179.782315    3      2      
iter:   5  10:53:35         -2.57  -179.786577    3      2      
iter:   6  10:53:35         -2.72  -179.785223    2      1      
iter:   7  10:53:36         -2.78  -179.781953    3      2      
iter:   8  10:53:37         -3.06  -179.780709    2      1      
iter:   9  10:53:37         -3.24  -179.780090    2      2      
iter:  10  10:53:38         -3.53  -179.780556    2      1      
iter:  11  10:53:38         -3.67  -179.780477    2      1      
iter:  12  10:53:39         -3.75  -179.780311    2      1      
iter:  13  10:53:40         -3.86  -179.780418    2      1      
iter:  14  10:53:40         -3.93  -179.780258    2      1      
iter:  15  10:53:41         -4.09  -179.780369    2      1      

Converged after 15 iterations.

Dipole moment: (-0.373128, -0.619530, 0.069002) |e|*Ang

Energy contributions relative to reference atoms: (reference = -24663.074771)

Kinetic:        +78.224148
Potential:      -92.480279
External:        +0.000000
XC:            -168.345959
Entropy (-ST):   -0.262451
Local:           +2.952946
--------------------------
Free energy:   -179.911594
Extrapolated:  -179.780369

Fermi level: -4.34754

 Band  Eigenvalues  Occupancy
    0    -22.68756    2.00000
    1    -22.46544    2.00000
    2    -21.55507    2.00000
    3    -20.82721    2.00000
    4    -20.30033    2.00000
    5    -19.93280    2.00000
    6    -19.54900    2.00000
    7    -19.32308    2.00000
    8    -18.43777    2.00000
    9    -17.99407    2.00000
   10    -17.53702    2.00000
   11    -16.82129    2.00000
   12    -15.87877    2.00000
   13    -15.73633    2.00000
   14    -15.10293    2.00000
   15    -14.76416    2.00000
   16    -14.35257    2.00000
   17    -13.44337    2.00000
   18    -13.08613    2.00000
   19    -12.89537    2.00000
   20    -12.36081    2.00000
   21    -12.07437    2.00000
   22    -11.90322    2.00000
   23    -11.19724    2.00000
   24    -10.99366    2.00000
   25    -10.40905    2.00000
   26    -10.35653    2.00000
   27     -9.98503    2.00000
   28     -9.79680    2.00000
   29     -9.54072    2.00000
   30     -9.36286    2.00000
   31     -8.98652    2.00000
   32     -8.66890    2.00000
   33     -8.42425    2.00000
   34     -8.19033    2.00000
   35     -7.87204    2.00000
   36     -7.24835    2.00000
   37     -7.08939    2.00000
   38     -6.85669    2.00000
   39     -6.77599    2.00000
   40     -6.61851    2.00000
   41     -6.55021    2.00000
   42     -6.40998    2.00000
   43     -6.04132    2.00000
   44     -5.76620    2.00000
   45     -5.56706    1.99999
   46     -4.68673    1.93490
   47     -4.45647    1.49649
   48     -4.25472    0.56660
   49     -3.64712    0.00181
   50     -3.38462    0.00013
   51     -3.32549    0.00007
   52     -2.89782    0.00000
   53     -2.83112    0.00000
   54     -2.64986    0.00000
   55     -1.81317    0.00000
   56     -1.68017    0.00000
   57     -1.17616    0.00000
   58     -0.81831    0.00000
   59     -0.50728    0.00000
   60      0.26220    0.00000
   61      0.56627    0.00000
   62      1.17430    0.00000
   63      1.57325    0.00000
   64      2.51727    0.00000
   65      2.53824    0.00000
   66      3.26945    0.00000
   67      3.38274    0.00000
   68      4.07826    0.00000
   69      4.57681    0.00000
   70      4.90116    0.00000
   71      5.13208    0.00000
   72      5.38083    0.00000
   73      5.95388    0.00000
   74      6.29478    0.00000
   75      6.61313    0.00000
   76      6.64959    0.00000
   77      6.78899    0.00000
   78      7.18542    0.00000
   79      7.57065    0.00000
   80      7.93786    0.00000
   81      8.52182    0.00000
   82      8.56399    0.00000
   83      8.59436    0.00000
   84      8.94109    0.00000
   85      9.06086    0.00000
   86      9.14857    0.00000
   87      9.27165    0.00000
   88      9.44360    0.00000
   89      9.48721    0.00000
   90      9.60287    0.00000
   91      9.69266    0.00000
   92      9.74969    0.00000
   93      9.90265    0.00000
   94     10.04772    0.00000
   95     10.14283    0.00000
   96     10.26653    0.00000
   97     10.45100    0.00000


Forces in eV/Ang:
  0 C    -0.01691    0.15423   -0.13366
  1 C    -0.12170   -0.05824    0.05766
  2 C    -0.65387    0.08982    0.10889
  3 C    -0.21264   -0.17945    0.07502
  4 C    -0.53849    0.06602    0.01553
  5 C    -0.48188    0.02093    0.10911
  6 C    -0.96475    0.07759    0.17198
  7 C    -2.67657    0.98848    2.26129
  8 C     0.48737    0.26773   -0.59813
  9 C    -1.04997   -0.03299    1.67477
 10 C    -0.35729   -0.18650    0.09884
 11 C    -1.62244    0.94044    1.15234
 12 C     0.53569    0.16249    0.18008
 13 C    -0.53954    0.09747    0.90954
 14 C     0.45317   -0.29013   -0.19593
 15 C    -0.36018    0.26262   -0.49496
 16 C    -0.34932   -0.34008   -0.00846
 17 C    -0.37239   -1.04367   -0.55800
 18 C    -0.03541    0.28409    0.22126
 19 C     3.35973   -1.75447   -3.28893
 20 C     2.29039    0.62553   -0.63411
 21 C     1.45262   -0.13905   -0.01805
 22 C     1.01824   -0.15839   -1.18203
 23 C     0.69962    0.08660    0.10228

System changes: positions 

Initializing position-dependent things.

Density initialized from wave functions
           .--------------------------------------.  
          /|                                      |  
         / |                                      |  
        /  |                                      |  
       /   |                                      |  
      /    |                                      |  
     /     |                                      |  
    /      |                                      |  
   /       |       C  C                           |  
  /        |      C       C                       |  
 *         |  C     C      C   C  C               |  
 |         | C     C     C       C                |  
 |         .---C-----C---C--C--C-C----------------.  
 |        /    C          C                      /   
 |       /       C  C  C                        /    
 |      /                                      /     
 |     /                                      /      
 |    /                                      /       
 |   /                                      /        
 |  /                                      /         
 | /                                      /          
 |/                                      /           
 *--------------------------------------*            

Positions:
   0 C     10.735236    6.003535    5.039610
   1 C     11.270303    7.136150    4.958092
   2 C     11.107759    8.499439    4.936606
   3 C     10.974010    9.949165    4.856860
   4 C      9.276045    3.937557    5.174825
   5 C      9.516687    5.324407    5.189854
   6 C      9.846074    9.106124    5.151380
   7 C      7.545968    9.880698    5.865252
   8 C      8.204765    3.247926    5.196144
   9 C      7.758357    7.447485    5.515241
  10 C      8.165909    6.052222    5.334431
  11 C      8.415709    8.736858    5.509141
  12 C      5.567242    3.351205    4.940321
  13 C      6.927276    3.784078    5.058958
  14 C      4.518589    4.015716    5.170094
  15 C      6.973497    5.230005    5.382408
  16 C      4.426684    5.360765    5.567766
  17 C      5.763682    6.000233    5.692807
  18 C      3.399266    6.244637    5.874484
  19 C      6.215027   10.011349    6.830168
  20 C      5.000122    9.524784    6.789041
  21 C      4.713765    8.168900    6.400573
  22 C      5.947630    7.333413    6.035643
  23 C      3.502389    7.455626    6.233141

Unit cell:
           periodic     x           y           z      points  spacing
  1. axis:    yes   16.000000    0.000000    0.000000    80     0.2000
  2. axis:    yes    0.000000   16.000000    0.000000    80     0.2000
  3. axis:    yes    0.000000    0.000000   10.000000    48     0.2083

Effective grid spacing dv^(1/3) = 0.2027

                     log10-error:    total        iterations:
           time      wfs    density  energy       fermi  poisson
iter:   1  10:53:43          +inf  -180.433817    3      5      
iter:   2  10:53:44         -1.88  -180.340002    3      2      
iter:   3  10:53:44         -2.16  -180.318926    3      2      
iter:   4  10:53:45         -2.27  -180.292698    3      2      
iter:   5  10:53:45         -2.60  -180.295076    3      2      
iter:   6  10:53:46         -2.77  -180.293503    2      1      
iter:   7  10:53:47         -2.85  -180.290264    2      2      
iter:   8  10:53:47         -3.12  -180.298711    3      2      
iter:   9  10:53:48         -2.79  -180.292429    3      1      
iter:  10  10:53:48         -3.51  -180.290940    2      1      
iter:  11  10:53:49         -3.52  -180.291444    2      1      
iter:  12  10:53:50         -3.68  -180.291708    2      1      
iter:  13  10:53:50         -3.74  -180.291222    2      1      
iter:  14  10:53:51         -3.96  -180.291247    2      1      
iter:  15  10:53:51         -4.07  -180.291057    2      1      

Converged after 15 iterations.

Dipole moment: (-0.365016, -0.623626, 0.079706) |e|*Ang

Energy contributions relative to reference atoms: (reference = -24663.074771)

Kinetic:        +76.844859
Potential:      -91.500462
External:        +0.000000
XC:            -168.461976
Entropy (-ST):   -0.260213
Local:           +2.956629
--------------------------
Free energy:   -180.421163
Extrapolated:  -180.291057

Fermi level: -4.33355

 Band  Eigenvalues  Occupancy
    0    -22.63822    2.00000
    1    -22.48664    2.00000
    2    -21.55677    2.00000
    3    -20.82022    2.00000
    4    -20.29251    2.00000
    5    -19.94048    2.00000
    6    -19.53910    2.00000
    7    -19.28813    2.00000
    8    -18.43184    2.00000
    9    -18.00168    2.00000
   10    -17.55405    2.00000
   11    -16.83608    2.00000
   12    -15.86728    2.00000
   13    -15.79214    2.00000
   14    -15.08629    2.00000
   15    -14.77105    2.00000
   16    -14.30201    2.00000
   17    -13.48068    2.00000
   18    -13.09441    2.00000
   19    -12.88947    2.00000
   20    -12.36809    2.00000
   21    -12.10310    2.00000
   22    -11.88158    2.00000
   23    -11.25604    2.00000
   24    -10.98820    2.00000
   25    -10.42729    2.00000
   26    -10.35616    2.00000
   27     -9.97271    2.00000
   28     -9.76670    2.00000
   29     -9.55087    2.00000
   30     -9.35254    2.00000
   31     -9.02257    2.00000
   32     -8.67114    2.00000
   33     -8.42023    2.00000
   34     -8.20789    2.00000
   35     -7.90045    2.00000
   36     -7.24474    2.00000
   37     -7.09568    2.00000
   38     -6.84774    2.00000
   39     -6.82033    2.00000
   40     -6.62128    2.00000
   41     -6.55140    2.00000
   42     -6.42162    2.00000
   43     -6.05922    2.00000
   44     -5.74074    2.00000
   45     -5.58987    1.99999
   46     -4.65777    1.92478
   47     -4.45060    1.52644
   48     -4.23593    0.54728
   49     -3.59732    0.00127
   50     -3.38842    0.00016
   51     -3.31213    0.00007
   52     -2.86515    0.00000
   53     -2.82191    0.00000
   54     -2.63291    0.00000
   55     -1.78966    0.00000
   56     -1.68124    0.00000
   57     -1.13873    0.00000
   58     -0.79821    0.00000
   59     -0.35951    0.00000
   60      0.26618    0.00000
   61      0.59865    0.00000
   62      1.22221    0.00000
   63      1.57993    0.00000
   64      2.52856    0.00000
   65      2.68134    0.00000
   66      3.18931    0.00000
   67      3.70222    0.00000
   68      4.10838    0.00000
   69      4.60121    0.00000
   70      4.93862    0.00000
   71      5.12718    0.00000
   72      5.39340    0.00000
   73      6.04436    0.00000
   74      6.27283    0.00000
   75      6.60566    0.00000
   76      6.66329    0.00000
   77      6.77198    0.00000
   78      7.19881    0.00000
   79      7.59201    0.00000
   80      7.92272    0.00000
   81      8.54275    0.00000
   82      8.54566    0.00000
   83      8.62455    0.00000
   84      8.94788    0.00000
   85      9.06865    0.00000
   86      9.14832    0.00000
   87      9.26682    0.00000
   88      9.44050    0.00000
   89      9.48990    0.00000
   90      9.58369    0.00000
   91      9.68481    0.00000
   92      9.76030    0.00000
   93      9.92160    0.00000
   94     10.02788    0.00000
   95     10.15151    0.00000
   96     10.28442    0.00000
   97     10.47811    0.00000


Forces in eV/Ang:
  0 C     0.06101    0.19862   -0.13569
  1 C    -0.17170   -0.08028    0.07191
  2 C    -0.81079    0.16228    0.11745
  3 C    -0.25561   -0.12419    0.07903
  4 C    -0.50719    0.08635    0.00824
  5 C    -0.70293    0.07029    0.11798
  6 C    -0.96886   -0.11461    0.24113
  7 C    -2.98961    0.52313    2.60815
  8 C     0.96518    0.10752   -0.48605
  9 C    -1.27628    0.30997    1.59452
 10 C    -0.03959   -0.53477    0.02086
 11 C    -1.36980    1.33934    1.07573
 12 C     0.50519    0.20545    0.23399
 13 C    -1.07807    0.15931    0.67506
 14 C     0.45930   -0.30854   -0.18221
 15 C    -0.27918    0.28598   -0.38749
 16 C    -0.34841   -0.40881   -0.03795
 17 C    -0.23158   -1.25444   -0.69773
 18 C    -0.08707    0.40842    0.24370
 19 C     3.59268   -2.01664   -3.75326
 20 C     2.28511    0.54496   -0.64345
 21 C     1.55489    0.08413    0.02570
 22 C     0.97960    0.31167   -0.93371
 23 C     0.82506    0.05868    0.10595

System changes: positions 

Initializing position-dependent things.

Density initialized from wave functions
           .--------------------------------------.  
          /|                                      |  
         / |                                      |  
        /  |                                      |  
       /   |                                      |  
      /    |                                      |  
     /     |                                      |  
    /      |                                      |  
   /       |       C  C                           |  
  /        |      C       C                       |  
 *         |  C     C      C   C  C               |  
 |         | C     C     C       C                |  
 |         .---C-----C---C--C--C-C----------------.  
 |        /    C          C                      /   
 |       /       C  C  C                        /    
 |      /                                      /     
 |     /                                      /      
 |    /                                      /       
 |   /                                      /        
 |  /                                      /         
 | /                                      /          
 |/                                      /           
 *--------------------------------------*            

Positions:
   0 C     10.733139    6.003357    5.038634
   1 C     11.270195    7.136695    4.958373
   2 C     11.105038    8.498666    4.937270
   3 C     10.972843    9.947954    4.857377
   4 C      9.272904    3.938583    5.174891
   5 C      9.517690    5.323855    5.190448
   6 C      9.839308    9.110318    5.151927
   7 C      7.525918    9.894272    5.882471
   8 C      8.200138    3.251185    5.189292
   9 C      7.751608    7.443351    5.529864
  10 C      8.156968    6.056512    5.336736
  11 C      8.398699    8.737932    5.518200
  12 C      5.571824    3.350573    4.941070
  13 C      6.933050    3.784307    5.069868
  14 C      4.521087    4.014135    5.168371
  15 C      6.969118    5.231346    5.376051
  16 C      4.424172    5.359159    5.568144
  17 C      5.758162    5.996957    5.690690
  18 C      3.399589    6.244507    5.875848
  19 C      6.246849   10.003323    6.807299
  20 C      5.013504    9.529882    6.784511
  21 C      4.726662    8.165549    6.399753
  22 C      5.957594    7.323188    6.021123
  23 C      3.506976    7.456914    6.234036

Unit cell:
           periodic     x           y           z      points  spacing
  1. axis:    yes   16.000000    0.000000    0.000000    80     0.2000
  2. axis:    yes    0.000000   16.000000    0.000000    80     0.2000
  3. axis:    yes    0.000000    0.000000   10.000000    48     0.2083

Effective grid spacing dv^(1/3) = 0.2027

                     log10-error:    total        iterations:
           time      wfs    density  energy       fermi  poisson
iter:   1  10:53:54          +inf  -180.939536    3      5      
iter:   2  10:53:54         -1.87  -180.832725    3      2      
iter:   3  10:53:55         -2.15  -180.809841    3      2      
iter:   4  10:53:55         -2.28  -180.783744    3      2      
iter:   5  10:53:56         -2.61  -180.784707    3      2      
iter:   6  10:53:57         -2.80  -180.782427    2      1      
iter:   7  10:53:57         -2.88  -180.782888    2      2      
iter:   8  10:53:58         -3.15  -180.782584    1      1      
iter:   9  10:53:59         -3.28  -180.782460    2      1      
iter:  10  10:53:59         -3.55  -180.782887    2      1      
iter:  11  10:54:00         -3.66  -180.782953    2      1      
iter:  12  10:54:00         -3.73  -180.782869    2      1      
iter:  13  10:54:01         -3.96  -180.782832    2      1      
iter:  14  10:54:02         -4.05  -180.782785    2      1      

Converged after 14 iterations.

Dipole moment: (-0.340622, -0.638052, 0.079953) |e|*Ang

Energy contributions relative to reference atoms: (reference = -24663.074771)

Kinetic:        +76.194580
Potential:      -91.136550
External:        +0.000000
XC:            -168.669768
Entropy (-ST):   -0.257805
Local:           +2.957856
--------------------------
Free energy:   -180.911687
Extrapolated:  -180.782785

Fermi level: -4.32851

 Band  Eigenvalues  Occupancy
    0    -22.61179    2.00000
    1    -22.49873    2.00000
    2    -21.56097    2.00000
    3    -20.81999    2.00000
    4    -20.29625    2.00000
    5    -19.94639    2.00000
    6    -19.54045    2.00000
    7    -19.24684    2.00000
    8    -18.42653    2.00000
    9    -18.01152    2.00000
   10    -17.56806    2.00000
   11    -16.85957    2.00000
   12    -15.86388    2.00000
   13    -15.85528    2.00000
   14    -15.07800    2.00000
   15    -14.79416    2.00000
   16    -14.25725    2.00000
   17    -13.51589    2.00000
   18    -13.11087    2.00000
   19    -12.87840    2.00000
   20    -12.37548    2.00000
   21    -12.12882    2.00000
   22    -11.85641    2.00000
   23    -11.29004    2.00000
   24    -10.98029    2.00000
   25    -10.45017    2.00000
   26    -10.35310    2.00000
   27     -9.96673    2.00000
   28     -9.74388    2.00000
   29     -9.55631    2.00000
   30     -9.34577    2.00000
   31     -9.06557    2.00000
   32     -8.67755    2.00000
   33     -8.42454    2.00000
   34     -8.22557    2.00000
   35     -7.92711    2.00000
   36     -7.25219    2.00000
   37     -7.09435    2.00000
   38     -6.86414    2.00000
   39     -6.83504    2.00000
   40     -6.62037    2.00000
   41     -6.55102    2.00000
   42     -6.43629    2.00000
   43     -6.07803    2.00000
   44     -5.71758    2.00000
   45     -5.61074    1.99999
   46     -4.64257    1.91708
   47     -4.45235    1.55059
   48     -4.22683    0.53133
   49     -3.54290    0.00077
   50     -3.39104    0.00017
   51     -3.30254    0.00007
   52     -2.85271    0.00000
   53     -2.78449    0.00000
   54     -2.59203    0.00000
   55     -1.76585    0.00000
   56     -1.68997    0.00000
   57     -1.11465    0.00000
   58     -0.78664    0.00000
   59     -0.21258    0.00000
   60      0.27016    0.00000
   61      0.63400    0.00000
   62      1.24348    0.00000
   63      1.58808    0.00000
   64      2.51644    0.00000
   65      2.76322    0.00000
   66      3.10795    0.00000
   67      3.93509    0.00000
   68      4.23762    0.00000
   69      4.64528    0.00000
   70      4.96941    0.00000
   71      5.11049    0.00000
   72      5.41706    0.00000
   73      6.14598    0.00000
   74      6.24878    0.00000
   75      6.56813    0.00000
   76      6.69644    0.00000
   77      6.80393    0.00000
   78      7.22679    0.00000
   79      7.61826    0.00000
   80      7.90322    0.00000
   81      8.52589    0.00000
   82      8.56534    0.00000
   83      8.68544    0.00000
   84      8.95120    0.00000
   85      9.08657    0.00000
   86      9.14436    0.00000
   87      9.26244    0.00000
   88      9.43793    0.00000
   89      9.49166    0.00000
   90      9.56328    0.00000
   91      9.67685    0.00000
   92      9.76690    0.00000
   93      9.93423    0.00000
   94     10.01713    0.00000
   95     10.15836    0.00000
   96     10.28902    0.00000
   97     10.50282    0.00000


Forces in eV/Ang:
  0 C     0.16112    0.28823   -0.14148
  1 C    -0.23620   -0.14901    0.08641
  2 C    -0.97103    0.24991    0.12245
  3 C    -0.33642   -0.17018    0.09545
  4 C    -0.47321    0.10771    0.00781
  5 C    -0.92172    0.11813    0.13008
  6 C    -0.94223   -0.29815    0.30534
  7 C    -3.11394    0.01659    2.80226
  8 C     1.39060   -0.04022   -0.42330
  9 C    -1.47704    0.66191    1.51377
 10 C     0.24103   -0.85790   -0.03439
 11 C    -1.12270    1.68581    1.00202
 12 C     0.44961    0.24737    0.28723
 13 C    -1.59093    0.24343    0.49689
 14 C     0.48376   -0.33074   -0.16870
 15 C    -0.18265    0.28939   -0.28022
 16 C    -0.33586   -0.47733   -0.06781
 17 C    -0.10361   -1.46128   -0.82144
 18 C    -0.14313    0.53660    0.27078
 19 C     3.59489   -2.19324   -4.02253
 20 C     2.18353    0.47570   -0.62112
 21 C     1.64972    0.32243    0.05874
 22 C     0.90374    0.74681   -0.66769
 23 C     0.94966    0.02109    0.10212

System changes: positions 

Initializing position-dependent things.

Density initialized from wave functions
           .--------------------------------------.  
          /|                                      |  
         / |                                      |  
        /  |                                      |  
       /   |                                      |  
      /    |                                      |  
     /     |                                      |  
    /      |                                      |  
   /       |       C   C                          |  
  /        |      C      C                        |  
 *         |  C     C      C   C  C               |  
 |         | C     C     C       C                |  
 |         .---C-----C---C--C--C-C----------------.  
 |        /    C          C                      /   
 |       /       C  C  C                        /    
 |      /                                      /     
 |     /                                      /      
 |    /                                      /       
 |   /                                      /        
 |  /                                      /         
 | /                                      /          
 |/                                      /           
 *--------------------------------------*            

Positions:
   0 C     10.731297    6.003642    5.037567
   1 C     11.269852    7.136883    4.958702
   2 C     11.101776    8.498190    4.937939
   3 C     10.971117    9.945804    4.858061
   4 C      9.269819    3.939808    5.175007
   5 C      9.518249    5.323305    5.191147
   6 C      9.832645    9.114413    5.152654
   7 C      7.506331    9.906621    5.900008
   8 C      8.195902    3.254279    5.181683
   9 C      7.743912    7.440122    5.545030
  10 C      8.147788    6.060375    5.339290
  11 C      8.381373    8.739343    5.527245
  12 C      5.576396    3.349882    4.942022
  13 C      6.937993    3.785028    5.081458
  14 C      4.523893    4.012399    5.166578
  15 C      6.964816    5.232681    5.369449
  16 C      4.421703    5.357346    5.568481
  17 C      5.752502    5.993011    5.688272
  18 C      3.399703    6.244611    5.877392
  19 C      6.278697    9.995758    6.784311
  20 C      5.025979    9.535076    6.780212
  21 C      4.740869    8.163016    6.398866
  22 C      5.967688    7.313040    6.006483
  23 C      3.512245    7.458085    6.234898

Unit cell:
           periodic     x           y           z      points  spacing
  1. axis:    yes   16.000000    0.000000    0.000000    80     0.2000
  2. axis:    yes    0.000000   16.000000    0.000000    80     0.2000
  3. axis:    yes    0.000000    0.000000   10.000000    48     0.2083

Effective grid spacing dv^(1/3) = 0.2027

                     log10-error:    total        iterations:
           time      wfs    density  energy       fermi  poisson
iter:   1  10:54:04          +inf  -181.402975    3      5      
iter:   2  10:54:04         -1.88  -181.298103    3      2      
iter:   3  10:54:05         -2.16  -181.275050    3      2      
iter:   4  10:54:06         -2.29  -181.250556    3      2      
iter:   5  10:54:06         -2.62  -181.249985    3      2      
iter:   6  10:54:07         -2.77  -181.250266    2      2      
iter:   7  10:54:07         -2.89  -181.248602    2      2      
iter:   8  10:54:08         -3.27  -181.248774    2      1      
iter:   9  10:54:09         -3.50  -181.249336    2      1      
iter:  10  10:54:09         -3.55  -181.249514    2      1      
iter:  11  10:54:10         -3.73  -181.249338    2      1      
iter:  12  10:54:10         -3.90  -181.249280    2      1      
iter:  13  10:54:11         -3.95  -181.249503    2      1      
iter:  14  10:54:12         -4.06  -181.249310    2      1      

Converged after 14 iterations.

Dipole moment: (-0.309009, -0.660891, 0.073917) |e|*Ang

Energy contributions relative to reference atoms: (reference = -24663.074771)

Kinetic:        +76.563419
Potential:      -91.599328
External:        +0.000000
XC:            -169.050039
Entropy (-ST):   -0.256145
Local:           +2.964710
--------------------------
Free energy:   -181.377382
Extrapolated:  -181.249310

Fermi level: -4.32675

 Band  Eigenvalues  Occupancy
    0    -22.61907    2.00000
    1    -22.50282    2.00000
    2    -21.56879    2.00000
    3    -20.83172    2.00000
    4    -20.30679    2.00000
    5    -19.95651    2.00000
    6    -19.55718    2.00000
    7    -19.20689    2.00000
    8    -18.42434    2.00000
    9    -18.02518    2.00000
   10    -17.58683    2.00000
   11    -16.88886    2.00000
   12    -15.94448    2.00000
   13    -15.85223    2.00000
   14    -15.07668    2.00000
   15    -14.82232    2.00000
   16    -14.22072    2.00000
   17    -13.54887    2.00000
   18    -13.13329    2.00000
   19    -12.86539    2.00000
   20    -12.38335    2.00000
   21    -12.15437    2.00000
   22    -11.83158    2.00000
   23    -11.29944    2.00000
   24    -10.97083    2.00000
   25    -10.47922    2.00000
   26    -10.35209    2.00000
   27     -9.96819    2.00000
   28     -9.73063    2.00000
   29     -9.56096    2.00000
   30     -9.34344    2.00000
   31     -9.11728    2.00000
   32     -8.69235    2.00000
   33     -8.43918    2.00000
   34     -8.24486    2.00000
   35     -7.95532    2.00000
   36     -7.27227    2.00000
   37     -7.08933    2.00000
   38     -6.89666    2.00000
   39     -6.83897    2.00000
   40     -6.62173    2.00000
   41     -6.55035    2.00000
   42     -6.45520    2.00000
   43     -6.09935    2.00000
   44     -5.70590    2.00000
   45     -5.62911    2.00000
   46     -4.63088    1.90881
   47     -4.45681    1.57185
   48     -4.22179    0.51858
   49     -3.50241    0.00053
   50     -3.39238    0.00018
   51     -3.29495    0.00007
   52     -2.85512    0.00000
   53     -2.72655    0.00000
   54     -2.51102    0.00000
   55     -1.74773    0.00000
   56     -1.68737    0.00000
   57     -1.09571    0.00000
   58     -0.78206    0.00000
   59     -0.06422    0.00000
   60      0.27651    0.00000
   61      0.67359    0.00000
   62      1.24842    0.00000
   63      1.60545    0.00000
   64      2.49909    0.00000
   65      2.79867    0.00000
   66      3.03922    0.00000
   67      3.98340    0.00000
   68      4.39714    0.00000
   69      4.74345    0.00000
   70      4.99956    0.00000
   71      5.08409    0.00000
   72      5.45711    0.00000
   73      6.20338    0.00000
   74      6.26774    0.00000
   75      6.53826    0.00000
   76      6.67860    0.00000
   77      6.91653    0.00000
   78      7.29189    0.00000
   79      7.65434    0.00000
   80      7.87936    0.00000
   81      8.50382    0.00000
   82      8.58340    0.00000
   83      8.79279    0.00000
   84      8.95178    0.00000
   85      9.12647    0.00000
   86      9.13929    0.00000
   87      9.26127    0.00000
   88      9.43478    0.00000
   89      9.49245    0.00000
   90      9.54437    0.00000
   91      9.67333    0.00000
   92      9.76791    0.00000
   93      9.93506    0.00000
   94     10.02497    0.00000
   95     10.16412    0.00000
   96     10.28385    0.00000
   97     10.50257    0.00000


Forces in eV/Ang:
  0 C     0.21591    0.30794   -0.13440
  1 C    -0.27061   -0.14542    0.09340
  2 C    -1.10927    0.28254    0.13333
  3 C    -0.37459   -0.12444    0.09619
  4 C    -0.43451    0.12229   -0.00094
  5 C    -1.11105    0.17700    0.13932
  6 C    -0.97007   -0.48213    0.37001
  7 C    -2.96429   -0.49183    2.79713
  8 C     1.78756   -0.19321   -0.35849
  9 C    -1.67401    0.97766    1.41273
 10 C     0.54161   -1.14352   -0.07954
 11 C    -0.84500    1.92874    0.89166
 12 C     0.39220    0.27087    0.33754
 13 C    -2.05176    0.27626    0.29966
 14 C     0.48184   -0.34258   -0.15265
 15 C    -0.07792    0.27834   -0.13282
 16 C    -0.33203   -0.53407   -0.09552
 17 C     0.03839   -1.64237   -0.93289
 18 C    -0.18647    0.64405    0.29611
 19 C     3.30130   -2.23430   -4.06553
 20 C     2.05852    0.34352   -0.60009
 21 C     1.71522    0.53436    0.02032
 22 C     0.87403    1.16704   -0.42108
 23 C     1.08379    0.00081    0.09000

System changes: positions 

Initializing position-dependent things.

Density initialized from wave functions
           .--------------------------------------.  
          /|                                      |  
         / |                                      |  
        /  |                                      |  
       /   |                                      |  
      /    |                                      |  
     /     |                                      |  
    /      |                                      |  
   /       |       C   C                          |  
  /        |      C      C                        |  
 *         |  C     C      C   C  C               |  
 |         | C     C     C       C                |  
 |         .---C-----C---C--C--C-C----------------.  
 |        /    C          C                      /   
 |       /       C  C  C                        /    
 |      /                                      /     
 |     /                                      /      
 |    /                                      /       
 |   /                                      /        
 |  /                                      /         
 | /                                      /          
 |/                                      /           
 *--------------------------------------*            

Positions:
   0 C     10.729116    6.003635    5.036460
   1 C     11.269489    7.137604    4.959051
   2 C     11.097437    8.497374    4.938804
   3 C     10.969088    9.943839    4.858788
   4 C      9.266514    3.941282    5.175055
   5 C      9.518192    5.323032    5.192015
   6 C      9.824445    9.118294    5.153839
   7 C      7.488154    9.917899    5.917726
   8 C      8.192514    3.257086    5.172792
   9 C      7.733913    7.437824    5.561997
  10 C      8.138556    6.063841    5.342306
  11 C      8.362885    8.740908    5.536720
  12 C      5.581309    3.348967    4.943389
  13 C      6.941909    3.785731    5.094141
  14 C      4.527013    4.010382    5.164583
  15 C      6.960491    5.233976    5.362814
  16 C      4.418847    5.355066    5.568756
  17 C      5.746676    5.987687    5.685058
  18 C      3.399674    6.245083    5.879346
  19 C      6.310195    9.988814    6.760653
  20 C      5.038836    9.539879    6.775561
  21 C      4.757716    8.161161    6.396872
  22 C      5.979585    7.302987    5.990537
  23 C      3.519264    7.459437    6.235708

Unit cell:
           periodic     x           y           z      points  spacing
  1. axis:    yes   16.000000    0.000000    0.000000    80     0.2000
  2. axis:    yes    0.000000   16.000000    0.000000    80     0.2000
  3. axis:    yes    0.000000    0.000000   10.000000    48     0.2083

Effective grid spacing dv^(1/3) = 0.2027

                     log10-error:    total        iterations:
           time      wfs    density  energy       fermi  poisson
iter:   1  10:54:14          +inf  -181.842909    3      5      
iter:   2  10:54:14         -1.87  -181.733230    3      2      
iter:   3  10:54:15         -2.16  -181.709062    3      2      
iter:   4  10:54:16         -2.28  -181.683279    3      2      
iter:   5  10:54:16         -2.60  -181.682400    3      2      
iter:   6  10:54:17         -2.75  -181.682532    3      2      
iter:   7  10:54:18         -2.88  -181.680727    2      2      
iter:   8  10:54:18         -3.29  -181.681055    2      1      
iter:   9  10:54:19         -3.49  -181.681879    2      1      
iter:  10  10:54:19         -3.55  -181.682028    2      1      
iter:  11  10:54:20         -3.68  -181.682326    2      1      
iter:  12  10:54:21         -3.79  -181.681985    2      1      
iter:  13  10:54:21         -3.94  -181.681793    2      1      
iter:  14  10:54:22         -4.02  -181.681932    2      1      

Converged after 14 iterations.

Dipole moment: (-0.277561, -0.684637, 0.065444) |e|*Ang

Energy contributions relative to reference atoms: (reference = -24663.074771)

Kinetic:        +77.941474
Potential:      -92.873799
External:        +0.000000
XC:            -169.589515
Entropy (-ST):   -0.255549
Local:           +2.967682
--------------------------
Free energy:   -181.809706
Extrapolated:  -181.681932

Fermi level: -4.32626

 Band  Eigenvalues  Occupancy
    0    -22.64352    2.00000
    1    -22.48426    2.00000
    2    -21.57689    2.00000
    3    -20.85593    2.00000
    4    -20.31934    2.00000
    5    -19.97608    2.00000
    6    -19.58553    2.00000
    7    -19.17179    2.00000
    8    -18.42204    2.00000
    9    -18.04005    2.00000
   10    -17.61549    2.00000
   11    -16.92168    2.00000
   12    -16.03701    2.00000
   13    -15.85140    2.00000
   14    -15.07619    2.00000
   15    -14.84712    2.00000
   16    -14.19054    2.00000
   17    -13.57863    2.00000
   18    -13.15713    2.00000
   19    -12.85209    2.00000
   20    -12.39013    2.00000
   21    -12.17779    2.00000
   22    -11.80978    2.00000
   23    -11.28826    2.00000
   24    -10.95748    2.00000
   25    -10.51059    2.00000
   26    -10.34863    2.00000
   27     -9.97642    2.00000
   28     -9.71701    2.00000
   29     -9.56259    2.00000
   30     -9.34270    2.00000
   31     -9.17312    2.00000
   32     -8.71466    2.00000
   33     -8.46167    2.00000
   34     -8.26207    2.00000
   35     -7.98867    2.00000
   36     -7.29847    2.00000
   37     -7.08356    2.00000
   38     -6.94165    2.00000
   39     -6.84208    2.00000
   40     -6.62434    2.00000
   41     -6.54816    2.00000
   42     -6.47607    2.00000
   43     -6.12104    2.00000
   44     -5.71635    2.00000
   45     -5.62959    2.00000
   46     -4.62187    1.90111
   47     -4.46093    1.58718
   48     -4.21932    0.51104
   49     -3.48402    0.00044
   50     -3.39266    0.00018
   51     -3.28642    0.00006
   52     -2.85897    0.00000
   53     -2.67530    0.00000
   54     -2.37758    0.00000
   55     -1.75540    0.00000
   56     -1.65594    0.00000
   57     -1.08061    0.00000
   58     -0.78199    0.00000
   59      0.09602    0.00000
   60      0.29012    0.00000
   61      0.72668    0.00000
   62      1.24836    0.00000
   63      1.63862    0.00000
   64      2.47725    0.00000
   65      2.80528    0.00000
   66      2.99123    0.00000
   67      3.98535    0.00000
   68      4.45096    0.00000
   69      4.84148    0.00000
   70      5.03648    0.00000
   71      5.05323    0.00000
   72      5.50565    0.00000
   73      6.18594    0.00000
   74      6.33450    0.00000
   75      6.52029    0.00000
   76      6.64480    0.00000
   77      7.01306    0.00000
   78      7.39142    0.00000
   79      7.71504    0.00000
   80      7.85539    0.00000
   81      8.48043    0.00000
   82      8.60198    0.00000
   83      8.90527    0.00000
   84      8.95244    0.00000
   85      9.12498    0.00000
   86      9.21428    0.00000
   87      9.28575    0.00000
   88      9.43386    0.00000
   89      9.49595    0.00000
   90      9.52986    0.00000
   91      9.67844    0.00000
   92      9.76369    0.00000
   93      9.93618    0.00000
   94     10.04548    0.00000
   95     10.17357    0.00000
   96     10.27726    0.00000
   97     10.49946    0.00000


Forces in eV/Ang:
  0 C     0.30384    0.39056   -0.12717
  1 C    -0.33524   -0.23295    0.10620
  2 C    -1.25702    0.36420    0.14484
  3 C    -0.44223   -0.10973    0.10278
  4 C    -0.37988    0.14281   -0.00915
  5 C    -1.28950    0.24156    0.14807
  6 C    -0.93799   -0.64102    0.41692
  7 C    -2.37543   -0.95352    2.47580
  8 C     2.12279   -0.34589   -0.29068
  9 C    -1.87465    1.21194    1.28292
 10 C     0.82230   -1.39005   -0.11915
 11 C    -0.53972    2.14344    0.73472
 12 C     0.31995    0.27907    0.37812
 13 C    -2.42521    0.30339    0.10078
 14 C     0.46666   -0.35307   -0.13607
 15 C     0.01322    0.24842    0.00031
 16 C    -0.32240   -0.57746   -0.12278
 17 C     0.19416   -1.74993   -1.03232
 18 C    -0.21972    0.74494    0.32137
 19 C     2.59000   -2.17468   -3.74988
 20 C     1.87801    0.20893   -0.55575
 21 C     1.76819    0.69954   -0.01191
 22 C     0.78948    1.56583   -0.18309
 23 C     1.21762   -0.01442    0.07540

System changes: positions 

Initializing position-dependent things.

Density initialized from wave functions
           .--------------------------------------.  
          /|                                      |  
         / |                                      |  
        /  |                                      |  
       /   |                                      |  
      /    |                                      |  
     /     |                                      |  
    /      |                                      |  
   /       |       C   C                          |  
  /        |      C      C                        |  
 *         |  C     C      C   C  C               |  
 |         | C     C    C        C                |  
 |         .---C-----C---C--C--C-C----------------.  
 |        /    C          C                      /   
 |       /       C  C  C                        /    
 |      /                                      /     
 |     /                                      /      
 |    /                                      /       
 |   /                                      /        
 |  /                                      /         
 | /                                      /          
 |/                                      /           
 *--------------------------------------*            

Positions:
   0 C     10.726999    6.004427    5.035122
   1 C     11.268378    7.137537    4.959626
   2 C     11.090299    8.497167    4.940097
   3 C     10.965704    9.941385    4.859804
   4 C      9.262920    3.943608    5.175024
   5 C      9.516643    5.323323    5.193237
   6 C      9.814054    9.122144    5.155702
   7 C      7.474142    9.928990    5.934847
   8 C      8.190289    3.259315    5.161563
   9 C      7.718842    7.436156    5.583078
  10 C      8.128817    6.066624    5.346055
  11 C      8.341403    8.744260    5.547440
  12 C      5.587119    3.347627    4.945480
  13 C      6.944503    3.786693    5.109172
  14 C      4.530791    4.007710    5.162119
  15 C      6.955525    5.235179    5.355301
  16 C      4.415146    5.351758    5.568878
  17 C      5.740509    5.980163    5.680008
  18 C      3.399462    6.246417    5.882147
  19 C      6.340904    9.981615    6.736055
  20 C      5.053606    9.544593    6.769923
  21 C      4.780295    8.159795    6.393651
  22 C      5.994340    7.293110    5.971430
  23 C      3.529873    7.461302    6.236618

Unit cell:
           periodic     x           y           z      points  spacing
  1. axis:    yes   16.000000    0.000000    0.000000    80     0.2000
  2. axis:    yes    0.000000   16.000000    0.000000    80     0.2000
  3. axis:    yes    0.000000    0.000000   10.000000    48     0.2083

Effective grid spacing dv^(1/3) = 0.2027

                     log10-error:    total        iterations:
           time      wfs    density  energy       fermi  poisson
iter:   1  10:54:24          +inf  -182.237298    3      5      
iter:   2  10:54:25         -1.85  -182.128563    3      2      
iter:   3  10:54:25         -2.14  -182.103821    3      2      
iter:   4  10:54:26         -2.26  -182.074517    3      2      
iter:   5  10:54:26         -2.57  -182.073509    3      2      
iter:   6  10:54:27         -2.72  -182.073416    3      2      
iter:   7  10:54:28         -2.85  -182.070997    3      2      
iter:   8  10:54:28         -3.26  -182.071234    2      1      
iter:   9  10:54:29         -3.39  -182.072067    2      1      
iter:  10  10:54:30         -3.53  -182.073044    2      1      
iter:  11  10:54:30         -3.65  -182.073158    2      1      
iter:  12  10:54:31         -3.81  -182.073173    2      1      
iter:  13  10:54:31         -3.95  -182.072588    2      1      
iter:  14  10:54:32         -4.05  -182.072534    2      1      

Converged after 14 iterations.

Dipole moment: (-0.246339, -0.707597, 0.055982) |e|*Ang

Energy contributions relative to reference atoms: (reference = -24663.074771)

Kinetic:        +80.540054
Potential:      -95.113381
External:        +0.000000
XC:            -170.351665
Entropy (-ST):   -0.255110
Local:           +2.980013
--------------------------
Free energy:   -182.200089
Extrapolated:  -182.072534

Fermi level: -4.32524

 Band  Eigenvalues  Occupancy
    0    -22.68202    2.00000
    1    -22.46314    2.00000
    2    -21.58237    2.00000
    3    -20.89491    2.00000
    4    -20.33128    2.00000
    5    -20.01420    2.00000
    6    -19.62529    2.00000
    7    -19.14330    2.00000
    8    -18.42126    2.00000
    9    -18.05324    2.00000
   10    -17.65342    2.00000
   11    -16.94963    2.00000
   12    -16.12414    2.00000
   13    -15.85428    2.00000
   14    -15.07684    2.00000
   15    -14.86557    2.00000
   16    -14.16260    2.00000
   17    -13.60500    2.00000
   18    -13.17660    2.00000
   19    -12.83990    2.00000
   20    -12.39801    2.00000
   21    -12.20042    2.00000
   22    -11.79148    2.00000
   23    -11.25851    2.00000
   24    -10.93785    2.00000
   25    -10.54401    2.00000
   26    -10.34186    2.00000
   27     -9.99861    2.00000
   28     -9.70685    2.00000
   29     -9.56029    2.00000
   30     -9.34403    2.00000
   31     -9.23948    2.00000
   32     -8.74546    2.00000
   33     -8.49467    2.00000
   34     -8.27715    2.00000
   35     -8.02904    2.00000
   36     -7.32780    2.00000
   37     -7.08515    2.00000
   38     -6.99479    2.00000
   39     -6.85049    2.00000
   40     -6.62489    2.00000
   41     -6.54335    2.00000
   42     -6.49934    2.00000
   43     -6.13842    2.00000
   44     -5.74694    2.00000
   45     -5.62086    2.00000
   46     -4.61621    1.89665
   47     -4.46270    1.59624
   48     -4.21709    0.50646
   49     -3.47881    0.00042
   50     -3.39168    0.00018
   51     -3.27612    0.00006
   52     -2.86184    0.00000
   53     -2.63571    0.00000
   54     -2.19641    0.00000
   55     -1.77376    0.00000
   56     -1.60098    0.00000
   57     -1.06864    0.00000
   58     -0.78456    0.00000
   59      0.23694    0.00000
   60      0.35541    0.00000
   61      0.81290    0.00000
   62      1.24856    0.00000
   63      1.69843    0.00000
   64      2.45255    0.00000
   65      2.78847    0.00000
   66      2.98022    0.00000
   67      3.97676    0.00000
   68      4.46889    0.00000
   69      4.89034    0.00000
   70      5.02532    0.00000
   71      5.07893    0.00000
   72      5.55271    0.00000
   73      6.17309    0.00000
   74      6.37154    0.00000
   75      6.52729    0.00000
   76      6.60873    0.00000
   77      7.06765    0.00000
   78      7.45041    0.00000
   79      7.79885    0.00000
   80      7.83258    0.00000
   81      8.44792    0.00000
   82      8.62172    0.00000
   83      8.95040    0.00000
   84      8.96428    0.00000
   85      9.11073    0.00000
   86      9.22644    0.00000
   87      9.40781    0.00000
   88      9.43455    0.00000
   89      9.50572    0.00000
   90      9.52324    0.00000
   91      9.69020    0.00000
   92      9.75747    0.00000
   93      9.96663    0.00000
   94     10.06299    0.00000
   95     10.19529    0.00000
   96     10.27765    0.00000
   97     10.49936    0.00000


Forces in eV/Ang:
  0 C     0.29372    0.35359   -0.09788
  1 C    -0.35003   -0.16251    0.10484
  2 C    -1.37274    0.37337    0.16159
  3 C    -0.50737   -0.05960    0.10135
  4 C    -0.31677    0.15073   -0.02655
  5 C    -1.41464    0.33374    0.15115
  6 C    -0.89912   -0.82994    0.44685
  7 C    -1.30660   -1.35899    1.81401
  8 C     2.32815   -0.46458   -0.22661
  9 C    -1.97954    1.39319    1.05932
 10 C     1.06961   -1.53836   -0.14354
 11 C    -0.17606    2.21154    0.59935
 12 C     0.21290    0.26956    0.41823
 13 C    -2.65529    0.28706   -0.09593
 14 C     0.41224   -0.36086   -0.10726
 15 C     0.08827    0.19247    0.13590
 16 C    -0.29135   -0.58397   -0.14876
 17 C     0.33867   -1.72323   -1.10415
 18 C    -0.22562    0.83124    0.34442
 19 C     1.43923   -2.01651   -3.02960
 20 C     1.65986    0.04040   -0.49215
 21 C     1.65079    0.80889   -0.04339
 22 C     0.68875    1.87283    0.08367
 23 C     1.37498   -0.02954    0.07854

System changes: positions 

Initializing position-dependent things.

Density initialized from wave functions
           .--------------------------------------.  
          /|                                      |  
         / |                                      |  
        /  |                                      |  
       /   |                                      |  
      /    |                                      |  
     /     |                                      |  
    /      |                                      |  
   /       |       C   C                          |  
  /        |      C      C                        |  
 *         |  C     C      C   C  C               |  
 |         | C     C    C        C                |  
 |         .---C-----C---C--C--C-C----------------.  
 |        /    C    C     C                      /   
 |       /       C     C                        /    
 |      /                                      /     
 |     /                                      /      
 |    /                                      /       
 |   /                                      /        
[...]

Energy contributions relative to reference atoms: (reference = -24663.074771)

Kinetic:       +114.316153
Potential:     -122.665027
External:        +0.000000
XC:            -179.048719
Entropy (-ST):   -0.049545
Local:           +2.999951
--------------------------
Free energy:   -184.447187
Extrapolated:  -184.422414

Fermi level: -4.31776

 Band  Eigenvalues  Occupancy
    0    -22.99620    2.00000
    1    -22.77645    2.00000
    2    -21.69218    2.00000
    3    -21.31989    2.00000
    4    -20.55449    2.00000
    5    -20.40254    2.00000
    6    -19.85567    2.00000
    7    -19.42163    2.00000
    8    -18.57956    2.00000
    9    -18.15952    2.00000
   10    -17.73573    2.00000
   11    -16.96908    2.00000
   12    -16.62646    2.00000
   13    -16.11111    2.00000
   14    -15.20669    2.00000
   15    -15.11573    2.00000
   16    -14.33769    2.00000
   17    -13.74745    2.00000
   18    -13.16631    2.00000
   19    -12.92207    2.00000
   20    -12.55665    2.00000
   21    -12.20571    2.00000
   22    -11.92415    2.00000
   23    -11.27706    2.00000
   24    -10.78029    2.00000
   25    -10.69787    2.00000
   26    -10.68898    2.00000
   27    -10.29070    2.00000
   28     -9.97287    2.00000
   29     -9.70796    2.00000
   30     -9.46708    2.00000
   31     -9.35977    2.00000
   32     -8.95705    2.00000
   33     -8.68404    2.00000
   34     -8.32107    2.00000
   35     -8.14665    2.00000
   36     -7.44014    2.00000
   37     -7.25992    2.00000
   38     -7.00225    2.00000
   39     -6.87606    2.00000
   40     -6.63076    2.00000
   41     -6.55723    2.00000
   42     -6.40768    2.00000
   43     -6.18588    2.00000
   44     -5.82063    2.00000
   45     -5.79538    2.00000
   46     -4.81229    1.98587
   47     -4.71925    1.96455
   48     -3.95027    0.04945
   49     -3.31362    0.00009
   50     -3.21694    0.00003
   51     -3.04914    0.00001
   52     -2.79629    0.00000
   53     -2.74519    0.00000
   54     -1.71626    0.00000
   55     -1.59577    0.00000
   56     -1.23677    0.00000
   57     -1.12006    0.00000
   58     -0.71341    0.00000
   59      0.32758    0.00000
   60      0.70715    0.00000
   61      1.21593    0.00000
   62      1.93506    0.00000
   63      2.73110    0.00000
   64      3.34027    0.00000
   65      3.44545    0.00000
   66      3.84953    0.00000
   67      4.31001    0.00000
   68      4.58501    0.00000
   69      4.95794    0.00000
   70      5.24351    0.00000
   71      5.56528    0.00000
   72      6.13039    0.00000
   73      6.27632    0.00000
   74      6.44202    0.00000
   75      6.75505    0.00000
   76      7.04293    0.00000
   77      7.43404    0.00000
   78      7.55800    0.00000
   79      8.09438    0.00000
   80      8.19561    0.00000
   81      8.34926    0.00000
   82      8.50661    0.00000
   83      8.81727    0.00000
   84      8.97434    0.00000
   85      9.04173    0.00000
   86      9.25926    0.00000
   87      9.43092    0.00000
   88      9.51437    0.00000
   89      9.58480    0.00000
   90      9.61325    0.00000
   91      9.73126    0.00000
   92      9.92265    0.00000
   93      9.96103    0.00000
   94     10.04260    0.00000
   95     10.26255    0.00000
   96     10.38863    0.00000
   97     10.44053    0.00000


Forces in eV/Ang:
  0 C     0.01226   -0.02007    0.01790
  1 C    -0.02991    0.07078    0.04664
  2 C     0.03805   -0.02404   -0.00935
  3 C    -0.02292   -0.00986   -0.01721
  4 C    -0.00786   -0.02489   -0.02087
  5 C    -0.03176    0.00719    0.01013
  6 C    -0.02656   -0.03551   -0.04224
  7 C     0.03020   -0.02095   -0.01041
  8 C    -0.04476    0.05802   -0.00708
  9 C    -0.01660   -0.02772   -0.04540
 10 C    -0.00100   -0.03786    0.00474
 11 C    -0.04482    0.00834   -0.04953
 12 C     0.09192    0.04058    0.02601
 13 C     0.01001    0.05210    0.04647
 14 C    -0.02317   -0.08172   -0.02573
 15 C     0.01126   -0.00492   -0.01821
 16 C     0.00347   -0.02311   -0.04406
 17 C     0.01697   -0.01505   -0.03292
 18 C    -0.09189    0.02587   -0.05724
 19 C    -0.00178    0.03416   -0.01430
 20 C    -0.03418    0.03954    0.06670
 21 C     0.05818   -0.03008    0.07355
 22 C     0.12228   -0.02540    0.08481
 23 C    -0.03390    0.01885    0.02835

System changes: positions 

Initializing position-dependent things.

Density initialized from wave functions
           .--------------------------------------.  
          /|                                      |  
         / |                                      |  
        /  |                                      |  
       /   |                                      |  
      /    |                                      |  
     /     |                                      |  
    /      |                                      |  
   /       |        C  C  C                       |  
  /        |      C                               |  
 *         |   C    C      C  C  C                |  
 |         | C          C        C                |  
 |         .---C---C-C---C-C---C------------------.  
 |        /    C                                 /   
 |       /       C  C  C  C                     /    
 |      /                                      /     
 |     /                                      /      
 |    /                                      /       
 |   /                                      /        
 |  /                                      /         
 | /                                      /          
 |/                                      /           
 *--------------------------------------*            

Positions:
   0 C     10.640566    6.079116    5.277371
   1 C     11.148512    7.219762    5.245568
   2 C     10.891037    8.550638    4.990061
   3 C     10.633923    9.916446    4.601590
   4 C      9.241212    3.990129    4.956851
   5 C      9.417968    5.367093    5.221745
   6 C      9.593616    9.059662    5.111885
   7 C      7.767355    9.819084    6.359461
   8 C      8.226039    3.243645    4.882238
   9 C      7.587078    7.424476    5.632570
  10 C      8.101569    6.012169    5.381543
  11 C      8.297168    8.701407    5.670647
  12 C      5.569160    3.260501    5.115781
  13 C      6.909762    3.716898    5.067768
  14 C      4.533757    3.944101    5.355393
  15 C      6.943701    5.160349    5.321400
  16 C      4.435852    5.329582    5.623965
  17 C      5.764111    5.924074    5.571907
  18 C      3.475764    6.318034    5.955266
  19 C      6.488323    9.858806    6.601773
  20 C      5.206781    9.586095    6.655410
  21 C      5.005845    8.249719    6.189382
  22 C      6.103745    7.306575    5.808674
  23 C      3.784296    7.519829    6.164373

Unit cell:
           periodic     x           y           z      points  spacing
  1. axis:    yes   16.000000    0.000000    0.000000    80     0.2000
  2. axis:    yes    0.000000   16.000000    0.000000    80     0.2000
  3. axis:    yes    0.000000    0.000000   10.000000    48     0.2083

Effective grid spacing dv^(1/3) = 0.2027

                     log10-error:    total        iterations:
           time      wfs    density  energy       fermi  poisson
iter:   1  10:59:23          +inf  -184.425343    3      5      
iter:   2  10:59:24         -2.80  -184.424748    2      1      
iter:   3  10:59:25         -2.90  -184.424253    2      1      
iter:   4  10:59:25         -3.19  -184.422627    2      1      
iter:   5  10:59:26         -3.45  -184.423713    2      1      
iter:   6  10:59:26         -3.56  -184.423609    2      1      
iter:   7  10:59:27         -3.76  -184.422870    2      1      
iter:   8  10:59:28         -3.43  -184.425051    2      1      
iter:   9  10:59:28         -3.85  -184.424037    2      1      
iter:  10  10:59:29         -4.22  -184.424096    2      1      

Converged after 10 iterations.

Dipole moment: (-0.097359, -0.689916, -0.005550) |e|*Ang

Energy contributions relative to reference atoms: (reference = -24663.074771)

Kinetic:       +114.612252
Potential:     -122.881630
External:        +0.000000
XC:            -179.130030
Entropy (-ST):   -0.051713
Local:           +3.001169
--------------------------
Free energy:   -184.449953
Extrapolated:  -184.424096

Fermi level: -4.31580

 Band  Eigenvalues  Occupancy
    0    -23.00837    2.00000
    1    -22.78502    2.00000
    2    -21.68807    2.00000
    3    -21.32300    2.00000
    4    -20.55196    2.00000
    5    -20.40984    2.00000
    6    -19.85360    2.00000
    7    -19.42026    2.00000
    8    -18.57728    2.00000
    9    -18.15790    2.00000
   10    -17.73973    2.00000
   11    -16.97507    2.00000
   12    -16.62746    2.00000
   13    -16.11410    2.00000
   14    -15.21230    2.00000
   15    -15.11927    2.00000
   16    -14.34117    2.00000
   17    -13.74714    2.00000
   18    -13.16138    2.00000
   19    -12.92546    2.00000
   20    -12.55755    2.00000
   21    -12.19756    2.00000
   22    -11.92310    2.00000
   23    -11.27204    2.00000
   24    -10.78531    2.00000
   25    -10.69919    2.00000
   26    -10.68914    2.00000
   27    -10.29062    2.00000
   28     -9.97624    2.00000
   29     -9.70829    2.00000
   30     -9.46766    2.00000
   31     -9.35823    2.00000
   32     -8.95950    2.00000
   33     -8.70787    2.00000
   34     -8.32747    2.00000
   35     -8.15131    2.00000
   36     -7.43660    2.00000
   37     -7.26132    2.00000
   38     -6.99328    2.00000
   39     -6.88560    2.00000
   40     -6.62663    2.00000
   41     -6.55667    2.00000
   42     -6.40815    2.00000
   43     -6.18903    2.00000
   44     -5.81834    2.00000
   45     -5.79571    2.00000
   46     -4.81111    1.98598
   47     -4.70912    1.96159
   48     -3.95407    0.05230
   49     -3.31380    0.00009
   50     -3.22289    0.00004
   51     -3.04949    0.00001
   52     -2.79400    0.00000
   53     -2.74774    0.00000
   54     -1.69657    0.00000
   55     -1.59386    0.00000
   56     -1.25157    0.00000
   57     -1.11434    0.00000
   58     -0.70851    0.00000
   59      0.33094    0.00000
   60      0.72335    0.00000
   61      1.22589    0.00000
   62      1.95143    0.00000
   63      2.73602    0.00000
   64      3.33120    0.00000
   65      3.43178    0.00000
   66      3.84840    0.00000
   67      4.31394    0.00000
   68      4.61741    0.00000
   69      4.95577    0.00000
   70      5.25098    0.00000
   71      5.56762    0.00000
   72      6.13500    0.00000
   73      6.28470    0.00000
   74      6.43796    0.00000
   75      6.75729    0.00000
   76      7.06402    0.00000
   77      7.43134    0.00000
   78      7.55613    0.00000
   79      8.09409    0.00000
   80      8.18986    0.00000
   81      8.34946    0.00000
   82      8.51273    0.00000
   83      8.81977    0.00000
   84      8.98040    0.00000
   85      9.04606    0.00000
   86      9.25741    0.00000
   87      9.43108    0.00000
   88      9.51621    0.00000
   89      9.58848    0.00000
   90      9.61898    0.00000
   91      9.73259    0.00000
   92      9.92672    0.00000
   93      9.96714    0.00000
   94     10.04687    0.00000
   95     10.26745    0.00000
   96     10.39402    0.00000
   97     10.44093    0.00000


Forces in eV/Ang:
  0 C    -0.00303   -0.03785    0.01485
  1 C     0.00047    0.04711    0.02989
  2 C    -0.03596   -0.02883    0.03828
  3 C     0.03260    0.10942   -0.02852
  4 C    -0.00311    0.02232   -0.00776
  5 C    -0.00848   -0.00243   -0.00018
  6 C    -0.05949   -0.09260   -0.04350
  7 C     0.02248    0.01921   -0.01142
  8 C    -0.01080    0.04087   -0.03204
  9 C     0.04832   -0.00750    0.01760
 10 C     0.03033   -0.09222    0.00593
 11 C     0.00406    0.02049   -0.06682
 12 C     0.06128    0.01407    0.01046
 13 C    -0.00327    0.00301    0.06504
 14 C    -0.02203   -0.04509   -0.02451
 15 C    -0.00161   -0.01048   -0.05825
 16 C    -0.00825   -0.03202   -0.04740
 17 C     0.02625   -0.01147    0.03966
 18 C    -0.07530   -0.01394   -0.03847
 19 C     0.01846   -0.01812    0.00437
 20 C    -0.00659   -0.00230    0.05064
 21 C     0.00821   -0.00712    0.04579
 22 C     0.03632    0.05527    0.00068
 23 C     0.01312    0.02183    0.03212

System changes: positions 

Initializing position-dependent things.

Density initialized from wave functions
           .--------------------------------------.  
          /|                                      |  
         / |                                      |  
        /  |                                      |  
       /   |                                      |  
      /    |                                      |  
     /     |                                      |  
    /      |                                      |  
   /       |        C  C  C                       |  
  /        |      C                               |  
 *         |   C    C      C  C  C                |  
 |         | C          C        C                |  
 |         .---C---C-C---C-C---C------------------.  
 |        /    C                                 /   
 |       /       C  C  C  C                     /    
 |      /                                      /     
 |     /                                      /      
 |    /                                      /       
 |   /                                      /        
 |  /                                      /         
 | /                                      /          
 |/                                      /           
 *--------------------------------------*            

Positions:
   0 C     10.641694    6.077745    5.277241
   1 C     11.146132    7.220301    5.244110
   2 C     10.890854    8.550736    4.989361
   3 C     10.634512    9.919214    4.605309
   4 C      9.241813    3.989508    4.957091
   5 C      9.418091    5.366847    5.221373
   6 C      9.592766    9.059026    5.110602
   7 C      7.766792    9.818090    6.357286
   8 C      8.225830    3.244283    4.883236
   9 C      7.587436    7.423421    5.631824
  10 C      8.101947    6.010828    5.380925
  11 C      8.296294    8.700679    5.668253
  12 C      5.570465    3.261080    5.116025
  13 C      6.910199    3.717306    5.069317
  14 C      4.533806    3.943538    5.353840
  15 C      6.943810    5.160138    5.320744
  16 C      4.435275    5.329580    5.622295
  17 C      5.764383    5.923814    5.572271
  18 C      3.474353    6.319531    5.952406
  19 C      6.487859    9.860480    6.598320
  20 C      5.206434    9.586395    6.658324
  21 C      5.007067    8.248994    6.192968
  22 C      6.105163    7.306035    5.811462
  23 C      3.784071    7.520531    6.166885

Unit cell:
           periodic     x           y           z      points  spacing
  1. axis:    yes   16.000000    0.000000    0.000000    80     0.2000
  2. axis:    yes    0.000000   16.000000    0.000000    80     0.2000
  3. axis:    yes    0.000000    0.000000   10.000000    48     0.2083

Effective grid spacing dv^(1/3) = 0.2027

                     log10-error:    total        iterations:
           time      wfs    density  energy       fermi  poisson
iter:   1  10:59:31          +inf  -184.426696    2      4      
iter:   2  10:59:31         -3.15  -184.426584    2      1      
iter:   3  10:59:32         -3.24  -184.426376    2      1      
iter:   4  10:59:33         -3.53  -184.426276    2      1      
iter:   5  10:59:33         -3.81  -184.425878    2      1      
iter:   6  10:59:34         -3.82  -184.425488    2      1      
iter:   7  10:59:34         -4.11  -184.425750    2      1      

Converged after 7 iterations.

Dipole moment: (-0.097833, -0.687908, -0.007872) |e|*Ang

Energy contributions relative to reference atoms: (reference = -24663.074771)

Kinetic:       +114.503858
Potential:     -122.798505
External:        +0.000000
XC:            -179.099711
Entropy (-ST):   -0.050698
Local:           +2.993957
--------------------------
Free energy:   -184.451099
Extrapolated:  -184.425750

Fermi level: -4.31726

 Band  Eigenvalues  Occupancy
    0    -23.00274    2.00000
    1    -22.78326    2.00000
    2    -21.68730    2.00000
    3    -21.32228    2.00000
    4    -20.55180    2.00000
    5    -20.41047    2.00000
    6    -19.85134    2.00000
    7    -19.41911    2.00000
    8    -18.57676    2.00000
    9    -18.15670    2.00000
   10    -17.74087    2.00000
   11    -16.97399    2.00000
   12    -16.62960    2.00000
   13    -16.11577    2.00000
   14    -15.21408    2.00000
   15    -15.12062    2.00000
   16    -14.34213    2.00000
   17    -13.74591    2.00000
   18    -13.15945    2.00000
   19    -12.92576    2.00000
   20    -12.55798    2.00000
   21    -12.19430    2.00000
   22    -11.92312    2.00000
   23    -11.26842    2.00000
   24    -10.78446    2.00000
   25    -10.70124    2.00000
   26    -10.68862    2.00000
   27    -10.29122    2.00000
   28     -9.97587    2.00000
   29     -9.70770    2.00000
   30     -9.46582    2.00000
   31     -9.35821    2.00000
   32     -8.95826    2.00000
   33     -8.70337    2.00000
   34     -8.32753    2.00000
   35     -8.15100    2.00000
   36     -7.43386    2.00000
   37     -7.26126    2.00000
   38     -6.99235    2.00000
   39     -6.88742    2.00000
   40     -6.62594    2.00000
   41     -6.55598    2.00000
   42     -6.40738    2.00000
   43     -6.18981    2.00000
   44     -5.81736    2.00000
   45     -5.79565    2.00000
   46     -4.81357    1.98612
   47     -4.71376    1.96277
   48     -3.95290    0.05098
   49     -3.31521    0.00009
   50     -3.22698    0.00004
   51     -3.04984    0.00001
   52     -2.79361    0.00000
   53     -2.75092    0.00000
   54     -1.69309    0.00000
   55     -1.59457    0.00000
   56     -1.25547    0.00000
   57     -1.11808    0.00000
   58     -0.70915    0.00000
   59      0.33077    0.00000
   60      0.72579    0.00000
   61      1.22978    0.00000
   62      1.95677    0.00000
   63      2.73179    0.00000
   64      3.32505    0.00000
   65      3.42554    0.00000
   66      3.84675    0.00000
   67      4.30432    0.00000
   68      4.61993    0.00000
   69      4.95522    0.00000
   70      5.25088    0.00000
   71      5.56220    0.00000
   72      6.13645    0.00000
   73      6.28354    0.00000
   74      6.43414    0.00000
   75      6.75469    0.00000
   76      7.07232    0.00000
   77      7.43016    0.00000
   78      7.55364    0.00000
   79      8.09303    0.00000
   80      8.18816    0.00000
   81      8.35175    0.00000
   82      8.51380    0.00000
   83      8.82047    0.00000
   84      8.98093    0.00000
   85      9.04755    0.00000
   86      9.25497    0.00000
   87      9.43177    0.00000
   88      9.51544    0.00000
   89      9.59028    0.00000
   90      9.62078    0.00000
   91      9.73300    0.00000
   92      9.92735    0.00000
   93      9.96955    0.00000
   94     10.04664    0.00000
   95     10.26774    0.00000
   96     10.39488    0.00000
   97     10.43955    0.00000


Forces in eV/Ang:
  0 C    -0.00117   -0.01854    0.01584
  1 C     0.00905   -0.00270    0.03286
  2 C    -0.05405    0.01928    0.03598
  3 C    -0.01595    0.02137    0.00056
  4 C    -0.01177    0.02646   -0.00365
  5 C     0.01125   -0.01470   -0.00238
  6 C    -0.00544   -0.05209   -0.06699
  7 C     0.01529    0.02621   -0.01423
  8 C     0.01114    0.01519   -0.04245
  9 C     0.05578   -0.00182    0.03003
 10 C     0.02391   -0.05426    0.00543
 11 C     0.00614    0.00959   -0.05541
 12 C     0.02520   -0.01039    0.00999
 13 C     0.00198   -0.01507    0.04854
 14 C    -0.00333   -0.01178   -0.01613
 15 C    -0.00578    0.00403   -0.03885
 16 C    -0.01133   -0.00968   -0.03997
 17 C     0.00846   -0.00088    0.04495
 18 C    -0.02978   -0.02221   -0.03665
 19 C     0.01356   -0.02539    0.01913
 20 C     0.01265   -0.01842    0.04140
 21 C    -0.00366    0.00016    0.04618
 22 C    -0.00633    0.03869   -0.01525
 23 C     0.03025   -0.01577    0.01825

