
  ___ ___ ___ _ _ _  
 |   |   |_  | | | | 
 | | | | | . | | | | 
 |__ |  _|___|_____|  1.3.0b1
 |___|_|             

User:   esb@s65n74.grendel.cscaa.dk
Date:   Thu Nov  9 11:13:07 2017
Arch:   x86_64
Pid:    100486
Python: 2.7.13
gpaw:   /home/esb/DFT/gpaw_git/gpaw
_gpaw:  /home/esb/DFT/gpaw_git/build/bin.linux-x86_64-2.7/gpaw-python
ase:    /home/esb/DFT/ase_git/ase (version 3.15.0b1)
numpy:  /comm/swstack/core/python/2.7.13/lib/python2.7/site-packages/numpy (version 1.13.3)
scipy:  /comm/swstack/core/python/2.7.13/lib/python2.7/site-packages/scipy (version 0.19.1)
units:  Angstrom and eV
cores:  16
Extra parameters: {'blacs': True}

Input parameters:
  basis: dzp
  gpts: [80 80 48]
  kpts: [1 1 1]
  maxiter: 99
  mixer: {backend: pulay,
          beta: 0.05,
          method: separate,
          nmaxold: 5,
          weight: 75}
  mode: lcao
  nbands: -50
  occupations: {name: fermi-dirac,
                width: 0.1}
  poissonsolver: {eps: 1e-07,
                  name: fd,
                  nn: 3,
                  relax: GS}
  xc: PBE

System changes: positions, numbers, cell, pbc, initial_charges, initial_magmoms 

Initialize ...

C-setup:
  name: Carbon
  id: 4aa54d4b901d75f77cc0ea3eec22967b
  Z: 6
  valence: 4
  core: 2
  charge: 0.0
  file: /home/esb/DFT/gpaw-setups-0.8.7929/C.PBE.gz
  cutoffs: 0.64(comp), 1.14(filt), 1.14(core), lmax=2
  valence states:
                energy  radius
    2s(2.00)   -13.751   0.635
    2p(2.00)    -5.284   0.635
    *s          13.461   0.635
    *p          21.927   0.635
    *d           0.000   0.635

  LCAO basis set for C:
    Name: dzp
    File: /home/esb/DFT/gpaw-setups-0.8.7929/C.dzp.basis.gz
    Number of radial functions: 5
    Number of spherical harmonics: 13
      l=0, rc=5.5469 Bohr: 2s-sz confined orbital
      l=1, rc=6.6719 Bohr: 2p-sz confined orbital
      l=0, rc=3.0312 Bohr: 2s-dz split-valence wave
      l=1, rc=3.7500 Bohr: 2p-dz split-valence wave
      l=2, rc=6.6719 Bohr: d-type Gaussian polarization

Reference energy: -24663.074771

Spin-paired calculation

Occupation numbers:
  Fermi-Dirac: width=0.1000 eV

Convergence criteria:
  Maximum total energy change: 0.0005 eV / electron
  Maximum integral of absolute density change: 0.0001 electrons
  Maximum integral of absolute eigenstate change: 4e-08 eV^2
  Maximum number of iterations: 99

Symmetries present (total): 1

  ( 1  0  0)
  ( 0  1  0)
  ( 0  0  1)

1 k-point (Gamma)
1 k-point in the irreducible part of the Brillouin zone
       k-points in crystal coordinates                weights
   0:     0.00000000    0.00000000    0.00000000          1/1

Wave functions: LCAO
  Diagonalizer: Serial LAPACK
  Atomic Correction: dense with blas
  Datatype: float
  Eigensolver: None 

LCAO using direct dense diagonalizer 

Densities:
  Coarse grid: 80*80*48 grid
  Fine grid: 160*160*96 grid
  Total Charge: 0.000000 

Density mixing:
  Method: separate
  Backend: pulay
  Linear mixing parameter: 0.05
  Mixing with 5 old densities
  Damping of long wave oscillations: 75 

Hamiltonian:
  XC and Coulomb potentials evaluated on a 160*160*96 grid
  Using the PBE Exchange-Correlation functional
  Interpolation: tri-quintic (5. degree polynomial)
  Poisson solver: Gauss-Seidel solver with 6 multi-grid levels
    Coarsest grid: 5 x 5 x 3 points
    Stencil: 6*3+1=19 point O(h^6) finite-difference Laplacian
    Max iterations: 1000
    Tolerance: 1.000000e-07 

Memory estimate:
  Process memory now: 81.55 MiB
  Calculator: 15.59 MiB
    Density: 6.13 MiB
      Arrays: 3.81 MiB
      Localized functions: 0.86 MiB
      Mixer: 1.46 MiB
    Hamiltonian: 5.40 MiB
      Arrays: 2.49 MiB
      XC: 0.00 MiB
      Poisson: 2.85 MiB
      vbar: 0.07 MiB
    Wavefunctions: 4.05 MiB
      C [qnM]: 0.23 MiB
      S, T [2 x qmm]: 1.49 MiB
      P [aqMi]: 0.01 MiB
      TCI: 0.00 MiB
      BasisFunctions: 2.33 MiB
      Eigensolver: 0.00 MiB

Total number of cores used: 16
Domain decomposition: 2 x 4 x 2

Number of atoms: 24
Number of atomic orbitals: 312
Number of bands in calculation: 98
Bands to converge: occupied states only
Number of valence electrons: 96

... initialized

Initializing position-dependent things.

Density initialized from atomic densities
           .--------------------------------------.  
          /|                                      |  
         / |                                      |  
        /  |                                      |  
       /   |                                      |  
      /    |                                      |  
     /     |                                      |  
    /      |                                      |  
   /       |          C                           |  
  /        |   C  C     C                         |  
 *         |         C    C   C  C                |  
 |         |  C    C     C  C   C                 |  
 |         .-C-C------C--------C------------------.  
 |        /          C C  C                      /   
 |       /     C C                              /    
 |      /                                      /     
 |     /                                      /      
 |    /                                      /       
 |   /                                      /        
 |  /                                      /         
 | /                                      /          
 |/                                      /           
 *--------------------------------------*            

Positions:
   0 C      3.430618    6.367236    5.224453
   1 C      4.721990    4.126056    4.903132
   2 C      4.538842    5.494375    5.231172
   3 C      5.740551    3.387568    4.956784
   4 C      3.535561    7.625926    5.527187
   5 C      7.036786    3.769117    5.384702
   6 C      5.881275    6.011394    5.643247
   7 C      7.108986    5.212934    5.743139
   8 C      8.274157    3.142138    5.558936
   9 C      9.619129    4.987979    6.268930
  10 C      8.383408    5.815244    6.177413
  11 C      9.365741    3.655230    5.932901
  12 C      5.991744   10.012670    6.296697
  13 C      7.153159    9.476422    6.310743
  14 C      4.696028    9.434889    6.265489
  15 C      7.430763    8.070011    6.240706
  16 C      4.943852    8.023854    6.489085
  17 C      6.190631    7.387407    6.401922
  18 C      8.536587    7.201613    5.862819
  19 C     10.734691    5.529216    5.162138
  20 C     11.038655    6.785276    5.277637
  21 C     11.080323    8.220092    5.407091
  22 C      9.854505    7.679203    5.669321
  23 C      3.264794    9.445646    5.936889

Unit cell:
           periodic     x           y           z      points  spacing
  1. axis:    yes   16.000000    0.000000    0.000000    80     0.2000
  2. axis:    yes    0.000000   16.000000    0.000000    80     0.2000
  3. axis:    yes    0.000000    0.000000   10.000000    48     0.2083

Effective grid spacing dv^(1/3) = 0.2027

                     log10-error:    total        iterations:
           time      wfs    density  energy       fermi  poisson
iter:   1  11:13:09          +inf  -182.152128    1      6      
iter:   2  11:13:10         -0.91  -181.406691    3      3      
iter:   3  11:13:10         -0.95  -179.204688    33     4      
iter:   4  11:13:11         -1.16  -178.657983    4      3      
iter:   5  11:13:12         -1.27  -178.592077    31     3      
iter:   6  11:13:13         -1.54  -178.447953    3      3      
iter:   7  11:13:13         -1.73  -178.476242    3      3      
iter:   8  11:13:14         -1.87  -178.437217    3      2      
iter:   9  11:13:15         -2.09  -178.418806    3      2      
iter:  10  11:13:15         -2.33  -178.411153    3      2      
iter:  11  11:13:16         -2.47  -178.410824    3      2      
iter:  12  11:13:17         -2.77  -178.409599    2      2      
iter:  13  11:13:17         -2.87  -178.421626    2      1      
iter:  14  11:13:18         -2.93  -178.405910    2      2      
iter:  15  11:13:18         -3.21  -178.395146    2      1      
iter:  16  11:13:19         -3.41  -178.410985    2      1      
iter:  17  11:13:20         -3.59  -178.412805    2      1      
iter:  18  11:13:20         -3.75  -178.404940    2      1      
iter:  19  11:13:21         -3.88  -178.405437    2      1      
iter:  20  11:13:22         -3.97  -178.406267    2      1      
iter:  21  11:13:22         -4.05  -178.403979    2      1      

Converged after 21 iterations.

Dipole moment: (0.027982, -0.332329, 0.163765) |e|*Ang

Energy contributions relative to reference atoms: (reference = -24663.074771)

Kinetic:        +96.202502
Potential:     -105.873114
External:        +0.000000
XC:            -171.562559
Entropy (-ST):   -0.248196
Local:           +2.953290
--------------------------
Free energy:   -178.528077
Extrapolated:  -178.403979

Fermi level: -4.34487

 Band  Eigenvalues  Occupancy
    0    -23.33240    2.00000
    1    -22.56977    2.00000
    2    -21.96546    2.00000
    3    -21.32641    2.00000
    4    -20.74919    2.00000
    5    -20.11099    2.00000
    6    -19.26772    2.00000
    7    -19.08562    2.00000
    8    -18.72216    2.00000
    9    -18.06054    2.00000
   10    -17.78032    2.00000
   11    -16.96564    2.00000
   12    -16.51978    2.00000
   13    -15.65791    2.00000
   14    -15.37209    2.00000
   15    -14.73994    2.00000
   16    -14.21625    2.00000
   17    -13.19247    2.00000
   18    -12.83022    2.00000
   19    -12.76866    2.00000
   20    -12.48695    2.00000
   21    -11.88267    2.00000
   22    -11.26814    2.00000
   23    -11.14037    2.00000
   24    -11.05406    2.00000
   25    -10.91061    2.00000
   26    -10.51654    2.00000
   27    -10.05135    2.00000
   28     -9.85527    2.00000
   29     -9.60019    2.00000
   30     -9.35181    2.00000
   31     -9.22539    2.00000
   32     -8.98863    2.00000
   33     -8.53370    2.00000
   34     -8.46341    2.00000
   35     -8.26648    2.00000
   36     -7.77204    2.00000
   37     -7.11243    2.00000
   38     -6.87751    2.00000
   39     -6.63517    2.00000
   40     -6.54417    2.00000
   41     -6.51209    2.00000
   42     -6.05947    2.00000
   43     -5.93120    2.00000
   44     -5.77339    2.00000
   45     -5.47873    1.99998
   46     -5.24775    1.99976
   47     -4.42899    1.39745
   48     -4.25967    0.59802
   49     -3.73248    0.00437
   50     -3.49590    0.00041
   51     -3.19187    0.00002
   52     -2.91542    0.00000
   53     -2.75054    0.00000
   54     -2.42475    0.00000
   55     -2.23190    0.00000
   56     -1.66656    0.00000
   57     -1.25061    0.00000
   58     -0.57392    0.00000
   59     -0.03610    0.00000
   60      0.18531    0.00000
   61      0.76265    0.00000
   62      1.14818    0.00000
   63      1.76707    0.00000
   64      1.91667    0.00000
   65      2.59381    0.00000
   66      3.09248    0.00000
   67      3.62070    0.00000
   68      3.97193    0.00000
   69      4.22192    0.00000
   70      4.58912    0.00000
   71      4.78375    0.00000
   72      5.21127    0.00000
   73      5.29843    0.00000
   74      5.79908    0.00000
   75      6.22957    0.00000
   76      6.72321    0.00000
   77      7.09704    0.00000
   78      7.23852    0.00000
   79      7.65069    0.00000
   80      7.83989    0.00000
   81      8.17829    0.00000
   82      8.35151    0.00000
   83      8.77593    0.00000
   84      8.85711    0.00000
   85      8.96607    0.00000
   86      9.08547    0.00000
   87      9.29049    0.00000
   88      9.37107    0.00000
   89      9.38124    0.00000
   90      9.53964    0.00000
   91      9.62532    0.00000
   92      9.70317    0.00000
   93      9.84644    0.00000
   94      9.94822    0.00000
   95     10.05791    0.00000
   96     10.17357    0.00000
   97     10.31250    0.00000


Forces in eV/Ang:
  0 C     0.00846    0.23668   -0.22260
  1 C    -0.15417    0.56900    0.12971
  2 C     1.55627   -0.48884   -0.06786
  3 C     0.74260    0.12913   -0.00515
  4 C     1.46431    3.23696    3.69346
  5 C    -0.59826   -0.31394   -0.23430
  6 C     2.34928    0.69524    2.55428
  7 C    -1.14490   -0.40155    0.54816
  8 C     0.61002   -0.55253    0.57878
  9 C     1.85161    0.99587   -4.64450
 10 C     0.26777   -1.90070   -1.78463
 11 C    -1.28958   -0.75007    0.59521
 12 C     0.23946    0.12044    0.39064
 13 C    -0.03924    0.43178   -0.21439
 14 C     0.01203   -0.10652    0.44194
 15 C     0.53827    0.09023   -0.57141
 16 C    -1.85118    0.62015   -2.65372
 17 C    -4.35152   -3.28085   -2.59164
 18 C    -0.08834    2.45194    2.11737
 19 C    -1.64248   -1.69147    3.07103
 20 C     0.07784    1.35747    0.39816
 21 C     0.03199    0.43227    0.03756
 22 C     0.15661    0.21876   -0.68812
 23 C     1.26160   -2.07545   -0.90816

System changes: positions 

Initializing position-dependent things.

Density initialized from wave functions
           .--------------------------------------.  
          /|                                      |  
         / |                                      |  
        /  |                                      |  
       /   |                                      |  
      /    |                                      |  
     /     |                                      |  
    /      |                                      |  
   /       |          C                           |  
  /        |   C  C     C                         |  
 *         |         C    C   C  C                |  
 |         |  C    C     C  C   C                 |  
 |         .-C--C-----C--------C------------------.  
 |        /         C  C  C                      /   
 |       /     C C                              /    
 |      /                                      /     
 |     /                                      /      
 |    /                                      /       
 |   /                                      /        
 |  /                                      /         
 | /                                      /          
 |/                                      /           
 *--------------------------------------*            

Positions:
   0 C      3.430674    6.368805    5.222978
   1 C      4.720968    4.129827    4.903991
   2 C      4.549158    5.491135    5.230722
   3 C      5.745473    3.388424    4.956750
   4 C      3.545267    7.647382    5.551669
   5 C      7.032821    3.767036    5.383149
   6 C      5.896847    6.016002    5.660178
   7 C      7.101397    5.210273    5.746772
   8 C      8.278200    3.138475    5.562772
   9 C      9.631403    4.994580    6.238145
  10 C      8.385183    5.802645    6.165584
  11 C      9.357193    3.650258    5.936846
  12 C      5.993331   10.013468    6.299287
  13 C      7.152899    9.479284    6.309322
  14 C      4.696108    9.434183    6.268418
  15 C      7.434331    8.070609    6.236918
  16 C      4.931581    8.027965    6.471495
  17 C      6.161788    7.365660    6.384743
  18 C      8.536002    7.217866    5.876854
  19 C     10.723804    5.518004    5.182494
  20 C     11.039171    6.794274    5.280276
  21 C     11.080535    8.222957    5.407340
  22 C      9.855543    7.680653    5.664760
  23 C      3.273157    9.431889    5.930870

Unit cell:
           periodic     x           y           z      points  spacing
  1. axis:    yes   16.000000    0.000000    0.000000    80     0.2000
  2. axis:    yes    0.000000   16.000000    0.000000    80     0.2000
  3. axis:    yes    0.000000    0.000000   10.000000    48     0.2083

Effective grid spacing dv^(1/3) = 0.2027

                     log10-error:    total        iterations:
           time      wfs    density  energy       fermi  poisson
iter:   1  11:13:25          +inf  -179.473513    3      5      
iter:   2  11:13:25         -1.91  -179.416957    2      2      
iter:   3  11:13:26         -2.09  -179.394477    2      2      
iter:   4  11:13:27         -2.32  -179.384763    2      2      
iter:   5  11:13:27         -2.45  -179.379962    2      2      
iter:   6  11:13:28         -2.66  -179.379123    2      2      
iter:   7  11:13:29         -2.82  -179.378767    2      2      
iter:   8  11:13:29         -2.99  -179.376471    2      1      
iter:   9  11:13:30         -3.10  -179.378612    2      2      
iter:  10  11:13:30         -3.40  -179.378821    2      1      
iter:  11  11:13:31         -3.45  -179.377343    2      1      
iter:  12  11:13:32         -3.73  -179.379247    2      1      
iter:  13  11:13:32         -3.81  -179.379101    2      1      
iter:  14  11:13:33         -3.94  -179.378395    2      1      
iter:  15  11:13:34         -4.22  -179.378872    1      1      

Converged after 15 iterations.

Dipole moment: (0.088976, -0.333483, 0.161808) |e|*Ang

Energy contributions relative to reference atoms: (reference = -24663.074771)

Kinetic:        +94.832492
Potential:     -105.073869
External:        +0.000000
XC:            -171.946166
Entropy (-ST):   -0.249401
Local:           +2.933372
--------------------------
Free energy:   -179.503573
Extrapolated:  -179.378872

Fermi level: -4.31565

 Band  Eigenvalues  Occupancy
    0    -23.39648    2.00000
    1    -22.58282    2.00000
    2    -21.98261    2.00000
    3    -21.28529    2.00000
    4    -20.79512    2.00000
    5    -20.05865    2.00000
    6    -19.25563    2.00000
    7    -19.16554    2.00000
    8    -18.74780    2.00000
    9    -18.05770    2.00000
   10    -17.71826    2.00000
   11    -16.91954    2.00000
   12    -16.53012    2.00000
   13    -15.65653    2.00000
   14    -15.34716    2.00000
   15    -14.77340    2.00000
   16    -14.24382    2.00000
   17    -13.19352    2.00000
   18    -12.78808    2.00000
   19    -12.72403    2.00000
   20    -12.46135    2.00000
   21    -11.97225    2.00000
   22    -11.30331    2.00000
   23    -11.14828    2.00000
   24    -11.03976    2.00000
   25    -10.89732    2.00000
   26    -10.49433    2.00000
   27    -10.09148    2.00000
   28     -9.89955    2.00000
   29     -9.60086    2.00000
   30     -9.39081    2.00000
   31     -9.26571    2.00000
   32     -9.08674    2.00000
   33     -8.59689    2.00000
   34     -8.53831    2.00000
   35     -8.32491    2.00000
   36     -7.77638    2.00000
   37     -7.14480    2.00000
   38     -6.85406    2.00000
   39     -6.62568    2.00000
   40     -6.54097    2.00000
   41     -6.49244    2.00000
   42     -6.12763    2.00000
   43     -5.91603    2.00000
   44     -5.78426    2.00000
   45     -5.45467    1.99998
   46     -5.19479    1.99970
   47     -4.39766    1.38848
   48     -4.23274    0.60767
   49     -3.68999    0.00383
   50     -3.44510    0.00033
   51     -3.15551    0.00002
   52     -2.87306    0.00000
   53     -2.78503    0.00000
   54     -2.43042    0.00000
   55     -2.19318    0.00000
   56     -1.66120    0.00000
   57     -1.18839    0.00000
   58     -0.47677    0.00000
   59      0.15570    0.00000
   60      0.24722    0.00000
   61      0.73785    0.00000
   62      1.21977    0.00000
   63      1.78843    0.00000
   64      2.12930    0.00000
   65      2.67432    0.00000
   66      3.19121    0.00000
   67      3.68113    0.00000
   68      4.03899    0.00000
   69      4.35713    0.00000
   70      4.66227    0.00000
   71      4.89449    0.00000
   72      5.25091    0.00000
   73      5.45695    0.00000
   74      5.89311    0.00000
   75      6.42877    0.00000
   76      6.80320    0.00000
   77      7.14843    0.00000
   78      7.24787    0.00000
   79      7.68531    0.00000
   80      7.84685    0.00000
   81      8.29654    0.00000
   82      8.41783    0.00000
   83      8.79208    0.00000
   84      8.84243    0.00000
   85      8.96184    0.00000
   86      9.08027    0.00000
   87      9.29440    0.00000
   88      9.36971    0.00000
   89      9.41367    0.00000
   90      9.55829    0.00000
   91      9.64933    0.00000
   92      9.72768    0.00000
   93      9.85096    0.00000
   94      9.93819    0.00000
   95     10.06927    0.00000
   96     10.18672    0.00000
   97     10.32612    0.00000


Forces in eV/Ang:
  0 C     0.33359    1.18031    0.08316
  1 C     0.23991    0.17978    0.09579
  2 C     1.11371    0.08609    0.05385
  3 C     0.18492    0.28230   -0.07468
  4 C     1.51261    1.88125    3.29498
  5 C    -0.27086   -0.35722   -0.10362
  6 C     1.54343    0.48284    2.16703
  7 C    -0.48211   -0.56613    0.55977
  8 C    -0.24485   -0.68802    0.30312
  9 C     1.55649    0.64949   -4.41715
 10 C     0.28716   -0.95024   -1.71996
 11 C    -0.52464   -0.39746    0.80103
 12 C     0.03193    0.14053    0.35840
 13 C     0.08806    0.12463   -0.20624
 14 C     0.18074    0.27795    0.41564
 15 C    -0.59879    0.01281   -0.32201
 16 C    -1.90090    0.16261   -2.61217
 17 C    -2.93117   -2.29088   -2.38524
 18 C     0.04133    1.40004    1.95393
 19 C    -1.21743   -0.46688    2.94327
 20 C    -0.24529    0.22281    0.34532
 21 C     0.22886    0.58176   -0.01900
 22 C    -0.00838    0.20043   -0.57816
 23 C     1.08094   -2.08580   -0.89561

System changes: positions 

Initializing position-dependent things.

Density initialized from wave functions
           .--------------------------------------.  
          /|                                      |  
         / |                                      |  
        /  |                                      |  
       /   |                                      |  
      /    |                                      |  
     /     |                                      |  
    /      |                                      |  
   /       |          C                           |  
  /        |   C  C     C                         |  
 *         |         C    C   C  C                |  
 |         |  C    C     C  C   C                 |  
 |         .-C--C-----C--------C------------------.  
 |        /         C  C  C                      /   
 |       /     C C                              /    
 |      /                                      /     
 |     /                                      /      
 |    /                                      /       
 |   /                                      /        
 |  /                                      /         
 | /                                      /          
 |/                                      /           
 *--------------------------------------*            

Positions:
   0 C      3.434001    6.380278    5.224131
   1 C      4.723591    4.130807    4.904763
   2 C      4.558062    5.492701    5.231359
   3 C      5.746254    3.391064    4.956010
   4 C      3.558297    7.661547    5.579327
   5 C      7.030972    3.763913    5.382450
   6 C      5.908910    6.019833    5.678187
   7 C      7.098222    5.205185    5.751585
   8 C      8.274870    3.132385    5.564972
   9 C      9.644313    4.999646    6.200626
  10 C      8.387671    5.795874    6.150941
  11 C      9.353801    3.647361    5.944006
  12 C      5.993306   10.014701    6.302311
  13 C      7.153837    9.479909    6.307567
  14 C      4.697900    9.437119    6.271941
  15 C      7.427561    8.070607    6.234519
  16 C      4.915223    8.028699    6.449174
  17 C      6.138720    7.347458    6.364604
  18 C      8.536543    7.228345    5.893360
  19 C     10.713986    5.515769    5.207528
  20 C     11.036604    6.794548    5.283158
  21 C     11.082779    8.228157    5.407096
  22 C      9.855234    7.682344    5.659964
  23 C      3.282158    9.414003    5.923214

Unit cell:
           periodic     x           y           z      points  spacing
  1. axis:    yes   16.000000    0.000000    0.000000    80     0.2000
  2. axis:    yes    0.000000   16.000000    0.000000    80     0.2000
  3. axis:    yes    0.000000    0.000000   10.000000    48     0.2083

Effective grid spacing dv^(1/3) = 0.2027

                     log10-error:    total        iterations:
           time      wfs    density  energy       fermi  poisson
iter:   1  11:13:36          +inf  -180.340910    3      5      
iter:   2  11:13:37         -1.87  -180.278492    2      2      
iter:   3  11:13:37         -2.05  -180.242960    3      2      
iter:   4  11:13:38         -2.35  -180.229902    3      2      
iter:   5  11:13:39         -2.53  -180.229509    2      2      
iter:   6  11:13:39         -2.65  -180.227337    2      2      
iter:   7  11:13:40         -2.82  -180.227403    2      2      
iter:   8  11:13:41         -2.96  -180.221992    2      1      
iter:   9  11:13:41         -3.11  -180.226743    2      2      
iter:  10  11:13:42         -3.37  -180.227885    2      1      
iter:  11  11:13:43         -3.51  -180.224117    2      1      
iter:  12  11:13:43         -3.75  -180.228028    2      1      
iter:  13  11:13:44         -3.82  -180.228324    2      1      
iter:  14  11:13:44         -3.95  -180.226832    1      1      
iter:  15  11:13:45         -4.16  -180.227496    2      1      

Converged after 15 iterations.

Dipole moment: (0.142294, -0.336641, 0.160838) |e|*Ang

Energy contributions relative to reference atoms: (reference = -24663.074771)

Kinetic:        +95.886603
Potential:     -106.125018
External:        +0.000000
XC:            -172.810567
Entropy (-ST):   -0.251367
Local:           +2.947170
--------------------------
Free energy:   -180.353179
Extrapolated:  -180.227496

Fermi level: -4.26631

 Band  Eigenvalues  Occupancy
    0    -23.41420    2.00000
    1    -22.59917    2.00000
    2    -22.01617    2.00000
    3    -21.24834    2.00000
    4    -20.84743    2.00000
    5    -20.05557    2.00000
    6    -19.27375    2.00000
    7    -19.23744    2.00000
    8    -18.78907    2.00000
    9    -18.05968    2.00000
   10    -17.70313    2.00000
   11    -16.89671    2.00000
   12    -16.53822    2.00000
   13    -15.65901    2.00000
   14    -15.32959    2.00000
   15    -14.82133    2.00000
   16    -14.26760    2.00000
   17    -13.19242    2.00000
   18    -12.80005    2.00000
   19    -12.64855    2.00000
   20    -12.45915    2.00000
   21    -12.05213    2.00000
   22    -11.41565    2.00000
   23    -11.12463    2.00000
   24    -11.01064    2.00000
   25    -10.87854    2.00000
   26    -10.46660    2.00000
   27    -10.12376    2.00000
   28     -9.94635    2.00000
   29     -9.60669    2.00000
   30     -9.42058    2.00000
   31     -9.32553    2.00000
   32     -9.16086    2.00000
   33     -8.74584    2.00000
   34     -8.53972    2.00000
   35     -8.39178    2.00000
   36     -7.78282    2.00000
   37     -7.16135    2.00000
   38     -6.85801    2.00000
   39     -6.62347    2.00000
   40     -6.54942    2.00000
   41     -6.47529    2.00000
   42     -6.18481    2.00000
   43     -5.89524    2.00000
   44     -5.82083    2.00000
   45     -5.42216    1.99998
   46     -5.14797    1.99970
   47     -4.34585    1.37798
   48     -4.18575    0.61765
   49     -3.65351    0.00435
   50     -3.38923    0.00031
   51     -3.12858    0.00002
   52     -2.87280    0.00000
   53     -2.79326    0.00000
   54     -2.43767    0.00000
   55     -2.14404    0.00000
   56     -1.65072    0.00000
   57     -1.13641    0.00000
   58     -0.36346    0.00000
   59      0.23478    0.00000
   60      0.44724    0.00000
   61      0.78725    0.00000
   62      1.29116    0.00000
   63      1.85286    0.00000
   64      2.23066    0.00000
   65      2.91353    0.00000
   66      3.27698    0.00000
   67      3.71793    0.00000
   68      4.07371    0.00000
   69      4.45075    0.00000
   70      4.72923    0.00000
   71      5.09108    0.00000
   72      5.27115    0.00000
   73      5.59131    0.00000
   74      5.95724    0.00000
   75      6.67085    0.00000
   76      6.89579    0.00000
   77      7.23173    0.00000
   78      7.26680    0.00000
   79      7.75351    0.00000
   80      7.88437    0.00000
   81      8.37896    0.00000
   82      8.53206    0.00000
   83      8.78821    0.00000
   84      8.86854    0.00000
   85      9.00045    0.00000
   86      9.07388    0.00000
   87      9.31982    0.00000
   88      9.39359    0.00000
   89      9.43280    0.00000
   90      9.57394    0.00000
   91      9.68520    0.00000
   92      9.74741    0.00000
   93      9.86290    0.00000
   94      9.94645    0.00000
   95     10.11114    0.00000
   96     10.19819    0.00000
   97     10.33661    0.00000


Forces in eV/Ang:
  0 C     0.58538    1.16360    0.13640
  1 C     0.06700    0.39163    0.07772
  2 C     0.75322    0.37116    0.14904
  3 C     0.21917    0.11409   -0.08912
  4 C     1.50410    1.42123    3.00296
  5 C    -0.23061   -0.31579   -0.01505
  6 C     0.89664    0.10125    1.68125
  7 C    -0.01717   -0.59199    0.55527
  8 C     0.03387   -0.51155    0.39439
  9 C     1.08368    0.30218   -3.95750
 10 C     0.26088   -0.46608   -1.56413
 11 C    -0.66168   -0.53654    0.63115
 12 C     0.08303    0.06446    0.34169
 13 C    -0.01899    0.06148   -0.16963
 14 C     0.21156    0.49043    0.34801
 15 C    -0.97111   -0.11604   -0.24051
 16 C    -1.65215   -0.14617   -2.44406
 17 C    -2.14099   -1.37129   -2.05494
 18 C    -0.03017    0.82850    1.71089
 19 C    -0.83011   -0.07670    2.55896
 20 C    -0.29579    0.20534    0.33204
 21 C     0.17575    0.37398   -0.04747
 22 C     0.04927    0.29895   -0.47200
 23 C     0.94033   -2.01094   -0.84351

System changes: positions 

Initializing position-dependent things.

Density initialized from wave functions
           .--------------------------------------.  
          /|                                      |  
         / |                                      |  
        /  |                                      |  
       /   |                                      |  
      /    |                                      |  
     /     |                                      |  
    /      |                                      |  
   /       |          C                           |  
  /        |   C  C     C                         |  
 *         |   C     C    C   C  C                |  
 |         |       C     C  C   C                 |  
 |         .-C--C-----C--------C------------------.  
 |        /         C  C  C                      /   
 |       /     C C                              /    
 |      /                                      /     
 |     /                                      /      
 |    /                                      /       
 |   /                                      /        
 |  /                                      /         
 | /                                      /          
 |/                                      /           
 *--------------------------------------*            

Positions:
   0 C      3.440616    6.392008    5.225659
   1 C      4.723797    4.135347    4.905499
   2 C      4.564685    5.497244    5.233129
   3 C      5.748560    3.391757    4.955068
   4 C      3.573486    7.674644    5.608892
   5 C      7.028753    3.760832    5.382542
   6 C      5.916193    6.019806    5.693852
   7 C      7.099332    5.199125    5.757189
   8 C      8.275972    3.127695    5.569209
   9 C      9.653971    5.001744    6.161866
  10 C      8.390237    5.792499    6.135550
  11 C      9.346738    3.641555    5.949924
  12 C      5.994284   10.015144    6.305721
  13 C      7.153352    9.480355    6.305952
  14 C      4.700126    9.442666    6.275275
  15 C      7.416706    8.069079    6.232313
  16 C      4.899196    8.026367    6.424917
  17 C      6.119252    7.336126    6.344731
  18 C      8.536042    7.235144    5.909994
  19 C     10.706659    5.516076    5.232351
  20 C     11.033470    6.796567    5.286479
  21 C     11.084412    8.231370    5.406537
  22 C      9.855889    7.685638    5.655484
  23 C      3.291280    9.393870    5.914826

Unit cell:
           periodic     x           y           z      points  spacing
  1. axis:    yes   16.000000    0.000000    0.000000    80     0.2000
  2. axis:    yes    0.000000   16.000000    0.000000    80     0.2000
  3. axis:    yes    0.000000    0.000000   10.000000    48     0.2083

Effective grid spacing dv^(1/3) = 0.2027

                     log10-error:    total        iterations:
           time      wfs    density  energy       fermi  poisson
iter:   1  11:13:47          +inf  -181.037230    3      5      
iter:   2  11:13:48         -1.90  -180.977788    2      2      
iter:   3  11:13:49         -2.08  -180.945944    3      2      
iter:   4  11:13:49         -2.37  -180.934403    3      2      
iter:   5  11:13:50         -2.54  -180.933657    2      2      
iter:   6  11:13:51         -2.66  -180.931522    2      2      
iter:   7  11:13:51         -2.83  -180.925579    2      1      
iter:   8  11:13:52         -2.96  -180.931761    2      2      
iter:   9  11:13:53         -3.11  -180.931296    2      2      
iter:  10  11:13:53         -3.37  -180.929233    2      1      
iter:  11  11:13:54         -3.50  -180.933078    2      1      
iter:  12  11:13:55         -3.69  -180.931307    2      1      
iter:  13  11:13:55         -3.81  -180.931480    2      1      
iter:  14  11:13:56         -3.93  -180.932618    2      1      
iter:  15  11:13:57         -4.11  -180.931189    2      1      

Converged after 15 iterations.

Dipole moment: (0.199827, -0.331591, 0.160983) |e|*Ang

Energy contributions relative to reference atoms: (reference = -24663.074771)

Kinetic:        +98.744765
Potential:     -108.503504
External:        +0.000000
XC:            -174.001507
Entropy (-ST):   -0.254985
Local:           +2.956550
--------------------------
Free energy:   -181.058682
Extrapolated:  -180.931189

Fermi level: -4.21909

 Band  Eigenvalues  Occupancy
    0    -23.46566    2.00000
    1    -22.63563    2.00000
    2    -22.06467    2.00000
    3    -21.22884    2.00000
    4    -20.90703    2.00000
    5    -20.07313    2.00000
    6    -19.32580    2.00000
    7    -19.28216    2.00000
    8    -18.81186    2.00000
    9    -18.07101    2.00000
   10    -17.68714    2.00000
   11    -16.88205    2.00000
   12    -16.54767    2.00000
   13    -15.66265    2.00000
   14    -15.31704    2.00000
   15    -14.87237    2.00000
   16    -14.27461    2.00000
   17    -13.19878    2.00000
   18    -12.82903    2.00000
   19    -12.60089    2.00000
   20    -12.47760    2.00000
   21    -12.10728    2.00000
   22    -11.50387    2.00000
   23    -11.10295    2.00000
   24    -10.99418    2.00000
   25    -10.88894    2.00000
   26    -10.45629    2.00000
   27    -10.15918    2.00000
   28     -9.99907    2.00000
   29     -9.62311    2.00000
   30     -9.47134    2.00000
   31     -9.38497    2.00000
   32     -9.20488    2.00000
   33     -8.88400    2.00000
   34     -8.55111    2.00000
   35     -8.45965    2.00000
   36     -7.78825    2.00000
   37     -7.17157    2.00000
   38     -6.87177    2.00000
   39     -6.62420    2.00000
   40     -6.55809    2.00000
   41     -6.43884    2.00000
   42     -6.24793    2.00000
   43     -5.88239    2.00000
   44     -5.85402    2.00000
   45     -5.38559    1.99998
   46     -5.09734    1.99969
   47     -4.29427    1.35911
   48     -4.14262    0.63524
   49     -3.63251    0.00565
   50     -3.33636    0.00029
   51     -3.10039    0.00003
   52     -2.84636    0.00000
   53     -2.78377    0.00000
   54     -2.43972    0.00000
   55     -2.08931    0.00000
   56     -1.61654    0.00000
   57     -1.08340    0.00000
   58     -0.27502    0.00000
   59      0.27525    0.00000
   60      0.69830    0.00000
   61      0.86296    0.00000
   62      1.37958    0.00000
   63      1.92717    0.00000
   64      2.27371    0.00000
   65      3.15642    0.00000
   66      3.39202    0.00000
   67      3.75015    0.00000
   68      4.10374    0.00000
   69      4.53846    0.00000
   70      4.79014    0.00000
   71      5.18763    0.00000
   72      5.38028    0.00000
   73      5.69678    0.00000
   74      5.99431    0.00000
   75      6.76346    0.00000
   76      6.98423    0.00000
   77      7.27433    0.00000
   78      7.42202    0.00000
   79      7.92524    0.00000
   80      7.94036    0.00000
   81      8.46383    0.00000
   82      8.62241    0.00000
   83      8.79148    0.00000
   84      8.91173    0.00000
   85      9.05301    0.00000
   86      9.07346    0.00000
   87      9.34597    0.00000
   88      9.44343    0.00000
   89      9.48721    0.00000
   90      9.58796    0.00000
   91      9.71385    0.00000
   92      9.77979    0.00000
   93      9.89754    0.00000
   94      9.97606    0.00000
   95     10.14483    0.00000
   96     10.20986    0.00000
   97     10.35124    0.00000


Forces in eV/Ang:
  0 C     0.61860    1.18707    0.15568
  1 C     0.28847    0.26136    0.07143
  2 C     0.49567    0.49950    0.22219
  3 C    -0.14767    0.21573   -0.12531
  4 C     1.30587    0.92418    2.53914
  5 C    -0.05901   -0.31044    0.10522
  6 C     0.56538   -0.23340    1.28622
  7 C     0.11212   -0.54277    0.51217
  8 C    -0.47416   -0.59180    0.19912
  9 C     0.49146   -0.09663   -3.36333
 10 C     0.29761   -0.22267   -1.39816
 11 C    -0.08627   -0.27409    0.69346
 12 C    -0.05312    0.06316    0.32368
 13 C     0.06239   -0.06752   -0.13355
 14 C     0.22000    0.52832    0.28661
 15 C    -1.03039   -0.17201   -0.20811
 16 C    -1.28225   -0.12479   -2.14775
 17 C    -1.56680   -0.75056   -1.71631
 18 C    -0.00187    0.56637    1.47081
 19 C    -0.29129    0.29995    2.04926
 20 C    -0.31513    0.11222    0.29975
 21 C     0.20810    0.31990   -0.08018
 22 C    -0.12593    0.31115   -0.31623
 23 C     0.82280   -1.85717   -0.75386

System changes: positions 

Initializing position-dependent things.

Density initialized from wave functions
           .--------------------------------------.  
          /|                                      |  
         / |                                      |  
        /  |                                      |  
       /   |                                      |  
      /    |                                      |  
     /     |                                      |  
    /      |                                      |  
   /       |          C                           |  
  /        |   C  C     C                         |  
 *         |   C    C     C   C  C                |  
 |         |       C     C      C                 |  
 |         .-C--C-----C-----C--C------------------.  
 |        /         C  C  C                      /   
 |       /     C C                              /    
 |      /                                      /     
 |     /                                      /      
 |    /                                      /       
 |   /                                      /        
 |  /                                      /         
 | /                                      /          
 |/                                      /           
 *--------------------------------------*            

Positions:
   0 C      3.448277    6.404994    5.227190
   1 C      4.726750    4.139444    4.906390
   2 C      4.570289    5.503258    5.236009
   3 C      5.747038    3.394001    4.953539
   4 C      3.589087    7.686453    5.639356
   5 C      7.027885    3.757177    5.384047
   6 C      5.922542    6.015796    5.708563
   7 C      7.100793    5.192766    5.763391
   8 C      8.271175    3.120840    5.571945
   9 C      9.658324    4.999600    6.122161
  10 C      8.393897    5.789594    6.118854
  11 C      9.345219    3.637796    5.957886
  12 C      5.993823   10.015724    6.309700
  13 C      7.153837    9.479665    6.304442
  14 C      4.702624    9.449033    6.278588
  15 C      7.405098    8.066703    6.229540
  16 C      4.884757    8.025031    6.399308
  17 C      6.100258    7.328346    6.324586
  18 C      8.535695    7.242248    5.927423
  19 C     10.704252    5.519212    5.255995
  20 C     11.030009    6.799741    5.290178
  21 C     11.086585    8.234498    5.405519
  22 C      9.854386    7.689746    5.651935
  23 C      3.301214    9.371444    5.905796

Unit cell:
           periodic     x           y           z      points  spacing
  1. axis:    yes   16.000000    0.000000    0.000000    80     0.2000
  2. axis:    yes    0.000000   16.000000    0.000000    80     0.2000
  3. axis:    yes    0.000000    0.000000   10.000000    48     0.2083

Effective grid spacing dv^(1/3) = 0.2027

                     log10-error:    total        iterations:
           time      wfs    density  energy       fermi  poisson
iter:   1  11:13:59          +inf  -181.615857    4      5      
iter:   2  11:14:00         -1.90  -181.553327    3      2      
iter:   3  11:14:00         -2.10  -181.522588    3      2      
iter:   4  11:14:01         -2.38  -181.512102    3      2      
iter:   5  11:14:02         -2.55  -181.505785    2      1      
iter:   6  11:14:02         -2.64  -181.509726    2      2      
iter:   7  11:14:03         -2.87  -181.507422    2      1      
iter:   8  11:14:04         -2.95  -181.508572    2      2      
iter:   9  11:14:04         -3.29  -181.507249    2      1      
iter:  10  11:14:05         -3.40  -181.508268    2      1      
iter:  11  11:14:05         -3.53  -181.508314    2      1      
iter:  12  11:14:06         -3.78  -181.509472    2      1      
iter:  13  11:14:07         -3.86  -181.510232    2      1      
iter:  14  11:14:07         -3.95  -181.510114    2      1      
iter:  15  11:14:08         -4.04  -181.509870    2      1      

Converged after 15 iterations.

Dipole moment: (0.247524, -0.325913, 0.162529) |e|*Ang

Energy contributions relative to reference atoms: (reference = -24663.074771)

Kinetic:       +102.123819
Potential:     -111.254143
External:        +0.000000
XC:            -175.231704
Entropy (-ST):   -0.259982
Local:           +2.982148
--------------------------
Free energy:   -181.639861
Extrapolated:  -181.509870

Fermi level: -4.17719

 Band  Eigenvalues  Occupancy
    0    -23.50285    2.00000
    1    -22.69089    2.00000
    2    -22.13094    2.00000
    3    -21.21941    2.00000
    4    -20.97506    2.00000
    5    -20.09944    2.00000
    6    -19.39407    2.00000
    7    -19.31199    2.00000
    8    -18.81947    2.00000
    9    -18.08142    2.00000
   10    -17.67434    2.00000
   11    -16.87962    2.00000
   12    -16.57332    2.00000
   13    -15.67518    2.00000
   14    -15.30192    2.00000
   15    -14.92323    2.00000
   16    -14.28506    2.00000
   17    -13.21322    2.00000
   18    -12.86527    2.00000
   19    -12.59500    2.00000
   20    -12.49923    2.00000
   21    -12.15154    2.00000
   22    -11.55895    2.00000
   23    -11.07992    2.00000
   24    -10.98659    2.00000
   25    -10.91342    2.00000
   26    -10.44566    2.00000
   27    -10.20078    2.00000
   28    -10.05195    2.00000
   29     -9.63940    2.00000
   30     -9.54080    2.00000
   31     -9.42869    2.00000
   32     -9.24549    2.00000
   33     -9.01753    2.00000
   34     -8.56366    2.00000
   35     -8.52281    2.00000
   36     -7.79447    2.00000
   37     -7.18112    2.00000
   38     -6.87838    2.00000
   39     -6.62330    2.00000
   40     -6.56027    2.00000
   41     -6.41307    2.00000
   42     -6.27988    2.00000
   43     -5.90798    2.00000
   44     -5.85438    2.00000
   45     -5.33934    1.99998
   46     -5.04697    1.99967
   47     -4.24692    1.33518
   48     -4.10551    0.65623
   49     -3.63249    0.00858
   50     -3.30325    0.00032
   51     -3.07675    0.00003
   52     -2.85110    0.00000
   53     -2.75216    0.00000
   54     -2.43676    0.00000
   55     -2.04844    0.00000
   56     -1.56788    0.00000
   57     -1.05510    0.00000
   58     -0.19365    0.00000
   59      0.30949    0.00000
   60      0.90130    0.00000
   61      0.99305    0.00000
   62      1.49593    0.00000
   63      1.99526    0.00000
   64      2.30650    0.00000
   65      3.27260    0.00000
   66      3.51567    0.00000
   67      3.83147    0.00000
   68      4.14315    0.00000
   69      4.64561    0.00000
   70      4.85599    0.00000
   71      5.20652    0.00000
   72      5.58200    0.00000
   73      5.78407    0.00000
   74      6.02312    0.00000
   75      6.78671    0.00000
   76      7.04012    0.00000
   77      7.30531    0.00000
   78      7.55522    0.00000
   79      7.96164    0.00000
   80      8.19569    0.00000
   81      8.59884    0.00000
   82      8.66711    0.00000
   83      8.81775    0.00000
   84      8.95224    0.00000
   85      9.04287    0.00000
   86      9.12853    0.00000
   87      9.37060    0.00000
   88      9.45671    0.00000
   89      9.55571    0.00000
   90      9.65448    0.00000
   91      9.74256    0.00000
   92      9.82793    0.00000
   93      9.94288    0.00000
   94     10.05662    0.00000
   95     10.17673    0.00000
   96     10.22329    0.00000
   97     10.36619    0.00000


Forces in eV/Ang:
  0 C     0.66063    1.14950    0.20790
  1 C     0.12695    0.42126    0.05597
  2 C     0.28882    0.51131    0.25946
  3 C    -0.05234    0.08265   -0.11609
  4 C     0.89164    0.45993    1.96633
  5 C    -0.13303   -0.27713    0.16101
  6 C     0.23259   -0.36448    0.92556
  7 C     0.27614   -0.49962    0.46749
  8 C    -0.00654   -0.37433    0.32867
  9 C     0.00326   -0.30017   -2.62984
 10 C     0.17421   -0.01787   -1.21975
 11 C    -0.40777   -0.57921    0.42092
 12 C     0.00335    0.02388    0.29961
 13 C    -0.00635   -0.08049   -0.09809
 14 C     0.16961    0.54471    0.21347
 15 C    -1.04523   -0.17417   -0.17278
 16 C    -0.73995   -0.04970   -1.68385
 17 C    -0.94740   -0.31249   -1.40191
 18 C    -0.01118    0.26558    1.21318
 19 C     0.25003    0.58887    1.47315
 20 C    -0.29676    0.06222    0.28088
 21 C     0.13795    0.27423   -0.08318
 22 C    -0.14939    0.39344   -0.17235
 23 C     0.62955   -1.66771   -0.68104

System changes: positions 

Initializing position-dependent things.

Density initialized from wave functions
           .--------------------------------------.  
          /|                                      |  
         / |                                      |  
        /  |                                      |  
       /   |                                      |  
      /    |                                      |  
     /     |                                      |  
    /      |                                      |  
   /       |          C                           |  
  /        |   C  C     C                         |  
 *         |   C    C     C   C  C                |  
 |         |       C     C      C                 |  
 |         .-C--C-----C-----C--C------------------.  
 |        /         C  C  C                      /   
 |       /     C C                              /    
 |      /                                      /     
 |     /                                      /      
 |    /                                      /       
 |   /                                      /        
 |  /                                      /         
 | /                                      /          
 |/                                      /           
 *--------------------------------------*            

Positions:
   0 C      3.457784    6.420508    5.229724
   1 C      4.728156    4.146614    4.907312
   2 C      4.575200    5.510078    5.239863
   3 C      5.746863    3.395066    4.951849
   4 C      3.602312    7.695642    5.669565
   5 C      7.025410    3.753041    5.386452
   6 C      5.927232    6.010007    5.722849
   7 C      7.103840    5.185558    5.770462
   8 C      8.272178    3.115296    5.577289
   9 C      9.657894    4.995000    6.082429
  10 C      8.396589    5.787676    6.100313
  11 C      9.338213    3.628542    5.963953
  12 C      5.994117   10.016026    6.314337
  13 C      7.153571    9.478890    6.302990
  14 C      4.704863    9.456625    6.281801
  15 C      7.391480    8.064079    6.226391
  16 C      4.874222    8.025287    6.373928
  17 C      6.083647    7.322584    6.303269
  18 C      8.535261    7.248150    5.945939
  19 C     10.708155    5.526193    5.277910
  20 C     11.026150    6.803133    5.294550
  21 C     11.088298    8.238221    5.404307
  22 C      9.852171    7.695869    5.649337
  23 C      3.311054    9.346160    5.895486

Unit cell:
           periodic     x           y           z      points  spacing
  1. axis:    yes   16.000000    0.000000    0.000000    80     0.2000
  2. axis:    yes    0.000000   16.000000    0.000000    80     0.2000
  3. axis:    yes    0.000000    0.000000   10.000000    48     0.2083

Effective grid spacing dv^(1/3) = 0.2027

                     log10-error:    total        iterations:
           time      wfs    density  energy       fermi  poisson
iter:   1  11:14:10          +inf  -182.051240    3      5      
iter:   2  11:14:11         -1.96  -181.996697    3      2      
iter:   3  11:14:12         -2.15  -181.971567    3      2      
iter:   4  11:14:12         -2.38  -181.962776    2      2      
iter:   5  11:14:13         -2.55  -181.960310    2      2      
iter:   6  11:14:14         -2.67  -181.959129    2      2      
iter:   7  11:14:14         -2.89  -181.954989    2      1      
iter:   8  11:14:15         -2.97  -181.958655    2      2      
iter:   9  11:14:16         -3.36  -181.957135    2      1      
iter:  10  11:14:16         -3.47  -181.957057    2      1      
iter:  11  11:14:17         -3.62  -181.960179    2      1      
iter:  12  11:14:18         -3.72  -181.960203    2      1      
iter:  13  11:14:18         -3.89  -181.959255    2      1      
iter:  14  11:14:19         -3.98  -181.959651    2      1      
iter:  15  11:14:19         -4.05  -181.960113    2      1      

Converged after 15 iterations.

Dipole moment: (0.278796, -0.316964, 0.163338) |e|*Ang

Energy contributions relative to reference atoms: (reference = -24663.074771)

Kinetic:       +106.746089
Potential:     -114.927208
External:        +0.000000
XC:            -176.640322
Entropy (-ST):   -0.263911
Local:           +2.993283
--------------------------
Free energy:   -182.092069
Extrapolated:  -181.960113

Fermi level: -4.13427

 Band  Eigenvalues  Occupancy
    0    -23.52674    2.00000
    1    -22.76822    2.00000
    2    -22.19397    2.00000
    3    -21.21385    2.00000
    4    -21.03340    2.00000
    5    -20.12732    2.00000
    6    -19.45437    2.00000
    7    -19.33950    2.00000
    8    -18.83384    2.00000
    9    -18.09709    2.00000
   10    -17.67108    2.00000
   11    -16.89462    2.00000
   12    -16.59400    2.00000
   13    -15.68229    2.00000
   14    -15.30902    2.00000
   15    -14.96213    2.00000
   16    -14.28897    2.00000
   17    -13.22355    2.00000
   18    -12.91284    2.00000
   19    -12.62034    2.00000
   20    -12.49744    2.00000
   21    -12.17812    2.00000
   22    -11.57664    2.00000
   23    -11.06690    2.00000
   24    -10.98222    2.00000
   25    -10.93534    2.00000
   26    -10.44466    2.00000
   27    -10.23380    2.00000
   28    -10.10021    2.00000
   29     -9.65736    2.00000
   30     -9.61437    2.00000
   31     -9.47370    2.00000
   32     -9.28505    2.00000
   33     -9.12961    2.00000
   34     -8.60035    2.00000
   35     -8.55655    2.00000
   36     -7.79669    2.00000
   37     -7.18872    2.00000
   38     -6.88669    2.00000
   39     -6.64298    2.00000
   40     -6.56912    2.00000
   41     -6.39566    2.00000
   42     -6.30913    2.00000
   43     -5.95156    2.00000
   44     -5.84831    2.00000
   45     -5.30564    1.99998
   46     -5.00498    1.99967
   47     -4.20168    1.32487
   48     -4.06368    0.66101
   49     -3.63919    0.01406
   50     -3.27604    0.00037
   51     -3.04428    0.00004
   52     -2.81730    0.00000
   53     -2.71194    0.00000
   54     -2.42751    0.00000
   55     -2.01287    0.00000
   56     -1.50513    0.00000
   57     -1.01610    0.00000
   58     -0.12552    0.00000
   59      0.37212    0.00000
   60      1.04934    0.00000
   61      1.12842    0.00000
   62      1.69227    0.00000
   63      2.05408    0.00000
   64      2.39311    0.00000
   65      3.33149    0.00000
   66      3.56980    0.00000
   67      3.94184    0.00000
   68      4.20132    0.00000
   69      4.75010    0.00000
   70      4.93012    0.00000
   71      5.21667    0.00000
   72      5.75762    0.00000
   73      5.88263    0.00000
   74      6.03772    0.00000
   75      6.80269    0.00000
   76      7.04680    0.00000
   77      7.33710    0.00000
   78      7.63112    0.00000
   79      7.99838    0.00000
   80      8.37728    0.00000
   81      8.67084    0.00000
   82      8.78449    0.00000
   83      8.86538    0.00000
   84      8.99785    0.00000
   85      9.04190    0.00000
   86      9.17461    0.00000
   87      9.39163    0.00000
   88      9.46917    0.00000
   89      9.56311    0.00000
   90      9.69130    0.00000
   91      9.77995    0.00000
   92      9.86762    0.00000
   93     10.00710    0.00000
   94     10.18718    0.00000
   95     10.21165    0.00000
   96     10.25195    0.00000
   97     10.38960    0.00000


Forces in eV/Ang:
  0 C     0.62222    0.93062    0.19911
  1 C     0.24601    0.32594    0.04811
  2 C     0.11273    0.51574    0.27551
  3 C    -0.25993    0.13008   -0.12336
  4 C     0.24992    0.07700    1.28608
  5 C     0.00779   -0.28496    0.25249
  6 C     0.02374   -0.49821    0.62853
  7 C     0.25173   -0.44548    0.36479
  8 C    -0.70892   -0.56323    0.06663
  9 C    -0.40488   -0.52012   -1.99551
 10 C     0.14597    0.09266   -1.01001
 11 C     0.30779   -0.23353    0.50511
 12 C    -0.04389    0.02151    0.26597
 13 C     0.02310   -0.11508   -0.06819
 14 C     0.08905    0.50555    0.16274
 15 C    -0.92743   -0.19655   -0.14372
 16 C    -0.01683    0.10393   -1.11800
 17 C    -0.41501    0.05486   -1.09642
 18 C    -0.05708    0.07507    0.93526
 19 C     0.60651    0.56764    1.01879
 20 C    -0.20224    0.23975    0.25572
 21 C     0.03099    0.21225   -0.06619
 22 C    -0.17332    0.46122   -0.03014
 23 C     0.50735   -1.36037   -0.59874

System changes: positions 

Initializing position-dependent things.

Density initialized from wave functions
           .--------------------------------------.  
          /|                                      |  
         / |                                      |  
        /  |                                      |  
       /   |                                      |  
      /    |                                      |  
     /     |                                      |  
    /      |                                      |  
   /       |          C                           |  
  /        |   C  C     C                         |  
 *         |   C    C     C   C  C                |  
 |         |       C     C      C                 |  
 |         .-C--C-----C-----C--C------------------.  
 |        /         C  C  C                      /   
 |       /     C C                              /    
 |      /                                      /     
 |     /                                      /      
 |    /                                      /       
 |   /                                      /        
 |  /                                      /         
 | /                                      /          
 |/                                      /           
 *--------------------------------------*            

Positions:
   0 C      3.468097    6.435015    5.232365
   1 C      4.730856    4.154107    4.908315
   2 C      4.579300    5.517503    5.244373
   3 C      5.744769    3.396724    4.949881
   4 C      3.608909    7.702779    5.696460
   5 C      7.023976    3.748069    5.390247
   6 C      5.931007    6.002230    5.736515
   7 C      7.106332    5.177853    5.777365
   8 C      8.264689    3.106254    5.580328
   9 C      9.653063    4.987569    6.043423
  10 C      8.399243    5.785889    6.081142
  11 C      9.338702    3.621939    5.972087
  12 C      5.994189   10.016354    6.319355
  13 C      7.153453    9.477946    6.301625
  14 C      4.706203    9.464645    6.285005
  15 C      7.377988    8.060869    6.222898
  16 C      4.871520    8.028081    6.351633
  17 C      6.069691    7.319032    6.281723
  18 C      8.533964    7.253559    5.964327
  19 C     10.716395    5.532510    5.298353
  20 C     11.023215    6.810496    5.299423
  21 C     11.088583    8.241788    5.403244
  22 C      9.849702    7.704013    5.647921
  23 C      3.321220    9.320577    5.884348

Unit cell:
           periodic     x           y           z      points  spacing
  1. axis:    yes   16.000000    0.000000    0.000000    80     0.2000
  2. axis:    yes    0.000000   16.000000    0.000000    80     0.2000
  3. axis:    yes    0.000000    0.000000   10.000000    48     0.2083

Effective grid spacing dv^(1/3) = 0.2027

                     log10-error:    total        iterations:
           time      wfs    density  energy       fermi  poisson
iter:   1  11:14:22          +inf  -182.367059    4      5      
iter:   2  11:14:22         -2.03  -182.309660    3      2      
iter:   3  11:14:23         -2.26  -182.298247    3      2      
iter:   4  11:14:24         -2.37  -182.288371    3      2      
iter:   5  11:14:24         -2.58  -182.285633    2      2      
iter:   6  11:14:25         -2.73  -182.285546    2      2      
iter:   7  11:14:26         -2.94  -182.283436    2      1      
iter:   8  11:14:26         -3.00  -182.284582    2      2      
iter:   9  11:14:27         -3.37  -182.284223    2      1      
iter:  10  11:14:28         -3.47  -182.283758    2      1      
iter:  11  11:14:28         -3.62  -182.284982    2      1      
iter:  12  11:14:29         -3.75  -182.285329    2      1      
iter:  13  11:14:30         -3.87  -182.284792    2      1      
iter:  14  11:14:30         -4.02  -182.285248    2      1      

Converged after 14 iterations.

Dipole moment: (0.289772, -0.306702, 0.165856) |e|*Ang

Energy contributions relative to reference atoms: (reference = -24663.074771)

Kinetic:       +110.152691
Potential:     -117.593306
External:        +0.000000
XC:            -177.709914
Entropy (-ST):   -0.267849
Local:           +2.999206
--------------------------
Free energy:   -182.419173
Extrapolated:  -182.285248

Fermi level: -4.09501

 Band  Eigenvalues  Occupancy
    0    -23.54753    2.00000
    1    -22.86059    2.00000
    2    -22.24806    2.00000
    3    -21.22222    2.00000
    4    -21.07283    2.00000
    5    -20.15647    2.00000
    6    -19.49851    2.00000
    7    -19.35406    2.00000
    8    -18.82959    2.00000
    9    -18.11270    2.00000
   10    -17.67246    2.00000
   11    -16.90159    2.00000
   12    -16.62198    2.00000
   13    -15.68747    2.00000
   14    -15.30436    2.00000
   15    -14.99221    2.00000
   16    -14.30844    2.00000
   17    -13.22597    2.00000
   18    -12.96483    2.00000
   19    -12.63532    2.00000
   20    -12.50190    2.00000
   21    -12.20966    2.00000
   22    -11.58753    2.00000
   23    -11.06016    2.00000
   24    -11.00048    2.00000
   25    -10.94334    2.00000
   26    -10.44611    2.00000
   27    -10.26206    2.00000
   28    -10.13875    2.00000
   29     -9.70265    2.00000
   30     -9.67739    2.00000
   31     -9.51533    2.00000
   32     -9.34114    2.00000
   33     -9.19958    2.00000
   34     -8.63699    2.00000
   35     -8.57075    2.00000
   36     -7.80013    2.00000
   37     -7.19326    2.00000
   38     -6.88367    2.00000
   39     -6.64720    2.00000
   40     -6.56068    2.00000
   41     -6.38486    2.00000
   42     -6.30331    2.00000
   43     -5.97651    2.00000
   44     -5.84847    2.00000
   45     -5.27494    1.99998
   46     -4.97024    1.99968
   47     -4.16360    1.33012
   48     -4.02054    0.64396
   49     -3.66035    0.02557
   50     -3.28811    0.00063
   51     -3.03981    0.00005
   52     -2.82046    0.00001
   53     -2.65561    0.00000
   54     -2.42091    0.00000
   55     -1.98552    0.00000
   56     -1.43373    0.00000
   57     -1.00738    0.00000
   58     -0.07320    0.00000
   59      0.41830    0.00000
   60      1.16986    0.00000
   61      1.19887    0.00000
   62      1.89717    0.00000
   63      2.10742    0.00000
   64      2.48350    0.00000
   65      3.36216    0.00000
   66      3.58228    0.00000
   67      4.03168    0.00000
   68      4.27095    0.00000
   69      4.81308    0.00000
   70      4.99204    0.00000
   71      5.24327    0.00000
   72      5.83064    0.00000
   73      6.02605    0.00000
   74      6.08018    0.00000
   75      6.81309    0.00000
   76      7.08377    0.00000
   77      7.39866    0.00000
   78      7.68959    0.00000
   79      8.01733    0.00000
   80      8.48128    0.00000
   81      8.69668    0.00000
   82      8.85840    0.00000
   83      8.93940    0.00000
   84      9.02236    0.00000
   85      9.09551    0.00000
   86      9.22604    0.00000
   87      9.41392    0.00000
   88      9.48807    0.00000
   89      9.56743    0.00000
   90      9.69618    0.00000
   91      9.80970    0.00000
   92      9.89979    0.00000
   93     10.07038    0.00000
   94     10.23425    0.00000
   95     10.25625    0.00000
   96     10.29760    0.00000
   97     10.40873    0.00000


Forces in eV/Ang:
  0 C     0.55135    0.72348    0.18626
  1 C     0.19586    0.30518    0.01616
  2 C     0.01426    0.43842    0.29047
  3 C    -0.28803    0.09579   -0.10893
  4 C    -0.30315   -0.23057    0.74549
  5 C    -0.09846   -0.25347    0.27885
  6 C    -0.18201   -0.51010    0.32958
  7 C     0.26122   -0.34365    0.30692
  8 C    -0.01907   -0.31401    0.27819
  9 C    -0.50487   -0.46741   -1.47402
 10 C     0.01188    0.18108   -0.82974
 11 C    -0.27012   -0.61654    0.17102
 12 C    -0.05443    0.02610    0.22214
 13 C     0.03538   -0.11961   -0.04663
 14 C     0.02109    0.41205    0.13626
 15 C    -0.73482   -0.19009   -0.09777
 16 C     0.44176    0.27895   -0.59219
 17 C     0.17314    0.26289   -0.85708
 18 C    -0.03442   -0.10103    0.63822
 19 C     0.90961    0.74074    0.67232
 20 C    -0.16219    0.05635    0.22714
 21 C    -0.02022    0.29575   -0.05272
 22 C    -0.30384    0.48946    0.12057
 23 C     0.39811   -1.01900   -0.55463

System changes: positions 

Initializing position-dependent things.

Density initialized from wave functions
           .--------------------------------------.  
          /|                                      |  
         / |                                      |  
        /  |                                      |  
       /   |                                      |  
      /    |                                      |  
     /     |                                      |  
    /      |                                      |  
   /       |          C                           |  
  /        |   C  C     C                         |  
 *         |   C    C   C C   C  C                |  
 |         |       C     C      C                 |  
 |         .--C-C-----C-----C--C------------------.  
 |        /         C  C  C                      /   
 |       /     C C                              /    
 |      /                                      /     
 |     /                                      /      
 |    /                                      /       
 |   /                                      /        
 |  /                                      /         
 | /                                      /          
 |/                                      /           
 *--------------------------------------*            

Positions:
   0 C      3.478765    6.449128    5.235213
   1 C      4.734025    4.161706    4.909041
   2 C      4.583064    5.524887    5.249707
   3 C      5.741297    3.398689    4.947773
   4 C      3.608688    7.707007    5.720353
   5 C      7.021121    3.742626    5.394966
   6 C      5.933203    5.993516    5.748794
   7 C      7.108789    5.170327    5.784524
   8 C      8.263869    3.098565    5.586233
   9 C      9.646942    4.980146    6.004598
  10 C      8.400600    5.784687    6.061248
  11 C      9.332576    3.609882    5.977509
  12 C      5.993829   10.016968    6.324554
  13 C      7.153823    9.476720    6.300279
  14 C      4.706822    9.472440    6.288489
  15 C      7.365213    8.057342    6.219494
  16 C      4.874443    8.034035    6.332941
  17 C      6.061140    7.316837    6.259633
  18 C      8.532904    7.257841    5.981751
  19 C     10.729444    5.541892    5.318037
  20 C     11.020367    6.816141    5.304663
  21 C     11.088341    8.247476    5.402237
  22 C      9.844827    7.713663    5.648265
  23 C      3.331739    9.295724    5.871960

Unit cell:
           periodic     x           y           z      points  spacing
  1. axis:    yes   16.000000    0.000000    0.000000    80     0.2000
  2. axis:    yes    0.000000   16.000000    0.000000    80     0.2000
  3. axis:    yes    0.000000    0.000000   10.000000    48     0.2083

Effective grid spacing dv^(1/3) = 0.2027

                     log10-error:    total        iterations:
           time      wfs    density  energy       fermi  poisson
iter:   1  11:14:33          +inf  -182.598476    4      5      
iter:   2  11:14:33         -2.07  -182.549688    3      2      
iter:   3  11:14:34         -2.32  -182.538769    3      1      
iter:   4  11:14:35         -2.40  -182.532277    3      2      
iter:   5  11:14:35         -2.62  -182.531010    3      2      
iter:   6  11:14:36         -2.78  -182.530633    3      2      
iter:   7  11:14:37         -2.80  -182.531539    3      1      
iter:   8  11:14:37         -3.08  -182.527002    3      1      
iter:   9  11:14:38         -3.21  -182.524699    2      1      
iter:  10  11:14:39         -3.47  -182.529614    2      1      
iter:  11  11:14:39         -3.58  -182.529249    2      1      
iter:  12  11:14:40         -3.77  -182.529437    2      1      
iter:  13  11:14:40         -3.88  -182.530070    2      1      
iter:  14  11:14:41         -4.00  -182.530629    2      1      

Converged after 14 iterations.

Dipole moment: (0.283507, -0.301212, 0.166404) |e|*Ang

Energy contributions relative to reference atoms: (reference = -24663.074771)

Kinetic:       +113.569390
Potential:     -120.267835
External:        +0.000000
XC:            -178.697660
Entropy (-ST):   -0.269234
Local:           +3.000093
--------------------------
Free energy:   -182.665246
Extrapolated:  -182.530629

Fermi level: -4.05301

 Band  Eigenvalues  Occupancy
    0    -23.52731    2.00000
    1    -22.94521    2.00000
    2    -22.28099    2.00000
    3    -21.23087    2.00000
    4    -21.10003    2.00000
    5    -20.17417    2.00000
    6    -19.52503    2.00000
    7    -19.37697    2.00000
    8    -18.84675    2.00000
    9    -18.12911    2.00000
   10    -17.68247    2.00000
   11    -16.92564    2.00000
   12    -16.64005    2.00000
   13    -15.68971    2.00000
   14    -15.32730    2.00000
   15    -15.01066    2.00000
   16    -14.31579    2.00000
   17    -13.21389    2.00000
   18    -13.00110    2.00000
   19    -12.65185    2.00000
   20    -12.50131    2.00000
   21    -12.24980    2.00000
   22    -11.57884    2.00000
   23    -11.06504    2.00000
   24    -11.01206    2.00000
   25    -10.93504    2.00000
   26    -10.44568    2.00000
   27    -10.27272    2.00000
   28    -10.15803    2.00000
   29     -9.79830    2.00000
   30     -9.69753    2.00000
   31     -9.54622    2.00000
   32     -9.39096    2.00000
   33     -9.23874    2.00000
   34     -8.66804    2.00000
   35     -8.58025    2.00000
   36     -7.79564    2.00000
   37     -7.19091    2.00000
   38     -6.88878    2.00000
   39     -6.67626    2.00000
   40     -6.56408    2.00000
   41     -6.40049    2.00000
   42     -6.29936    2.00000
   43     -6.00820    2.00000
   44     -5.85628    2.00000
   45     -5.26657    1.99999
   46     -4.94561    1.99973
   47     -4.12872    1.36146
   48     -3.96682    0.59391
   49     -3.67306    0.04379
   50     -3.29796    0.00105
   51     -3.00730    0.00006
   52     -2.79455    0.00001
   53     -2.60945    0.00000
   54     -2.40678    0.00000
   55     -1.96839    0.00000
   56     -1.36701    0.00000
   57     -0.98112    0.00000
   58     -0.03101    0.00000
   59      0.48452    0.00000
   60      1.22650    0.00000
   61      1.29564    0.00000
   62      2.05747    0.00000
   63      2.17446    0.00000
   64      2.58812    0.00000
   65      3.37429    0.00000
   66      3.60449    0.00000
   67      4.10588    0.00000
   68      4.35283    0.00000
   69      4.83677    0.00000
   70      5.04259    0.00000
   71      5.29135    0.00000
   72      5.84463    0.00000
   73      6.05245    0.00000
   74      6.20622    0.00000
   75      6.80549    0.00000
   76      7.07208    0.00000
   77      7.43788    0.00000
   78      7.73863    0.00000
   79      8.03415    0.00000
   80      8.53526    0.00000
   81      8.72441    0.00000
   82      8.88396    0.00000
   83      8.96948    0.00000
   84      9.04709    0.00000
   85      9.16846    0.00000
   86      9.27511    0.00000
   87      9.42102    0.00000
   88      9.50873    0.00000
   89      9.56236    0.00000
   90      9.69187    0.00000
   91      9.81086    0.00000
   92      9.93176    0.00000
   93     10.11325    0.00000
   94     10.24821    0.00000
   95     10.28954    0.00000
   96     10.33197    0.00000
   97     10.41598    0.00000


Forces in eV/Ang:
  0 C     0.40613    0.45491    0.17203
  1 C     0.02617    0.38598   -0.02167
  2 C    -0.05448    0.30787    0.28644
  3 C    -0.15074   -0.01857   -0.06023
  4 C    -0.58024   -0.41037    0.39603
  5 C    -0.04525   -0.27683    0.31072
  6 C    -0.29869   -0.46149    0.12473
  7 C     0.17224   -0.30547    0.21374
  8 C    -0.65597   -0.45924    0.06558
  9 C    -0.52730   -0.55467   -1.09340
 10 C     0.01409    0.19228   -0.66263
 11 C     0.35589   -0.21667    0.19601
 12 C     0.03664    0.01834    0.18077
 13 C    -0.03667   -0.07317   -0.02514
 14 C    -0.03695    0.32758    0.13752
 15 C    -0.45663   -0.14543   -0.09429
 16 C     0.65877    0.28374   -0.21831
 17 C     0.52286    0.43823   -0.62554
 18 C    -0.06203   -0.20069    0.34531
 19 C     0.89972    0.46654    0.52200
 20 C    -0.05617    0.27919    0.19170
 21 C    -0.18851    0.22854   -0.01775
 22 C    -0.22670    0.53079    0.20639
 23 C     0.26453   -0.67009   -0.53472

System changes: positions 

Initializing position-dependent things.

Density initialized from wave functions
           .--------------------------------------.  
          /|                                      |  
         / |                                      |  
        /  |                                      |  
       /   |                                      |  
      /    |                                      |  
     /     |                                      |  
    /      |                                      |  
   /       |          C                           |  
  /        |   C  C     C                         |  
 *         |   C    C   C C   C  C                |  
 |         |       C     C      C                 |  
 |         .--C-C-----C-----C--C------------------.  
 |        /         C  C  C                      /   
 |       /     C C                              /    
 |      /                                      /     
 |     /                                      /      
 |    /                                      /       
 |   /                                      /        
 |  /                                      /         
 | /                                      /          
 |/                                      /           
 *--------------------------------------*            

Positions:
   0 C      3.488704    6.461212    5.238296
   1 C      4.734722    4.171678    4.909247
   2 C      4.586369    5.531219    5.255691
   3 C      5.739793    3.399007    4.946154
   4 C      3.604018    7.708930    5.742122
   5 C      7.018211    3.736169    5.400688
   6 C      5.933785    5.984664    5.759589
   7 C      7.110417    5.162414    5.791299
   8 C      8.256015    3.088488    5.590634
   9 C      9.640183    4.970965    5.966257
  10 C      8.401874    5.783623    6.041186
  11 C      9.332556    3.600740    5.983203
  12 C      5.994894   10.017550    6.329797
  13 C      7.153099    9.476082    6.299060
  14 C      4.706638    9.479973    6.292486
  15 C      7.354828    8.054064    6.215782
  16 C      4.880926    8.040927    6.317553
  17 C      6.057192    7.316779    6.237967
  18 C      8.531383    7.260969    5.997022
  19 C     10.744120    5.548898    5.338198
  20 C     11.018622    6.825107    5.310071
  21 C     11.085588    8.253226    5.401633
  22 C      9.840329    7.725225    5.649995
  23 C      3.341620    9.272911    5.858140

Unit cell:
           periodic     x           y           z      points  spacing
  1. axis:    yes   16.000000    0.000000    0.000000    80     0.2000
  2. axis:    yes    0.000000   16.000000    0.000000    80     0.2000
  3. axis:    yes    0.000000    0.000000   10.000000    48     0.2083

Effective grid spacing dv^(1/3) = 0.2027

                     log10-error:    total        iterations:
           time      wfs    density  energy       fermi  poisson
iter:   1  11:14:43          +inf  -182.776293    4      5      
iter:   2  11:14:44         -2.05  -182.731028    3      2      
iter:   3  11:14:45         -2.36  -182.725896    3      1      
iter:   4  11:14:45         -2.41  -182.716522    3      2      
iter:   5  11:14:46         -2.69  -182.715656    3      2      
iter:   6  11:14:47         -2.85  -182.715253    3      2      
iter:   7  11:14:47         -2.94  -182.714988    3      1      
iter:   8  11:14:48         -3.16  -182.713101    2      1      
iter:   9  11:14:49         -3.34  -182.712915    2      1      
iter:  10  11:14:49         -3.52  -182.714644    2      1      
iter:  11  11:14:50         -3.62  -182.714175    2      1      
iter:  12  11:14:51         -3.89  -182.714853    2      1      
iter:  13  11:14:51         -3.98  -182.715071    2      1      
iter:  14  11:14:52         -4.13  -182.715084    2      1      

Converged after 14 iterations.

Dipole moment: (0.264866, -0.290631, 0.168377) |e|*Ang

Energy contributions relative to reference atoms: (reference = -24663.074771)

Kinetic:       +115.048123
Potential:     -121.394922
External:        +0.000000
XC:            -179.226425
Entropy (-ST):   -0.270864
Local:           +2.993571
--------------------------
Free energy:   -182.850516
Extrapolated:  -182.715084

Fermi level: -4.01489

 Band  Eigenvalues  Occupancy
    0    -23.51280    2.00000
    1    -23.01593    2.00000
    2    -22.30533    2.00000
    3    -21.24490    2.00000
    4    -21.12117    2.00000
    5    -20.19406    2.00000
    6    -19.54337    2.00000
    7    -19.37674    2.00000
    8    -18.84720    2.00000
    9    -18.14662    2.00000
   10    -17.69226    2.00000
   11    -16.92940    2.00000
   12    -16.65536    2.00000
   13    -15.69378    2.00000
   14    -15.32518    2.00000
   15    -15.02806    2.00000
   16    -14.33329    2.00000
   17    -13.19472    2.00000
   18    -13.04029    2.00000
   19    -12.64883    2.00000
   20    -12.51309    2.00000
   21    -12.29239    2.00000
   22    -11.57205    2.00000
   23    -11.07665    2.00000
   24    -11.02726    2.00000
   25    -10.92463    2.00000
   26    -10.45263    2.00000
   27    -10.27765    2.00000
   28    -10.17205    2.00000
   29     -9.90591    2.00000
   30     -9.72318    2.00000
   31     -9.55868    2.00000
   32     -9.42338    2.00000
   33     -9.26554    2.00000
   34     -8.68458    2.00000
   35     -8.59277    2.00000
   36     -7.79470    2.00000
   37     -7.18927    2.00000
   38     -6.88434    2.00000
   39     -6.68152    2.00000
   40     -6.55282    2.00000
   41     -6.39427    2.00000
   42     -6.28404    2.00000
   43     -6.01590    2.00000
   44     -5.86072    2.00000
   45     -5.26669    1.99999
   46     -4.92695    1.99978
   47     -4.10015    1.40224
   48     -3.91025    0.51984
   49     -3.69168    0.07596
   50     -3.32838    0.00209
   51     -3.02325    0.00010
   52     -2.79407    0.00001
   53     -2.56810    0.00000
   54     -2.41255    0.00000
   55     -1.94365    0.00000
   56     -1.31069    0.00000
   57     -0.98074    0.00000
   58     -0.00437    0.00000
   59      0.51403    0.00000
   60      1.23252    0.00000
   61      1.37963    0.00000
   62      2.10591    0.00000
   63      2.29036    0.00000
   64      2.66795    0.00000
   65      3.37241    0.00000
   66      3.61951    0.00000
   67      4.16465    0.00000
   68      4.43566    0.00000
   69      4.81837    0.00000
   70      5.07966    0.00000
   71      5.34417    0.00000
   72      5.85385    0.00000
   73      6.05680    0.00000
   74      6.29447    0.00000
   75      6.80835    0.00000
   76      7.10378    0.00000
   77      7.48768    0.00000
   78      7.78712    0.00000
   79      8.05415    0.00000
   80      8.57284    0.00000
   81      8.74488    0.00000
   82      8.89791    0.00000
   83      8.97534    0.00000
   84      9.06510    0.00000
   85      9.20876    0.00000
   86      9.31038    0.00000
   87      9.42594    0.00000
   88      9.52812    0.00000
   89      9.56458    0.00000
   90      9.68359    0.00000
   91      9.79732    0.00000
   92      9.97539    0.00000
   93     10.14163    0.00000
   94     10.23499    0.00000
   95     10.31819    0.00000
   96     10.34617    0.00000
   97     10.45295    0.00000


Forces in eV/Ang:
  0 C     0.26913    0.24598    0.16804
  1 C     0.23488    0.09317   -0.04716
  2 C    -0.11044    0.26374    0.27436
  3 C    -0.44895    0.12673   -0.04974
  4 C    -0.62102   -0.52024    0.23838
  5 C    -0.09265   -0.26541    0.31331
  6 C    -0.28680   -0.32718   -0.05541
  7 C     0.09491   -0.17523    0.15113
  8 C    -0.15936   -0.27281    0.20172
  9 C    -0.38881   -0.39194   -0.79983
 10 C    -0.05645    0.15810   -0.50509
 11 C    -0.04020   -0.40024   -0.08414
 12 C    -0.03071    0.05688    0.14068
 13 C     0.02943   -0.09655   -0.01692
 14 C    -0.06601    0.21750    0.16255
 15 C    -0.19754   -0.07048   -0.06740
 16 C     0.56461    0.27578    0.00777
 17 C     0.74171    0.49215   -0.50703
 18 C    -0.02375   -0.28197    0.09510
 19 C     0.87292    0.46896    0.40837
 20 C    -0.05185    0.12000    0.17666
 21 C    -0.22653    0.30962   -0.01626
 22 C    -0.26921    0.43739    0.31642
 23 C     0.21928   -0.33047   -0.54498

System changes: positions 

Initializing position-dependent things.

Density initialized from wave functions
           .--------------------------------------.  
          /|                                      |  
         / |                                      |  
        /  |                                      |  
       /   |                                      |  
      /    |                                      |  
     /     |                                      |  
    /      |                                      |  
   /       |          C                           |  
  /        |   C  C     C                         |  
 *         |   C    C   C C   C  C                |  
 |         |       C     C      C                 |  
 |         .--C-C-----C-----C--C------------------.  
 |        /    C    C  C  C                      /   
 |       /       C                              /    
 |      /                                      /     
 |     /                                      /      
 |    /                                      /       
 |   /                                      /        
 |  /                                      /         
 | /                                      /          
[...]
Entropy (-ST):   -0.133310
Local:           +2.990447
--------------------------
Free energy:   -183.962933
Extrapolated:  -183.896278

Fermi level: -4.10173

 Band  Eigenvalues  Occupancy
    0    -23.49394    2.00000
    1    -23.30605    2.00000
    2    -22.31613    2.00000
    3    -21.28085    2.00000
    4    -21.19758    2.00000
    5    -20.24630    2.00000
    6    -19.56083    2.00000
    7    -19.34844    2.00000
    8    -18.88819    2.00000
    9    -18.23681    2.00000
   10    -17.71817    2.00000
   11    -16.99148    2.00000
   12    -16.52496    2.00000
   13    -15.75008    2.00000
   14    -15.40235    2.00000
   15    -15.11641    2.00000
   16    -14.32298    2.00000
   17    -13.14222    2.00000
   18    -13.07569    2.00000
   19    -12.73399    2.00000
   20    -12.50711    2.00000
   21    -12.44801    2.00000
   22    -11.49204    2.00000
   23    -11.15009    2.00000
   24    -11.08776    2.00000
   25    -10.86602    2.00000
   26    -10.51757    2.00000
   27    -10.45946    2.00000
   28    -10.15456    2.00000
   29     -9.96247    2.00000
   30     -9.75622    2.00000
   31     -9.60023    2.00000
   32     -9.50382    2.00000
   33     -9.32064    2.00000
   34     -8.65890    2.00000
   35     -8.52785    2.00000
   36     -7.78531    2.00000
   37     -7.21443    2.00000
   38     -6.83372    2.00000
   39     -6.76923    2.00000
   40     -6.51217    2.00000
   41     -6.37359    2.00000
   42     -6.26661    2.00000
   43     -6.03781    2.00000
   44     -5.95460    2.00000
   45     -5.44339    2.00000
   46     -4.94096    1.99955
   47     -4.31899    1.79552
   48     -3.88405    0.20370
   49     -3.35759    0.00117
   50     -3.02633    0.00004
   51     -2.91236    0.00001
   52     -2.61960    0.00000
   53     -2.50436    0.00000
   54     -2.38621    0.00000
   55     -2.04008    0.00000
   56     -1.38087    0.00000
   57     -0.99010    0.00000
   58     -0.05033    0.00000
   59      0.55787    0.00000
   60      0.89317    0.00000
   61      1.27431    0.00000
   62      1.81536    0.00000
   63      2.93334    0.00000
   64      2.95160    0.00000
   65      3.72231    0.00000
   66      3.89930    0.00000
   67      4.25789    0.00000
   68      4.62776    0.00000
   69      4.77354    0.00000
   70      5.41872    0.00000
   71      5.86076    0.00000
   72      5.89754    0.00000
   73      6.21191    0.00000
   74      6.32175    0.00000
   75      6.66312    0.00000
   76      7.01895    0.00000
   77      7.13828    0.00000
   78      7.90616    0.00000
   79      8.09151    0.00000
   80      8.21083    0.00000
   81      8.59921    0.00000
   82      8.87459    0.00000
   83      8.96342    0.00000
   84      9.00818    0.00000
   85      9.18830    0.00000
   86      9.32326    0.00000
   87      9.38764    0.00000
   88      9.51070    0.00000
   89      9.53881    0.00000
   90      9.63393    0.00000
   91      9.70578    0.00000
   92      9.92651    0.00000
   93     10.11502    0.00000
   94     10.16995    0.00000
   95     10.25172    0.00000
   96     10.31563    0.00000
   97     10.53377    0.00000


Forces in eV/Ang:
  0 C     0.00299   -0.03771   -0.00877
  1 C    -0.03651   -0.02232    0.01361
  2 C    -0.03260   -0.01875    0.04975
  3 C    -0.08407   -0.00269    0.01836
  4 C    -0.06482   -0.04933    0.01392
  5 C     0.00006    0.02177    0.01779
  6 C    -0.08568   -0.05293   -0.01727
  7 C    -0.02037    0.03793    0.01205
  8 C     0.00161   -0.01282   -0.04008
  9 C    -0.01222   -0.03048    0.00090
 10 C    -0.01482    0.05988    0.00379
 11 C     0.05661   -0.04450   -0.06382
 12 C    -0.02876    0.00711    0.00518
 13 C     0.00063    0.01016   -0.06296
 14 C    -0.01375    0.03009   -0.03156
 15 C    -0.01548    0.00796    0.02951
 16 C     0.02015    0.00762   -0.02673
 17 C     0.06344    0.04130   -0.02347
 18 C     0.00981    0.00231   -0.00084
 19 C     0.05989    0.01025   -0.03531
 20 C    -0.01915   -0.05951    0.02691
 21 C     0.03797    0.02432    0.03448
 22 C     0.02715    0.01492    0.06027
 23 C     0.02702    0.00591   -0.00111

System changes: positions 

Initializing position-dependent things.

Density initialized from wave functions
           .--------------------------------------.  
          /|                                      |  
         / |                                      |  
        /  |                                      |  
       /   |                                      |  
      /    |                                      |  
     /     |                                      |  
    /      |                                      |  
   /       |       C  C C                         |  
  /        |      C                               |  
 *         |   CC   C   C C   C  C                |  
 |         |       C           CC                 |  
 |         .-C-C-----C---C--C---------------------.  
 |        /    C    C     C                      /   
 |       /       C     C                        /    
 |      /                                      /     
 |     /                                      /      
 |    /                                      /       
 |   /                                      /        
 |  /                                      /         
 | /                                      /          
 |/                                      /           
 *--------------------------------------*            

Positions:
   0 C      3.451086    6.449522    5.329700
   1 C      4.621861    4.114859    5.204833
   2 C      4.510331    5.512129    5.395415
   3 C      5.594318    3.311216    5.228638
   4 C      3.598650    7.694517    5.817510
   5 C      6.945007    3.679872    5.403675
   6 C      5.911251    5.989025    5.653104
   7 C      7.086207    5.144403    5.604530
   8 C      8.198151    3.049960    5.487826
   9 C      9.644321    4.963530    5.711603
  10 C      8.387020    5.766693    5.741508
  11 C      9.325118    3.601211    5.622624
  12 C      6.076167   10.028650    6.404956
  13 C      7.202749    9.440441    6.356007
  14 C      4.764998    9.527042    6.369096
  15 C      7.347618    8.021011    6.139259
  16 C      4.886542    8.061110    6.384477
  17 C      6.065472    7.347772    6.051062
  18 C      8.499303    7.220252    5.906326
  19 C     10.861024    5.678785    5.805400
  20 C     11.060698    6.945496    5.618398
  21 C     10.975580    8.380630    5.417471
  22 C      9.789667    7.793294    5.739210
  23 C      3.693995    9.171308    5.480141

Unit cell:
           periodic     x           y           z      points  spacing
  1. axis:    yes   16.000000    0.000000    0.000000    80     0.2000
  2. axis:    yes    0.000000   16.000000    0.000000    80     0.2000
  3. axis:    yes    0.000000    0.000000   10.000000    48     0.2083

Effective grid spacing dv^(1/3) = 0.2027

                     log10-error:    total        iterations:
           time      wfs    density  energy       fermi  poisson
iter:   1  11:19:24          +inf  -183.897641    2      5      
iter:   2  11:19:24         -2.83  -183.898299    2      1      
iter:   3  11:19:25         -2.89  -183.900301    2      1      
iter:   4  11:19:26         -3.08  -183.899837    2      1      
iter:   5  11:19:26         -3.20  -183.899976    2      1      
iter:   6  11:19:27         -3.51  -183.900054    2      1      
iter:   7  11:19:28         -3.50  -183.896738    2      1      
iter:   8  11:19:28         -3.86  -183.897233    2      1      
iter:   9  11:19:29         -3.94  -183.897800    2      1      
iter:  10  11:19:29         -3.98  -183.897307    1      1      
iter:  11  11:19:30         -4.22  -183.897341    2      1      

Converged after 11 iterations.

Dipole moment: (0.199041, -0.170892, 0.208578) |e|*Ang

Energy contributions relative to reference atoms: (reference = -24663.074771)

Kinetic:       +115.598916
Potential:     -122.315024
External:        +0.000000
XC:            -180.095848
Entropy (-ST):   -0.137323
Local:           +2.983276
--------------------------
Free energy:   -183.966002
Extrapolated:  -183.897341

Fermi level: -4.10484

 Band  Eigenvalues  Occupancy
    0    -23.49104    2.00000
    1    -23.31184    2.00000
    2    -22.31459    2.00000
    3    -21.28013    2.00000
    4    -21.19566    2.00000
    5    -20.24430    2.00000
    6    -19.56011    2.00000
    7    -19.34459    2.00000
    8    -18.88647    2.00000
    9    -18.23840    2.00000
   10    -17.71689    2.00000
   11    -16.99111    2.00000
   12    -16.52846    2.00000
   13    -15.74234    2.00000
   14    -15.39956    2.00000
   15    -15.11963    2.00000
   16    -14.32552    2.00000
   17    -13.13476    2.00000
   18    -13.05774    2.00000
   19    -12.73025    2.00000
   20    -12.51012    2.00000
   21    -12.45095    2.00000
   22    -11.49772    2.00000
   23    -11.13596    2.00000
   24    -11.08696    2.00000
   25    -10.86272    2.00000
   26    -10.52112    2.00000
   27    -10.44726    2.00000
   28    -10.16252    2.00000
   29     -9.96973    2.00000
   30     -9.74337    2.00000
   31     -9.60303    2.00000
   32     -9.50695    2.00000
   33     -9.31305    2.00000
   34     -8.65623    2.00000
   35     -8.52869    2.00000
   36     -7.78402    2.00000
   37     -7.21536    2.00000
   38     -6.83653    2.00000
   39     -6.77485    2.00000
   40     -6.50764    2.00000
   41     -6.37380    2.00000
   42     -6.26790    2.00000
   43     -6.04289    2.00000
   44     -5.95624    2.00000
   45     -5.44856    2.00000
   46     -4.95013    1.99957
   47     -4.31709    1.78614
   48     -3.89217    0.21305
   49     -3.36152    0.00118
   50     -3.02851    0.00004
   51     -2.91792    0.00001
   52     -2.61632    0.00000
   53     -2.49075    0.00000
   54     -2.38935    0.00000
   55     -2.04360    0.00000
   56     -1.38386    0.00000
   57     -0.99536    0.00000
   58     -0.04680    0.00000
   59      0.55036    0.00000
   60      0.87910    0.00000
   61      1.25352    0.00000
   62      1.85128    0.00000
   63      2.93058    0.00000
   64      2.93846    0.00000
   65      3.70908    0.00000
   66      3.89481    0.00000
   67      4.25939    0.00000
   68      4.61126    0.00000
   69      4.76318    0.00000
   70      5.40366    0.00000
   71      5.85793    0.00000
   72      5.89577    0.00000
   73      6.19844    0.00000
   74      6.31471    0.00000
   75      6.64793    0.00000
   76      7.02214    0.00000
   77      7.13552    0.00000
   78      7.90890    0.00000
   79      8.06441    0.00000
   80      8.19578    0.00000
   81      8.59803    0.00000
   82      8.87216    0.00000
   83      8.96513    0.00000
   84      9.01105    0.00000
   85      9.18329    0.00000
   86      9.31939    0.00000
   87      9.38568    0.00000
   88      9.50567    0.00000
   89      9.53902    0.00000
   90      9.63133    0.00000
   91      9.70615    0.00000
   92      9.91540    0.00000
   93     10.10599    0.00000
   94     10.16614    0.00000
   95     10.26140    0.00000
   96     10.31452    0.00000
   97     10.53210    0.00000


Forces in eV/Ang:
  0 C     0.02773   -0.03673   -0.00275
  1 C    -0.09664   -0.00697   -0.01641
  2 C    -0.00794   -0.01126    0.00300
  3 C    -0.00588   -0.00016    0.01102
  4 C    -0.01694   -0.10173    0.04093
  5 C    -0.08186   -0.03742    0.04823
  6 C    -0.09690   -0.03118    0.02117
  7 C     0.01246    0.04062   -0.02578
  8 C     0.00378    0.03299   -0.08871
  9 C     0.02646   -0.03041    0.01149
 10 C     0.04863    0.08844   -0.00569
 11 C     0.03276   -0.03560   -0.00659
 12 C    -0.00902   -0.04405   -0.04776
 13 C    -0.03463    0.00112   -0.05334
 14 C     0.00023    0.04005   -0.04340
 15 C    -0.02758    0.02481   -0.00970
 16 C     0.00192   -0.00142   -0.04441
 17 C     0.05444    0.03781    0.03524
 18 C     0.02115    0.03157    0.03020
 19 C     0.00233   -0.00903   -0.03170
 20 C     0.02511   -0.02925   -0.01432
 21 C    -0.02099   -0.05727    0.06142
 22 C     0.05828    0.05614    0.07150
 23 C     0.05686    0.01891    0.04233

System changes: positions 

Initializing position-dependent things.

Density initialized from wave functions
           .--------------------------------------.  
          /|                                      |  
         / |                                      |  
        /  |                                      |  
       /   |                                      |  
      /    |                                      |  
     /     |                                      |  
    /      |                                      |  
   /       |       C  C C                         |  
  /        |      C                               |  
 *         |   CC   C   C C   C  C                |  
 |         |       C           CC                 |  
 |         .-C-C-----C---C--C---------------------.  
 |        /    C    C     C                      /   
 |       /       C     C                        /    
 |      /                                      /     
 |     /                                      /      
 |    /                                      /       
 |   /                                      /        
 |  /                                      /         
 | /                                      /          
 |/                                      /           
 *--------------------------------------*            

Positions:
   0 C      3.452536    6.449881    5.329125
   1 C      4.619165    4.113232    5.209542
   2 C      4.509466    5.510854    5.398143
   3 C      5.593066    3.310726    5.231442
   4 C      3.598071    7.694019    5.817577
   5 C      6.943887    3.679491    5.402635
   6 C      5.909469    5.988033    5.653956
   7 C      7.085566    5.144849    5.603534
   8 C      8.198734    3.050796    5.482088
   9 C      9.644548    4.963294    5.710608
  10 C      8.387290    5.767807    5.739398
  11 C      9.325852    3.600795    5.620624
  12 C      6.076450   10.028271    6.405105
  13 C      7.202682    9.440296    6.355272
  14 C      4.765502    9.527786    6.367555
  15 C      7.347650    8.020837    6.139902
  16 C      4.886975    8.061701    6.382060
  17 C      6.065904    7.347626    6.050738
  18 C      8.499610    7.221027    5.905503
  19 C     10.861554    5.678438    5.808082
  20 C     11.060165    6.944995    5.620661
  21 C     10.976895    8.380292    5.419584
  22 C      9.790447    7.794679    5.739512
  23 C      3.695002    9.171620    5.480076

Unit cell:
           periodic     x           y           z      points  spacing
  1. axis:    yes   16.000000    0.000000    0.000000    80     0.2000
  2. axis:    yes    0.000000   16.000000    0.000000    80     0.2000
  3. axis:    yes    0.000000    0.000000   10.000000    48     0.2083

Effective grid spacing dv^(1/3) = 0.2027

                     log10-error:    total        iterations:
           time      wfs    density  energy       fermi  poisson
iter:   1  11:19:32          +inf  -183.899243    2      4      
iter:   2  11:19:33         -3.12  -183.899339    2      1      
iter:   3  11:19:34         -3.32  -183.899534    2      1      
iter:   4  11:19:34         -3.47  -183.899186    1      1      
iter:   5  11:19:35         -3.66  -183.899472    2      1      
iter:   6  11:19:36         -3.53  -183.899422    2      1      
iter:   7  11:19:36         -3.69  -183.899143    2      1      
iter:   8  11:19:37         -3.59  -183.899282    2      1      
iter:   9  11:19:38         -4.41  -183.899472    1      1      

Converged after 9 iterations.

Dipole moment: (0.193428, -0.170478, 0.207691) |e|*Ang

Energy contributions relative to reference atoms: (reference = -24663.074771)

Kinetic:       +115.556234
Potential:     -122.280151
External:        +0.000000
XC:            -180.096722
Entropy (-ST):   -0.136323
Local:           +2.989328
--------------------------
Free energy:   -183.967634
Extrapolated:  -183.899472

Fermi level: -4.10346

 Band  Eigenvalues  Occupancy
    0    -23.49053    2.00000
    1    -23.31495    2.00000
    2    -22.31073    2.00000
    3    -21.28042    2.00000
    4    -21.19481    2.00000
    5    -20.24505    2.00000
    6    -19.55942    2.00000
    7    -19.34373    2.00000
    8    -18.88580    2.00000
    9    -18.23832    2.00000
   10    -17.71861    2.00000
   11    -16.98978    2.00000
   12    -16.52792    2.00000
   13    -15.74132    2.00000
   14    -15.40037    2.00000
   15    -15.12066    2.00000
   16    -14.32148    2.00000
   17    -13.13371    2.00000
   18    -13.05812    2.00000
   19    -12.72851    2.00000
   20    -12.51247    2.00000
   21    -12.45002    2.00000
   22    -11.49420    2.00000
   23    -11.13740    2.00000
   24    -11.08721    2.00000
   25    -10.86200    2.00000
   26    -10.52611    2.00000
   27    -10.45002    2.00000
   28    -10.16503    2.00000
   29     -9.96766    2.00000
   30     -9.74094    2.00000
   31     -9.60406    2.00000
   32     -9.50083    2.00000
   33     -9.31166    2.00000
   34     -8.65663    2.00000
   35     -8.52934    2.00000
   36     -7.78481    2.00000
   37     -7.21435    2.00000
   38     -6.83700    2.00000
   39     -6.77464    2.00000
   40     -6.50727    2.00000
   41     -6.37377    2.00000
   42     -6.26942    2.00000
   43     -6.04061    2.00000
   44     -5.95821    2.00000
   45     -5.44831    2.00000
   46     -4.95022    1.99958
   47     -4.31692    1.78845
   48     -3.88957    0.21075
   49     -3.35883    0.00117
   50     -3.02855    0.00004
   51     -2.91661    0.00001
   52     -2.61283    0.00000
   53     -2.49035    0.00000
   54     -2.38860    0.00000
   55     -2.04201    0.00000
   56     -1.38150    0.00000
   57     -0.99466    0.00000
   58     -0.04623    0.00000
   59      0.55067    0.00000
   60      0.88192    0.00000
   61      1.25624    0.00000
   62      1.85895    0.00000
   63      2.93070    0.00000
   64      2.93546    0.00000
   65      3.70375    0.00000
   66      3.89226    0.00000
   67      4.26103    0.00000
   68      4.61162    0.00000
   69      4.76524    0.00000
   70      5.40326    0.00000
   71      5.85344    0.00000
   72      5.89781    0.00000
   73      6.19992    0.00000
   74      6.30144    0.00000
   75      6.64532    0.00000
   76      7.01632    0.00000
   77      7.14198    0.00000
   78      7.91585    0.00000
   79      8.06242    0.00000
   80      8.19702    0.00000
   81      8.60029    0.00000
   82      8.86942    0.00000
   83      8.96318    0.00000
   84      9.01271    0.00000
   85      9.18601    0.00000
   86      9.32041    0.00000
   87      9.38462    0.00000
   88      9.50488    0.00000
   89      9.53939    0.00000
   90      9.62997    0.00000
   91      9.70645    0.00000
   92      9.91648    0.00000
   93     10.10760    0.00000
   94     10.16666    0.00000
   95     10.26157    0.00000
   96     10.31540    0.00000
   97     10.53138    0.00000


Forces in eV/Ang:
  0 C     0.00397   -0.04610    0.00179
  1 C    -0.07238   -0.03768   -0.02028
  2 C    -0.01760   -0.01413   -0.00228
  3 C    -0.02905    0.01588    0.01326
  4 C     0.01187   -0.06282    0.04461
  5 C    -0.03230   -0.02493    0.05422
  6 C    -0.03419   -0.00416    0.02560
  7 C     0.01996    0.02538   -0.02393
  8 C    -0.02759    0.04261   -0.06610
  9 C     0.02483   -0.00686    0.01374
 10 C     0.03930    0.04801   -0.00342
 11 C     0.02290   -0.02885   -0.00426
 12 C    -0.01208   -0.01738   -0.05067
 13 C    -0.01350    0.00182   -0.04247
 14 C    -0.00043    0.02413   -0.02718
 15 C    -0.01396    0.01669   -0.02403
 16 C    -0.01045    0.00403   -0.02598
 17 C     0.01992    0.02287    0.02889
 18 C     0.02689    0.03520    0.03692
 19 C    -0.00947   -0.02211   -0.03476
 20 C     0.04537   -0.01521   -0.01608
 21 C    -0.00316   -0.04785    0.05332
 22 C     0.01865    0.03274    0.08289
 23 C     0.02282    0.00896    0.03265

