
  ___ ___ ___ _ _ _  
 |   |   |_  | | | | 
 | | | | | . | | | | 
 |__ |  _|___|_____|  1.3.0b1
 |___|_|             

User:   esb@s65n62.grendel.cscaa.dk
Date:   Wed Nov  8 15:13:06 2017
Arch:   x86_64
Pid:    41723
Python: 2.7.13
gpaw:   /home/esb/DFT/gpaw_git/gpaw
_gpaw:  /home/esb/DFT/gpaw_git/build/bin.linux-x86_64-2.7/gpaw-python
ase:    /home/esb/DFT/ase_git/ase (version 3.15.0b1)
numpy:  /comm/swstack/core/python/2.7.13/lib/python2.7/site-packages/numpy (version 1.13.3)
scipy:  /comm/swstack/core/python/2.7.13/lib/python2.7/site-packages/scipy (version 0.19.1)
units:  Angstrom and eV
cores:  16
Extra parameters: {'blacs': True}

Input parameters:
  basis: dzp
  gpts: [80 80 48]
  kpts: [1 1 1]
  maxiter: 99
  mixer: {backend: pulay,
          beta: 0.05,
          method: separate,
          nmaxold: 5,
          weight: 75}
  mode: lcao
  nbands: -50
  occupations: {name: fermi-dirac,
                width: 0.1}
  poissonsolver: {eps: 1e-07,
                  name: fd,
                  nn: 3,
                  relax: GS}
  xc: PBE

System changes: positions, numbers, cell, pbc, initial_charges, initial_magmoms 

Initialize ...

C-setup:
  name: Carbon
  id: 4aa54d4b901d75f77cc0ea3eec22967b
  Z: 6
  valence: 4
  core: 2
  charge: 0.0
  file: /home/esb/DFT/gpaw-setups-0.8.7929/C.PBE.gz
  cutoffs: 0.64(comp), 1.14(filt), 1.14(core), lmax=2
  valence states:
                energy  radius
    2s(2.00)   -13.751   0.635
    2p(2.00)    -5.284   0.635
    *s          13.461   0.635
    *p          21.927   0.635
    *d           0.000   0.635

  LCAO basis set for C:
    Name: dzp
    File: /home/esb/DFT/gpaw-setups-0.8.7929/C.dzp.basis.gz
    Number of radial functions: 5
    Number of spherical harmonics: 13
      l=0, rc=5.5469 Bohr: 2s-sz confined orbital
      l=1, rc=6.6719 Bohr: 2p-sz confined orbital
      l=0, rc=3.0312 Bohr: 2s-dz split-valence wave
      l=1, rc=3.7500 Bohr: 2p-dz split-valence wave
      l=2, rc=6.6719 Bohr: d-type Gaussian polarization

Reference energy: -24663.074771

Spin-paired calculation

Occupation numbers:
  Fermi-Dirac: width=0.1000 eV

Convergence criteria:
  Maximum total energy change: 0.0005 eV / electron
  Maximum integral of absolute density change: 0.0001 electrons
  Maximum integral of absolute eigenstate change: 4e-08 eV^2
  Maximum number of iterations: 99

Symmetries present (total): 1

  ( 1  0  0)
  ( 0  1  0)
  ( 0  0  1)

1 k-point (Gamma)
1 k-point in the irreducible part of the Brillouin zone
       k-points in crystal coordinates                weights
   0:     0.00000000    0.00000000    0.00000000          1/1

Wave functions: LCAO
  Diagonalizer: Serial LAPACK
  Atomic Correction: dense with blas
  Datatype: float
  Eigensolver: None 

LCAO using direct dense diagonalizer 

Densities:
  Coarse grid: 80*80*48 grid
  Fine grid: 160*160*96 grid
  Total Charge: 0.000000 

Density mixing:
  Method: separate
  Backend: pulay
  Linear mixing parameter: 0.05
  Mixing with 5 old densities
  Damping of long wave oscillations: 75 

Hamiltonian:
  XC and Coulomb potentials evaluated on a 160*160*96 grid
  Using the PBE Exchange-Correlation functional
  Interpolation: tri-quintic (5. degree polynomial)
  Poisson solver: Gauss-Seidel solver with 6 multi-grid levels
    Coarsest grid: 5 x 5 x 3 points
    Stencil: 6*3+1=19 point O(h^6) finite-difference Laplacian
    Max iterations: 1000
    Tolerance: 1.000000e-07 

Memory estimate:
  Process memory now: 77.59 MiB
  Calculator: 15.59 MiB
    Density: 6.13 MiB
      Arrays: 3.81 MiB
      Localized functions: 0.86 MiB
      Mixer: 1.46 MiB
    Hamiltonian: 5.40 MiB
      Arrays: 2.49 MiB
      XC: 0.00 MiB
      Poisson: 2.85 MiB
      vbar: 0.07 MiB
    Wavefunctions: 4.05 MiB
      C [qnM]: 0.23 MiB
      S, T [2 x qmm]: 1.49 MiB
      P [aqMi]: 0.01 MiB
      TCI: 0.00 MiB
      BasisFunctions: 2.33 MiB
      Eigensolver: 0.00 MiB

Total number of cores used: 16
Domain decomposition: 2 x 4 x 2

Number of atoms: 24
Number of atomic orbitals: 312
Number of bands in calculation: 98
Bands to converge: occupied states only
Number of valence electrons: 96

... initialized

Initializing position-dependent things.

Density initialized from atomic densities
           .--------------------------------------.  
          /|                                      |  
         / |                                      |  
        /  |                                      |  
       /   |                                      |  
      /    |                                      |  
     /     |                                      |  
    /      |                                      |  
   /       |                                      |  
  /        |        C  C     C   C                |  
 *         |  C  C        C    C                  |  
 |         | C            CCCC                    |  
 |         .-C-------C--CC------------------------.  
 |        /     CCC C                            /   
 |       /                                      /    
 |      /                                      /     
 |     /                                      /      
 |    /                                      /       
 |   /                                      /        
 |  /                                      /         
 | /                                      /          
 |/                                      /           
 *--------------------------------------*            

Positions:
   0 C      4.020475    9.233331    5.424068
   1 C      3.321391    8.181232    5.451071
   2 C      5.126119   10.011067    5.330030
   3 C      3.130963    6.847976    5.319013
   4 C      6.301023   10.443037    5.223881
   5 C      3.494879    5.646947    5.157590
   6 C      7.695759   10.379813    4.989030
   7 C      8.751582   11.266791    5.208853
   8 C      7.277075    7.948014    4.297466
   9 C      4.763503    5.073603    4.772189
  10 C      5.650033    5.950698    4.196641
  11 C      8.154275    8.995749    4.521513
  12 C      9.484119    4.624706    6.728233
  13 C      8.564716    3.758448    6.702646
  14 C     10.106669    5.809935    6.518881
  15 C      7.353456    3.286271    6.326918
  16 C     10.393585    6.990930    6.200771
  17 C      6.203688    3.362046    5.804179
  18 C     10.214080    8.255589    5.590150
  19 C     10.862637    9.486100    5.712759
  20 C      8.135802    7.223671    4.502444
  21 C      5.594714    4.372470    4.970598
  22 C      6.470714    5.258447    4.392536
  23 C      8.959955    8.316152    4.713828

Unit cell:
           periodic     x           y           z      points  spacing
  1. axis:    yes   16.000000    0.000000    0.000000    80     0.2000
  2. axis:    yes    0.000000   16.000000    0.000000    80     0.2000
  3. axis:    yes    0.000000    0.000000   10.000000    48     0.2083

Effective grid spacing dv^(1/3) = 0.2027

                     log10-error:    total        iterations:
           time      wfs    density  energy       fermi  poisson
iter:   1  15:13:08          +inf  -163.677238    2      6      
iter:   2  15:13:08         -0.85  -161.919234    30     3      
iter:   3  15:13:09         -0.88  -158.020264    32     3      
iter:   4  15:13:10         -1.00  -155.837393    34     3      
iter:   5  15:13:10         -1.20  -155.570502    33     3      
iter:   6  15:13:11         -1.37  -155.415122    32     3      
iter:   7  15:13:11         -1.47  -155.145164    4      3      
iter:   8  15:13:12         -1.73  -155.165965    2      3      
iter:   9  15:13:12         -1.83  -155.136253    3      3      
iter:  10  15:13:13         -2.08  -155.124201    3      2      
iter:  11  15:13:13         -2.21  -155.105169    3      2      
iter:  12  15:13:14         -2.53  -155.108755    3      2      
iter:  13  15:13:15         -2.66  -155.106280    3      2      
iter:  14  15:13:15         -2.77  -155.103930    2      2      
iter:  15  15:13:16         -2.83  -155.099223    3      2      
iter:  16  15:13:16         -3.03  -155.098606    2      1      
iter:  17  15:13:17         -3.16  -155.102002    2      2      
iter:  18  15:13:17         -3.45  -155.101775    2      1      
iter:  19  15:13:18         -3.53  -155.100167    2      1      
iter:  20  15:13:18         -3.80  -155.102043    2      1      
iter:  21  15:13:19         -3.84  -155.103039    2      1      
iter:  22  15:13:19         -3.93  -155.101463    2      1      
iter:  23  15:13:20         -4.07  -155.102076    2      1      

Converged after 23 iterations.

Dipole moment: (-0.386565, -0.467379, -0.015765) |e|*Ang

Energy contributions relative to reference atoms: (reference = -24663.074771)

Kinetic:       +244.183204
Potential:     -210.968568
External:        +0.000000
XC:            -191.330576
Entropy (-ST):   -0.275945
Local:           +3.151837
--------------------------
Free energy:   -155.240048
Extrapolated:  -155.102076

Fermi level: -4.49471

 Band  Eigenvalues  Occupancy
    0    -26.61893    2.00000
    1    -26.48628    2.00000
    2    -20.61673    2.00000
    3    -20.57512    2.00000
    4    -20.22382    2.00000
    5    -20.20478    2.00000
    6    -19.41202    2.00000
    7    -19.32850    2.00000
    8    -18.42161    2.00000
    9    -18.17165    2.00000
   10    -17.73712    2.00000
   11    -16.94870    2.00000
   12    -16.57821    2.00000
   13    -16.10598    2.00000
   14    -15.45095    2.00000
   15    -15.00913    2.00000
   16    -14.81500    2.00000
   17    -13.88041    2.00000
   18    -13.83588    2.00000
   19    -13.23328    2.00000
   20    -13.00679    2.00000
   21    -12.66471    2.00000
   22    -12.20909    2.00000
   23    -11.85806    2.00000
   24    -11.71343    2.00000
   25    -11.39771    2.00000
   26    -10.49893    2.00000
   27    -10.19334    2.00000
   28     -9.13069    2.00000
   29     -9.02443    2.00000
   30     -8.92163    2.00000
   31     -8.89885    2.00000
   32     -8.34097    2.00000
   33     -8.14175    2.00000
   34     -7.57834    2.00000
   35     -7.55520    2.00000
   36     -7.25774    2.00000
   37     -7.16950    2.00000
   38     -7.09298    2.00000
   39     -6.68046    2.00000
   40     -6.30019    2.00000
   41     -5.93823    2.00000
   42     -5.73792    1.99999
   43     -5.55903    1.99995
   44     -5.45278    1.99986
   45     -5.15106    1.99718
   46     -5.08963    1.99480
   47     -4.57590    1.38502
   48     -4.40034    0.56031
   49     -4.15193    0.06288
   50     -3.18237    0.00000
   51     -3.01577    0.00000
   52     -2.88147    0.00000
   53     -2.44971    0.00000
   54     -2.42556    0.00000
   55     -2.16551    0.00000
   56     -1.69569    0.00000
   57     -1.03657    0.00000
   58     -0.93023    0.00000
   59     -0.47391    0.00000
   60     -0.40555    0.00000
   61      0.20192    0.00000
   62      0.29598    0.00000
   63      0.39245    0.00000
   64      1.97655    0.00000
   65      2.04879    0.00000
   66      3.48822    0.00000
   67      3.76240    0.00000
   68      4.51169    0.00000
   69      4.97334    0.00000
   70      5.00427    0.00000
   71      5.31028    0.00000
   72      5.88634    0.00000
   73      6.35458    0.00000
   74      6.37108    0.00000
   75      7.27963    0.00000
   76      7.38749    0.00000
   77      7.52435    0.00000
   78      7.70526    0.00000
   79      7.75870    0.00000
   80      8.06296    0.00000
   81      8.24355    0.00000
   82      8.81708    0.00000
   83      8.90002    0.00000
   84      9.04324    0.00000
   85      9.30848    0.00000
   86      9.36121    0.00000
   87      9.40542    0.00000
   88      9.42927    0.00000
   89      9.67844    0.00000
   90      9.74883    0.00000
   91      9.87489    0.00000
   92     10.01445    0.00000
   93     10.05660    0.00000
   94     10.08002    0.00000
   95     10.18692    0.00000
   96     10.33332    0.00000
   97     10.50219    0.00000


Forces in eV/Ang:
  0 C     0.14954    0.14454    0.07103
  1 C    -0.14978   -0.32506   -0.15047
  2 C     0.00421   -0.14553    0.00602
  3 C     0.02254    0.32619    0.22126
  4 C     0.12730    0.11384   -0.07420
  5 C     0.21989   -0.59541    0.07116
  6 C     1.00419    0.54027    0.15932
  7 C    -0.68770   -0.95270   -0.24189
  8 C   -17.27764    4.82297   -4.80466
  9 C   -28.90920   14.18599   -1.41235
 10 C   -12.76910   20.87670   -8.60624
 11 C   -22.14399   28.83949   -4.39151
 12 C     0.09000    0.18851    0.04191
 13 C    -0.22143   -0.21908   -0.14343
 14 C    -0.15279   -0.02610   -0.03973
 15 C     0.20894    0.08521    0.25089
 16 C     0.11463    0.13702   -0.06925
 17 C    -0.63669    0.09347   -0.14909
 18 C     0.32257    1.07774   -0.01213
 19 C    -0.73479   -0.90262   -0.25245
 20 C     8.16914  -16.66207    1.26749
 21 C    17.69179  -25.12410    9.69827
 22 C    23.91317  -10.06351    0.11979
 23 C    31.59119  -16.47123    8.44459

System changes: positions 

Initializing position-dependent things.

Density initialized from wave functions
           .--------------------------------------.  
          /|                                      |  
         / |                                      |  
        /  |                                      |  
       /   |                                      |  
      /    |                                      |  
     /     |                                      |  
    /      |                                      |  
   /       |                                      |  
  /        |        C  C     C   C                |  
 *         |  C  C        C    C                  |  
 |         | C            CCCC                    |  
 |         .-C-------C--CC------------------------.  
 |        /     CCC C                            /   
 |       /                                      /    
 |      /                                      /     
 |     /                                      /      
 |    /                                      /       
 |   /                                      /        
 |  /                                      /         
 | /                                      /          
 |/                                      /           
 *--------------------------------------*            

Positions:
   0 C      4.020638    9.233489    5.424146
   1 C      3.321227    8.180877    5.450906
   2 C      5.126124   10.010908    5.330037
   3 C      3.130988    6.848332    5.319255
   4 C      6.301162   10.443161    5.223800
   5 C      3.495119    5.646296    5.157668
   6 C      7.696856   10.380403    4.989204
   7 C      8.750831   11.265751    5.208588
   8 C      7.258205    7.953281    4.292219
   9 C      4.731930    5.089097    4.770646
  10 C      5.636087    5.973499    4.187241
  11 C      8.130090    9.027247    4.516717
  12 C      9.484217    4.624912    6.728279
  13 C      8.564474    3.758208    6.702490
  14 C     10.106502    5.809907    6.518838
  15 C      7.353684    3.286364    6.327192
  16 C     10.393710    6.991080    6.200695
  17 C      6.202992    3.362148    5.804017
  18 C     10.214433    8.256767    5.590137
  19 C     10.861835    9.485114    5.712483
  20 C      8.144724    7.205473    4.503828
  21 C      5.614037    4.345031    4.981190
  22 C      6.496831    5.247456    4.392667
  23 C      8.994457    8.298163    4.723051

Unit cell:
           periodic     x           y           z      points  spacing
  1. axis:    yes   16.000000    0.000000    0.000000    80     0.2000
  2. axis:    yes    0.000000   16.000000    0.000000    80     0.2000
  3. axis:    yes    0.000000    0.000000   10.000000    48     0.2083

Effective grid spacing dv^(1/3) = 0.2027

                     log10-error:    total        iterations:
           time      wfs    density  energy       fermi  poisson
iter:   1  15:13:21          +inf  -161.598844    4      5      
iter:   2  15:13:22         -1.63  -161.361651    3      2      
iter:   3  15:13:22         -1.77  -161.255044    3      2      
iter:   4  15:13:23         -1.87  -161.227735    2      2      
iter:   5  15:13:23         -2.00  -161.193868    3      3      
iter:   6  15:13:24         -2.11  -161.178110    3      2      
iter:   7  15:13:25         -2.36  -161.166598    3      3      
iter:   8  15:13:25         -2.60  -161.165223    2      2      
iter:   9  15:13:26         -2.84  -161.165449    2      2      
iter:  10  15:13:26         -3.10  -161.164703    2      1      
iter:  11  15:13:27         -3.18  -161.164999    2      1      
iter:  12  15:13:27         -3.35  -161.167692    2      1      
iter:  13  15:13:28         -3.54  -161.165385    2      1      
iter:  14  15:13:28         -3.59  -161.163652    2      1      
iter:  15  15:13:29         -3.72  -161.163959    2      1      
iter:  16  15:13:29         -3.90  -161.164581    2      1      
iter:  17  15:13:30         -4.09  -161.164998    2      1      

Converged after 17 iterations.

Dipole moment: (-0.401910, -0.476961, 0.025623) |e|*Ang

Energy contributions relative to reference atoms: (reference = -24663.074771)

Kinetic:       +209.870986
Potential:     -187.953873
External:        +0.000000
XC:            -185.935213
Entropy (-ST):   -0.327144
Local:           +3.016673
--------------------------
Free energy:   -161.328570
Extrapolated:  -161.164998

Fermi level: -4.43884

 Band  Eigenvalues  Occupancy
    0    -25.81644    2.00000
    1    -25.73629    2.00000
    2    -20.65279    2.00000
    3    -20.64590    2.00000
    4    -20.30496    2.00000
    5    -20.25825    2.00000
    6    -19.43560    2.00000
    7    -19.42529    2.00000
    8    -18.40544    2.00000
    9    -18.24598    2.00000
   10    -17.49012    2.00000
   11    -16.65867    2.00000
   12    -16.64565    2.00000
   13    -16.05655    2.00000
   14    -15.54617    2.00000
   15    -15.06902    2.00000
   16    -14.83160    2.00000
   17    -13.86477    2.00000
   18    -13.85396    2.00000
   19    -13.08923    2.00000
   20    -13.01580    2.00000
   21    -12.55218    2.00000
   22    -11.83263    2.00000
   23    -11.46497    2.00000
   24    -11.36212    2.00000
   25    -10.98168    2.00000
   26    -10.74635    2.00000
   27    -10.46612    2.00000
   28     -9.16416    2.00000
   29     -9.01284    2.00000
   30     -8.89653    2.00000
   31     -8.89206    2.00000
   32     -8.42049    2.00000
   33     -8.11441    2.00000
   34     -7.57103    2.00000
   35     -7.52168    2.00000
   36     -7.19787    2.00000
   37     -7.18867    2.00000
   38     -7.06864    2.00000
   39     -6.57130    2.00000
   40     -6.30937    2.00000
   41     -5.84884    2.00000
   42     -5.62246    1.99999
   43     -5.58825    1.99998
   44     -5.50580    1.99995
   45     -4.98225    1.99131
   46     -4.82136    1.95730
   47     -4.46610    1.13549
   48     -4.40952    0.85445
   49     -4.09378    0.06150
   50     -3.32997    0.00003
   51     -3.04465    0.00000
   52     -2.85808    0.00000
   53     -2.54576    0.00000
   54     -2.42982    0.00000
   55     -2.39198    0.00000
   56     -1.74628    0.00000
   57     -1.12609    0.00000
   58     -0.98653    0.00000
   59     -0.58291    0.00000
   60     -0.35668    0.00000
   61      0.09157    0.00000
   62      0.33809    0.00000
   63      0.37481    0.00000
   64      1.92226    0.00000
   65      2.00448    0.00000
   66      3.16013    0.00000
   67      3.96069    0.00000
   68      4.57895    0.00000
   69      4.66827    0.00000
   70      5.17184    0.00000
   71      5.30019    0.00000
   72      5.99923    0.00000
   73      6.35189    0.00000
   74      6.46943    0.00000
   75      7.33001    0.00000
   76      7.49501    0.00000
   77      7.53645    0.00000
   78      7.77436    0.00000
   79      7.89854    0.00000
   80      8.19189    0.00000
   81      8.25134    0.00000
   82      8.74567    0.00000
   83      8.97785    0.00000
   84      9.06952    0.00000
   85      9.27207    0.00000
   86      9.38855    0.00000
   87      9.41502    0.00000
   88      9.48653    0.00000
   89      9.48797    0.00000
   90      9.73400    0.00000
   91      9.80143    0.00000
   92     10.04039    0.00000
   93     10.04652    0.00000
   94     10.08825    0.00000
   95     10.27383    0.00000
   96     10.30053    0.00000
   97     10.45237    0.00000


Forces in eV/Ang:
  0 C     0.28630    0.30836    0.09526
  1 C    -0.20732   -0.56123   -0.18574
  2 C    -0.15018   -0.15375    0.00975
  3 C    -0.06121    0.76152    0.29102
  4 C     0.03336    0.18055   -0.03085
  5 C    -0.45793   -0.51925    0.25194
  6 C     0.62280    0.64871    0.26382
  7 C    -0.41350   -0.65310   -0.16054
  8 C   -13.90226    3.75700   -4.00846
  9 C   -19.08620    8.50217   -0.62292
 10 C    -8.16156   15.32847   -6.42842
 11 C   -12.53824   18.04682   -2.32993
 12 C     0.22314    0.35758    0.06487
 13 C    -0.43556   -0.33190   -0.21574
 14 C    -0.14062   -0.17229    0.00332
 15 C     0.62141    0.10861    0.44008
 16 C     0.17843    0.06798    0.01260
 17 C    -0.52330   -0.49615    0.21837
 18 C     0.44828    0.76131    0.21393
 19 C    -0.51080   -0.56455   -0.18224
 20 C     6.48878  -13.43994    0.87708
 21 C    10.79947  -16.68997    6.51625
 22 C    17.38783   -6.27429   -0.32052
 23 C    19.48089   -8.99578    5.30029

System changes: positions 

Initializing position-dependent things.

Density initialized from wave functions
           .--------------------------------------.  
          /|                                      |  
         / |                                      |  
        /  |                                      |  
       /   |                                      |  
      /    |                                      |  
     /     |                                      |  
    /      |                                      |  
   /       |                                      |  
  /        |        C  C     C   C                |  
 *         |  C  C        C    C                  |  
 |         | C            CCCC                    |  
 |         .-C-------C--CC------------------------.  
 |        /     CCC C                            /   
 |       /                                      /    
 |      /                                      /     
 |     /                                      /      
 |    /                                      /       
 |   /                                      /        
 |  /                                      /         
 | /                                      /          
 |/                                      /           
 *--------------------------------------*            

Positions:
   0 C      4.022648    9.235753    5.424686
   1 C      3.320022    8.177130    5.449925
   2 C      5.124571   10.010222    5.330099
   3 C      3.130229    6.854110    5.320880
   4 C      6.300733   10.444311    5.223934
   5 C      3.489133    5.644608    5.159801
   6 C      7.697129   10.383741    4.990926
   7 C      8.750776   11.264858    5.208415
   8 C      7.221077    7.962386    4.280445
   9 C      4.712282    5.089953    4.772835
  10 C      5.630143    6.003409    4.173798
  11 C      8.136215    9.036741    4.519525
  12 C      9.485944    4.627412    6.728686
  13 C      8.561380    3.756154    6.701161
  14 C     10.105994    5.808312    6.519111
  15 C      7.358744    3.286955    6.330154
  16 C     10.394833    6.990944    6.201241
  17 C      6.201512    3.356537    5.807138
  18 C     10.217046    8.258005    5.592386
  19 C     10.861074    9.484820    5.712153
  20 C      8.161420    7.169333    4.505099
  21 C      5.617100    4.326911    4.988934
  22 C      6.529361    5.244379    4.388683
  23 C      9.001930    8.306081    4.725993

Unit cell:
           periodic     x           y           z      points  spacing
  1. axis:    yes   16.000000    0.000000    0.000000    80     0.2000
  2. axis:    yes    0.000000   16.000000    0.000000    80     0.2000
  3. axis:    yes    0.000000    0.000000   10.000000    48     0.2083

Effective grid spacing dv^(1/3) = 0.2027

                     log10-error:    total        iterations:
           time      wfs    density  energy       fermi  poisson
iter:   1  15:13:31          +inf  -164.560412    4      5      
iter:   2  15:13:32         -1.62  -164.216179    4      2      
iter:   3  15:13:32         -1.83  -164.091409    4      2      
iter:   4  15:13:33         -1.95  -164.110225    3      2      
iter:   5  15:13:33         -1.98  -164.039618    4      2      
iter:   6  15:13:34         -2.19  -164.025430    3      2      
iter:   7  15:13:34         -2.42  -164.012045    3      2      
iter:   8  15:13:35         -2.63  -164.007115    3      2      
iter:   9  15:13:36         -2.91  -164.008128    3      2      
iter:  10  15:13:36         -2.98  -164.002133    2      1      
iter:  11  15:13:37         -3.19  -164.009798    2      2      
iter:  12  15:13:37         -3.38  -164.012530    2      1      
iter:  13  15:13:38         -3.68  -164.009694    2      1      
iter:  14  15:13:38         -3.76  -164.009433    2      1      
iter:  15  15:13:39         -3.85  -164.009604    2      1      
iter:  16  15:13:39         -3.93  -164.008991    2      1      
iter:  17  15:13:40         -4.24  -164.009068    2      1      

Converged after 17 iterations.

Dipole moment: (-0.405496, -0.470014, 0.078349) |e|*Ang

Energy contributions relative to reference atoms: (reference = -24663.074771)

Kinetic:       +185.473573
Potential:     -171.060853
External:        +0.000000
XC:            -181.297193
Entropy (-ST):   -0.286319
Local:           +3.018565
--------------------------
Free energy:   -164.152227
Extrapolated:  -164.009068

Fermi level: -4.45966

 Band  Eigenvalues  Occupancy
    0    -25.17636    2.00000
    1    -25.11691    2.00000
    2    -20.67565    2.00000
    3    -20.63795    2.00000
    4    -20.34755    2.00000
    5    -20.26322    2.00000
    6    -19.45779    2.00000
    7    -19.44033    2.00000
    8    -18.39922    2.00000
    9    -18.28224    2.00000
   10    -17.42367    2.00000
   11    -16.71367    2.00000
   12    -16.53839    2.00000
   13    -16.04949    2.00000
   14    -15.52536    2.00000
   15    -15.05312    2.00000
   16    -14.82980    2.00000
   17    -13.86628    2.00000
   18    -13.86200    2.00000
   19    -13.03151    2.00000
   20    -13.00856    2.00000
   21    -12.47069    2.00000
   22    -11.61902    2.00000
   23    -11.21140    2.00000
   24    -11.10600    2.00000
   25    -10.80938    2.00000
   26    -10.60915    2.00000
   27    -10.44903    2.00000
   28     -9.19081    2.00000
   29     -9.00640    2.00000
   30     -8.90166    2.00000
   31     -8.89216    2.00000
   32     -8.45968    2.00000
   33     -8.06660    2.00000
   34     -7.59356    2.00000
   35     -7.51059    2.00000
   36     -7.22404    2.00000
   37     -7.15967    2.00000
   38     -7.00383    2.00000
   39     -6.44413    2.00000
   40     -6.32524    2.00000
   41     -5.79960    2.00000
   42     -5.65690    1.99999
   43     -5.51831    1.99995
   44     -5.48574    1.99993
   45     -4.89372    1.97428
   46     -4.69032    1.81886
   47     -4.63257    1.69861
   48     -4.34283    0.47434
   49     -4.05392    0.03400
   50     -3.41170    0.00006
   51     -3.09516    0.00000
   52     -2.91237    0.00000
   53     -2.61204    0.00000
   54     -2.47874    0.00000
   55     -2.40127    0.00000
   56     -1.81561    0.00000
   57     -1.19356    0.00000
   58     -0.96868    0.00000
   59     -0.62661    0.00000
   60     -0.37226    0.00000
   61     -0.04152    0.00000
   62      0.32571    0.00000
   63      0.35900    0.00000
   64      1.76394    0.00000
   65      1.98748    0.00000
   66      2.87487    0.00000
   67      3.69112    0.00000
   68      4.24684    0.00000
   69      4.61008    0.00000
   70      5.09618    0.00000
   71      5.14794    0.00000
   72      6.00331    0.00000
   73      6.31415    0.00000
   74      6.52255    0.00000
   75      7.19514    0.00000
   76      7.47017    0.00000
   77      7.69662    0.00000
   78      7.82005    0.00000
   79      8.04684    0.00000
   80      8.26775    0.00000
   81      8.28893    0.00000
   82      8.68964    0.00000
   83      8.97832    0.00000
   84      9.03615    0.00000
   85      9.07642    0.00000
   86      9.25349    0.00000
   87      9.38152    0.00000
   88      9.40054    0.00000
   89      9.45022    0.00000
   90      9.67279    0.00000
   91      9.83132    0.00000
   92     10.01954    0.00000
   93     10.04844    0.00000
   94     10.14339    0.00000
   95     10.20343    0.00000
   96     10.33118    0.00000
   97     10.40034    0.00000


Forces in eV/Ang:
  0 C     0.01035    0.01673    0.13687
  1 C     0.05646    0.03238   -0.17513
  2 C    -0.10739   -0.08323   -0.00955
  3 C    -0.03639    0.30885    0.22741
  4 C     0.07840    0.14809   -0.02893
  5 C    -0.82737   -0.25709    0.31109
  6 C     0.48307    0.83217    0.32877
  7 C    -0.39331   -0.56436   -0.11297
  8 C    -8.84570    1.19147   -2.74916
  9 C   -14.65219    7.46960   -0.90877
 10 C    -5.44010   11.24546   -4.60037
 11 C   -13.66960   16.22364   -2.74871
 12 C    -0.02043    0.05300    0.11347
 13 C     0.07333    0.02731   -0.14304
 14 C    -0.07333   -0.12232   -0.00825
 15 C     0.23851    0.04256    0.28554
 16 C     0.14283    0.10439   -0.00202
 17 C    -0.23431   -0.78525    0.43400
 18 C     0.63574    0.68286    0.36456
 19 C    -0.44574   -0.52138   -0.12284
 20 C     3.00439   -8.83715    0.07599
 21 C     9.29193  -12.73590    4.81594
 22 C    12.66999   -4.04585   -0.25469
 23 C    18.01943  -10.50167    4.81003

System changes: positions 

Initializing position-dependent things.

Density initialized from wave functions
           .--------------------------------------.  
          /|                                      |  
         / |                                      |  
        /  |                                      |  
       /   |                                      |  
      /    |                                      |  
     /     |                                      |  
    /      |                                      |  
   /       |                                      |  
  /        |        C  C     C   C                |  
 *         |  C  C        C    C                  |  
 |         | C            CCCC                    |  
 |         .-C-------C--CC------------------------.  
 |        /     CCCCC                            /   
 |       /                                      /    
 |      /                                      /     
 |     /                                      /      
 |    /                                      /       
 |   /                                      /        
 |  /                                      /         
 | /                                      /          
 |/                                      /           
 *--------------------------------------*            

Positions:
   0 C      4.023085    9.236457    5.426275
   1 C      3.320912    8.177244    5.448084
   2 C      5.122255   10.009673    5.329982
   3 C      3.129170    6.859472    5.323326
   4 C      6.300648   10.446148    5.224119
   5 C      3.473814    5.644083    5.164532
   6 C      7.697042   10.392758    4.995074
   7 C      8.750142   11.263235    5.208413
   8 C      7.195972    7.952770    4.268982
   9 C      4.698299    5.094868    4.771700
  10 C      5.638448    6.031438    4.161997
  11 C      8.108214    9.064392    4.514484
  12 C      9.486195    4.628437    6.730083
  13 C      8.561760    3.756590    6.699460
  14 C     10.105722    5.805974    6.519425
  15 C      7.363522    3.287317    6.333961
  16 C     10.396584    6.991303    6.201984
  17 C      6.201655    3.342757    5.815373
  18 C     10.224535    8.260533    5.598370
  19 C     10.859648    9.483787    5.711997
  20 C      8.158150    7.141112    4.498939
  21 C      5.624167    4.314087    4.993102
  22 C      6.557782    5.254911    4.382324
  23 C      9.033487    8.283184    4.734928

Unit cell:
           periodic     x           y           z      points  spacing
  1. axis:    yes   16.000000    0.000000    0.000000    80     0.2000
  2. axis:    yes    0.000000   16.000000    0.000000    80     0.2000
  3. axis:    yes    0.000000    0.000000   10.000000    48     0.2083

Effective grid spacing dv^(1/3) = 0.2027

                     log10-error:    total        iterations:
           time      wfs    density  energy       fermi  poisson
iter:   1  15:13:41          +inf  -166.960818    3      5      
iter:   2  15:13:42         -1.79  -166.831138    3      2      
iter:   3  15:13:42         -2.06  -166.816747    3      2      
iter:   4  15:13:43         -2.12  -166.801943    3      2      
iter:   5  15:13:43         -2.28  -166.796510    3      2      
iter:   6  15:13:44         -2.42  -166.799783    3      2      
iter:   7  15:13:44         -2.50  -166.790469    2      2      
iter:   8  15:13:45         -2.80  -166.793772    2      1      
iter:   9  15:13:45         -2.88  -166.788632    2      2      
iter:  10  15:13:46         -3.37  -166.785615    2      1      
iter:  11  15:13:46         -3.45  -166.787146    2      1      
iter:  12  15:13:47         -3.67  -166.787130    2      1      
iter:  13  15:13:47         -3.73  -166.785051    2      1      
iter:  14  15:13:48         -3.92  -166.786767    2      1      
iter:  15  15:13:48         -4.07  -166.787455    2      1      

Converged after 15 iterations.

Dipole moment: (-0.387954, -0.446892, 0.090497) |e|*Ang

Energy contributions relative to reference atoms: (reference = -24663.074771)

Kinetic:       +162.840873
Potential:     -155.148486
External:        +0.000000
XC:            -177.317102
Entropy (-ST):   -0.261344
Local:           +2.967932
--------------------------
Free energy:   -166.918127
Extrapolated:  -166.787455

Fermi level: -4.44000

 Band  Eigenvalues  Occupancy
    0    -24.54982    2.00000
    1    -24.45375    2.00000
    2    -20.76704    2.00000
    3    -20.67293    2.00000
    4    -20.39149    2.00000
    5    -20.27961    2.00000
    6    -19.48112    2.00000
    7    -19.43504    2.00000
    8    -18.36903    2.00000
    9    -18.29615    2.00000
   10    -17.33563    2.00000
   11    -16.71573    2.00000
   12    -16.31042    2.00000
   13    -16.05568    2.00000
   14    -15.61169    2.00000
   15    -15.04479    2.00000
   16    -14.87309    2.00000
   17    -13.86376    2.00000
   18    -13.83153    2.00000
   19    -13.05398    2.00000
   20    -12.93255    2.00000
   21    -12.36600    2.00000
   22    -11.38859    2.00000
   23    -10.93626    2.00000
   24    -10.88305    2.00000
   25    -10.79654    2.00000
   26    -10.66602    2.00000
   27    -10.32942    2.00000
   28     -9.21315    2.00000
   29     -8.98397    2.00000
   30     -8.90751    2.00000
   31     -8.88341    2.00000
   32     -8.51391    2.00000
   33     -8.02866    2.00000
   34     -7.59997    2.00000
   35     -7.46899    2.00000
   36     -7.27606    2.00000
   37     -7.16949    2.00000
   38     -6.99776    2.00000
   39     -6.47688    2.00000
   40     -6.35344    2.00000
   41     -5.77821    2.00000
   42     -5.67699    1.99999
   43     -5.55267    1.99997
   44     -5.43964    1.99991
   45     -4.84219    1.96479
   46     -4.82390    1.95788
   47     -4.58037    1.60553
   48     -4.31139    0.43303
   49     -4.04772    0.03880
   50     -3.44177    0.00009
   51     -3.15528    0.00001
   52     -2.94225    0.00000
   53     -2.81217    0.00000
   54     -2.60868    0.00000
   55     -2.38853    0.00000
   56     -1.85118    0.00000
   57     -1.25356    0.00000
   58     -0.91970    0.00000
   59     -0.64662    0.00000
   60     -0.33568    0.00000
   61     -0.12710    0.00000
   62      0.37244    0.00000
   63      0.37885    0.00000
   64      1.64719    0.00000
   65      2.00937    0.00000
   66      2.55258    0.00000
   67      3.47762    0.00000
   68      3.94756    0.00000
   69      4.66289    0.00000
   70      5.04528    0.00000
   71      5.14835    0.00000
   72      6.04149    0.00000
   73      6.24142    0.00000
   74      6.49259    0.00000
   75      7.02252    0.00000
   76      7.44127    0.00000
   77      7.74295    0.00000
   78      7.87854    0.00000
   79      8.10897    0.00000
   80      8.15857    0.00000
   81      8.32122    0.00000
   82      8.54881    0.00000
   83      8.78128    0.00000
   84      8.97068    0.00000
   85      9.04973    0.00000
   86      9.14155    0.00000
   87      9.22466    0.00000
   88      9.32702    0.00000
   89      9.45282    0.00000
   90      9.59706    0.00000
   91      9.84628    0.00000
   92      9.99263    0.00000
   93     10.01668    0.00000
   94     10.11975    0.00000
   95     10.14956    0.00000
   96     10.26971    0.00000
   97     10.39189    0.00000


Forces in eV/Ang:
  0 C    -0.09034   -0.05760    0.13015
  1 C     0.07355    0.28388   -0.11852
  2 C     0.25125    0.11171   -0.02609
  3 C    -0.06564    0.03786    0.15668
  4 C    -0.40789    0.18358    0.07353
  5 C    -0.67692   -0.21255    0.22832
  6 C     0.05065    0.50750    0.25798
  7 C     0.07265   -0.18158    0.00637
  8 C    -6.84687    1.08500   -2.16298
  9 C   -11.26138    6.32589   -0.86122
 10 C    -4.51129    9.13584   -3.52351
 11 C    -7.26685    8.64761   -1.48309
 12 C    -0.08641   -0.07079    0.12206
 13 C     0.30740    0.11338   -0.03225
 14 C     0.07225    0.25421   -0.07196
 15 C    -0.00694   -0.04016    0.16453
 16 C     0.21526   -0.32937    0.23662
 17 C    -0.15732   -0.68115    0.36824
 18 C     0.40681    0.20116    0.36655
 19 C    -0.17891    0.02593   -0.05193
 20 C     2.48699   -6.81278    0.05743
 21 C     7.73303   -9.72307    3.66997
 22 C    10.27747   -3.30497    0.01441
 23 C     9.61082   -5.58011    2.56644

System changes: positions 

Initializing position-dependent things.

Density initialized from wave functions
           .--------------------------------------.  
          /|                                      |  
         / |                                      |  
        /  |                                      |  
       /   |                                      |  
      /    |                                      |  
     /     |                                      |  
    /      |                                      |  
   /       |                                      |  
  /        |        C  C     C   C                |  
 *         |  C  C        C    C                  |  
 |         | C            CCCC                    |  
 |         .-C-------C-CCC------------------------.  
 |        /     CCCCC                            /   
 |       /                                      /    
 |      /                                      /     
 |     /                                      /      
 |    /                                      /       
 |   /                                      /        
 |  /                                      /         
 | /                                      /          
 |/                                      /           
 *--------------------------------------*            

Positions:
   0 C      4.021369    9.235273    5.428291
   1 C      3.322959    8.182507    5.446466
   2 C      5.124455   10.011483    5.329572
   3 C      3.127831    6.860571    5.325352
   4 C      6.295002   10.448720    5.225424
   5 C      3.457910    5.643796    5.169083
   6 C      7.693430   10.400710    4.999396
   7 C      8.753635   11.264261    5.209513
   8 C      7.173683    7.941163    4.257612
   9 C      4.672840    5.117196    4.766102
  10 C      5.639384    6.069320    4.149399
  11 C      8.096190    9.064415    4.511681
  12 C      9.484714    4.627033    6.732043
  13 C      8.566954    3.759286    6.698984
  14 C     10.107181    5.808330    6.518810
  15 C      7.364338    3.286576    6.336476
  16 C     10.399512    6.986778    6.205533
  17 C      6.202520    3.327998    5.824113
  18 C     10.231493    8.259616    5.605562
  19 C     10.859879    9.487427    5.712353
  20 C      8.152455    7.115187    4.491469
  21 C      5.650323    4.292540    4.999960
  22 C      6.597287    5.260476    4.379424
  23 C      9.036054    8.270839    4.735734

Unit cell:
           periodic     x           y           z      points  spacing
  1. axis:    yes   16.000000    0.000000    0.000000    80     0.2000
  2. axis:    yes    0.000000   16.000000    0.000000    80     0.2000
  3. axis:    yes    0.000000    0.000000   10.000000    48     0.2083

Effective grid spacing dv^(1/3) = 0.2027

                     log10-error:    total        iterations:
           time      wfs    density  energy       fermi  poisson
iter:   1  15:13:50          +inf  -168.733141    3      5      
iter:   2  15:13:51         -1.84  -168.641022    3      2      
iter:   3  15:13:51         -2.02  -168.614482    3      2      
iter:   4  15:13:52         -2.12  -168.578215    3      2      
iter:   5  15:13:52         -2.41  -168.575325    3      2      
iter:   6  15:13:53         -2.65  -168.574253    3      2      
iter:   7  15:13:53         -2.78  -168.573505    2      2      
iter:   8  15:13:54         -2.88  -168.573582    2      2      
iter:   9  15:13:54         -3.10  -168.573208    2      2      
iter:  10  15:13:55         -3.34  -168.574521    2      1      
iter:  11  15:13:55         -3.44  -168.573546    2      1      
iter:  12  15:13:56         -3.54  -168.571985    2      1      
iter:  13  15:13:56         -3.85  -168.572149    2      1      
iter:  14  15:13:57         -3.96  -168.571457    2      1      
iter:  15  15:13:57         -4.10  -168.571712    2      1      

Converged after 15 iterations.

Dipole moment: (-0.437661, -0.499932, 0.114125) |e|*Ang

Energy contributions relative to reference atoms: (reference = -24663.074771)

Kinetic:       +144.529831
Potential:     -142.006575
External:        +0.000000
XC:            -173.938654
Entropy (-ST):   -0.244478
Local:           +2.965926
--------------------------
Free energy:   -168.693951
Extrapolated:  -168.571712

Fermi level: -4.34624

 Band  Eigenvalues  Occupancy
    0    -24.10166    2.00000
    1    -23.75233    2.00000
    2    -20.75451    2.00000
    3    -20.63422    2.00000
    4    -20.43445    2.00000
    5    -20.26798    2.00000
    6    -19.52846    2.00000
    7    -19.44274    2.00000
    8    -18.38491    2.00000
    9    -18.34477    2.00000
   10    -17.20654    2.00000
   11    -16.73518    2.00000
   12    -16.14385    2.00000
   13    -15.96929    2.00000
   14    -15.56271    2.00000
   15    -15.02660    2.00000
   16    -14.81242    2.00000
   17    -13.87335    2.00000
   18    -13.78441    2.00000
   19    -13.06369    2.00000
   20    -12.84600    2.00000
   21    -12.23229    2.00000
   22    -11.16120    2.00000
   23    -11.04052    2.00000
   24    -10.72565    2.00000
   25    -10.71895    2.00000
   26    -10.46524    2.00000
   27    -10.10943    2.00000
   28     -9.24350    2.00000
   29     -8.98262    2.00000
   30     -8.94954    2.00000
   31     -8.88691    2.00000
   32     -8.53287    2.00000
   33     -7.97792    2.00000
   34     -7.65138    2.00000
   35     -7.42551    2.00000
   36     -7.30580    2.00000
   37     -7.14005    2.00000
   38     -6.94739    2.00000
   39     -6.48150    2.00000
   40     -6.35975    2.00000
   41     -5.76156    2.00000
   42     -5.72369    2.00000
   43     -5.62554    1.99999
   44     -5.45333    1.99997
   45     -5.06412    1.99848
   46     -4.79513    1.97779
   47     -4.47384    1.56353
   48     -4.20954    0.40622
   49     -3.98699    0.05358
   50     -3.49898    0.00042
   51     -3.18571    0.00002
   52     -2.96738    0.00000
   53     -2.86726    0.00000
   54     -2.60363    0.00000
   55     -2.30831    0.00000
   56     -1.92001    0.00000
   57     -1.37360    0.00000
   58     -0.90287    0.00000
   59     -0.73135    0.00000
   60     -0.29803    0.00000
   61     -0.22986    0.00000
   62      0.38583    0.00000
   63      0.40401    0.00000
   64      1.54635    0.00000
   65      2.03771    0.00000
   66      2.27153    0.00000
   67      3.39631    0.00000
   68      3.66360    0.00000
   69      4.66574    0.00000
   70      4.99141    0.00000
   71      5.16496    0.00000
   72      6.03666    0.00000
   73      6.20273    0.00000
   74      6.39925    0.00000
   75      6.76603    0.00000
   76      7.26588    0.00000
   77      7.79087    0.00000
   78      7.84915    0.00000
   79      8.00491    0.00000
   80      8.12436    0.00000
   81      8.27260    0.00000
   82      8.35810    0.00000
   83      8.43429    0.00000
   84      8.96006    0.00000
   85      8.97476    0.00000
   86      9.05663    0.00000
   87      9.17438    0.00000
   88      9.30481    0.00000
   89      9.46193    0.00000
   90      9.50148    0.00000
   91      9.85425    0.00000
   92      9.95150    0.00000
   93     10.02361    0.00000
   94     10.03726    0.00000
   95     10.13874    0.00000
   96     10.16054    0.00000
   97     10.43304    0.00000


Forces in eV/Ang:
  0 C     0.36432    0.42959    0.08118
  1 C    -0.27542   -0.33721   -0.08220
  2 C    -0.39544   -0.13552    0.04756
  3 C    -0.19311    0.53649    0.20639
  4 C     0.11284    0.36793    0.03680
  5 C    -0.88811   -0.18429    0.25720
  6 C     0.08010    0.13895    0.12764
  7 C     0.14090   -0.15913    0.03298
  8 C    -5.24926    0.22329   -1.76517
  9 C    -5.52149    3.19016   -0.47222
 10 C    -2.24389    5.83153   -2.20466
 11 C    -6.08151    7.13760   -1.06894
 12 C     0.33021    0.44626    0.07062
 13 C    -0.24582   -0.34103   -0.04731
 14 C    -0.09438   -0.38510    0.10879
 15 C     0.48714   -0.04923    0.36807
 16 C     0.33239    0.19186    0.10005
 17 C    -0.14384   -0.85431    0.43872
 18 C     0.07747    0.12887    0.14012
 19 C    -0.16281    0.09871   -0.03815
 20 C     1.34748   -5.37429   -0.16723
 21 C     3.87994   -4.72568    1.76861
 22 C     6.45992   -1.51215   -0.12802
 23 C     7.87836   -4.66115    2.28638

System changes: positions 

Initializing position-dependent things.

Density initialized from wave functions
           .--------------------------------------.  
          /|                                      |  
         / |                                      |  
        /  |                                      |  
       /   |                                      |  
      /    |                                      |  
     /     |                                      |  
    /      |                                      |  
   /       |                                      |  
  /        |        C  C  C  C   C                |  
 *         |  C  C             C                  |  
 |         | C            CCCC                    |  
 |         .-C-------C-CCC------------------------.  
 |        /     CCCCC                            /   
 |       /                                      /    
 |      /                                      /     
 |     /                                      /      
 |    /                                      /       
 |   /                                      /        
 |  /                                      /         
 | /                                      /          
 |/                                      /           
 *--------------------------------------*            

Positions:
   0 C      4.025346    9.240392    5.430064
   1 C      3.320398    8.180640    5.445019
   2 C      5.119923   10.010780    5.330026
   3 C      3.124535    6.867968    5.328501
   4 C      6.293683   10.454510    5.226700
   5 C      3.438138    5.642724    5.174443
   6 C      7.690074   10.404649    5.002627
   7 C      8.759007   11.265264    5.211101
   8 C      7.139911    7.926645    4.241841
   9 C      4.670446    5.127698    4.761912
  10 C      5.646183    6.105810    4.138132
  11 C      8.076275    9.076030    4.509605
  12 C      9.488472    4.632179    6.733722
  13 C      8.566064    3.756213    6.698412
  14 C     10.106918    5.804085    6.520149
  15 C      7.371207    3.285436    6.342067
  16 C     10.404975    6.986993    6.208635
  17 C      6.202612    3.309554    5.834383
  18 C     10.234755    8.257922    5.610715
  19 C     10.859874    9.492902    5.712689
  20 C      8.146616    7.076617    4.482683
  21 C      5.661663    4.291536    4.999115
  22 C      6.634333    5.271446    4.375689
  23 C      9.050196    8.253286    4.742097

Unit cell:
           periodic     x           y           z      points  spacing
  1. axis:    yes   16.000000    0.000000    0.000000    80     0.2000
  2. axis:    yes    0.000000   16.000000    0.000000    80     0.2000
  3. axis:    yes    0.000000    0.000000   10.000000    48     0.2083

Effective grid spacing dv^(1/3) = 0.2027

                     log10-error:    total        iterations:
           time      wfs    density  energy       fermi  poisson
iter:   1  15:13:59          +inf  -169.843339    2      5      
iter:   2  15:14:00         -1.85  -169.779415    3      2      
iter:   3  15:14:00         -1.99  -169.756904    3      2      
iter:   4  15:14:01         -2.08  -169.725617    3      2      
iter:   5  15:14:01         -2.37  -169.722111    3      2      
iter:   6  15:14:02         -2.59  -169.720662    2      2      
iter:   7  15:14:02         -2.77  -169.727866    2      1      
iter:   8  15:14:03         -2.84  -169.719905    2      2      
iter:   9  15:14:03         -3.04  -169.719241    2      2      
iter:  10  15:14:04         -3.32  -169.719357    2      1      
iter:  11  15:14:04         -3.46  -169.719210    2      1      
iter:  12  15:14:05         -3.59  -169.719701    2      1      
iter:  13  15:14:05         -3.75  -169.720478    2      1      
iter:  14  15:14:06         -3.93  -169.718038    2      1      
iter:  15  15:14:06         -4.01  -169.716715    2      1      

Converged after 15 iterations.

Dipole moment: (-0.432423, -0.492620, 0.113639) |e|*Ang

Energy contributions relative to reference atoms: (reference = -24663.074771)

Kinetic:       +125.259766
Potential:     -127.752374
External:        +0.000000
XC:            -170.026900
Entropy (-ST):   -0.263904
Local:           +2.934744
--------------------------
Free energy:   -169.848667
Extrapolated:  -169.716715

Fermi level: -4.29925

 Band  Eigenvalues  Occupancy
    0    -23.55955    2.00000
    1    -23.33277    2.00000
    2    -20.78751    2.00000
    3    -20.61302    2.00000
    4    -20.43925    2.00000
    5    -20.23767    2.00000
    6    -19.52262    2.00000
    7    -19.42673    2.00000
    8    -18.32291    2.00000
    9    -18.32085    2.00000
   10    -17.16455    2.00000
   11    -16.73462    2.00000
   12    -15.99129    2.00000
   13    -15.96167    2.00000
   14    -15.54436    2.00000
   15    -15.00262    2.00000
   16    -14.80999    2.00000
   17    -13.87321    2.00000
   18    -13.76334    2.00000
   19    -13.07978    2.00000
   20    -12.76255    2.00000
   21    -12.12794    2.00000
   22    -11.13114    2.00000
   23    -11.02316    2.00000
   24    -10.80657    2.00000
   25    -10.52139    2.00000
   26    -10.25552    2.00000
   27     -9.86609    2.00000
   28     -9.25884    2.00000
   29     -8.97574    2.00000
   30     -8.96601    2.00000
   31     -8.89284    2.00000
   32     -8.54380    2.00000
   33     -7.91351    2.00000
   34     -7.67925    2.00000
   35     -7.40169    2.00000
   36     -7.31556    2.00000
   37     -7.13509    2.00000
   38     -6.95300    2.00000
   39     -6.55303    2.00000
   40     -6.41950    2.00000
   41     -5.72039    2.00000
   42     -5.71804    2.00000
   43     -5.64704    2.00000
   44     -5.42603    1.99997
   45     -5.34148    1.99994
   46     -4.79841    1.98650
   47     -4.40169    1.47165
   48     -4.18165    0.47153
   49     -3.96683    0.06950
   50     -3.52140    0.00084
   51     -3.26195    0.00006
   52     -3.05423    0.00001
   53     -3.00555    0.00000
   54     -2.66352    0.00000
   55     -2.34318    0.00000
   56     -2.01575    0.00000
   57     -1.48916    0.00000
   58     -0.88813    0.00000
   59     -0.78331    0.00000
   60     -0.37878    0.00000
   61     -0.31056    0.00000
   62      0.38727    0.00000
   63      0.42565    0.00000
   64      1.38403    0.00000
   65      1.98623    0.00000
   66      2.02467    0.00000
   67      3.12200    0.00000
   68      3.44541    0.00000
   69      4.61396    0.00000
   70      4.95363    0.00000
   71      5.05704    0.00000
   72      6.01634    0.00000
   73      6.04290    0.00000
   74      6.38455    0.00000
   75      6.47734    0.00000
   76      7.15928    0.00000
   77      7.74873    0.00000
   78      7.77257    0.00000
   79      7.91571    0.00000
   80      8.02672    0.00000
   81      8.11446    0.00000
   82      8.26909    0.00000
   83      8.40240    0.00000
   84      8.68455    0.00000
   85      8.91033    0.00000
   86      8.95859    0.00000
   87      9.09187    0.00000
   88      9.28727    0.00000
   89      9.37422    0.00000
   90      9.45772    0.00000
   91      9.86030    0.00000
   92      9.88980    0.00000
   93      9.89628    0.00000
   94     10.00401    0.00000
   95     10.03257    0.00000
   96     10.18092    0.00000
   97     10.32742    0.00000


Forces in eV/Ang:
  0 C    -0.28656   -0.31998    0.09042
  1 C     0.06585    0.55046   -0.01171
  2 C     0.22992    0.21066    0.00656
  3 C    -0.18521    0.02836    0.11511
  4 C    -0.28972    0.33967    0.09733
  5 C    -0.32682   -0.24099    0.03406
  6 C     0.11107   -0.02370    0.06630
  7 C     0.26102   -0.14669    0.06313
  8 C    -2.91612   -0.64980   -1.17089
  9 C    -4.41891    2.93533   -0.31258
 10 C    -0.65192    3.75828   -1.40328
 11 C    -3.86459    3.94353   -0.56160
 12 C    -0.27474   -0.29193    0.08552
 13 C     0.52193    0.15883    0.12370
 14 C     0.16023    0.25233   -0.00964
 15 C    -0.00457   -0.15095    0.15414
 16 C     0.33717   -0.18423    0.24857
 17 C    -0.21960   -0.35924    0.07718
 18 C    -0.05479    0.11126    0.02565
 19 C    -0.16925    0.22410   -0.03405
 20 C     0.07803   -3.21856   -0.42938
 21 C     3.45849   -3.71218    1.58149
 22 C     4.05768   -0.18239   -0.26149
 23 C     4.41565   -3.04751    1.46170

System changes: positions 

Initializing position-dependent things.

Density initialized from wave functions
           .--------------------------------------.  
          /|                                      |  
         / |                                      |  
        /  |                                      |  
       /   |                                      |  
      /    |                                      |  
     /     |                                      |  
    /      |                                      |  
   /       |                                      |  
  /        |        C  C  C  C   C                |  
 *         |  C  C             C                  |  
 |         | C            CCCC                    |  
 |         .-C-------C-CCC------------------------.  
 |        /     C CC C                           /   
 |       /                                      /    
 |      /                                      /     
 |     /                                      /      
 |    /                                      /       
 |   /                                      /        
 |  /                                      /         
 | /                                      /          
 |/                                      /           
 *--------------------------------------*            

Positions:
   0 C      4.022553    9.237599    5.432108
   1 C      3.320702    8.188195    5.444313
   2 C      5.121411   10.013826    5.330250
   3 C      3.120423    6.871644    5.331311
   4 C      6.288412   10.461598    5.228794
   5 C      3.423595    5.639721    5.177464
   6 C      7.688360   10.405988    5.005095
   7 C      8.766154   11.265233    5.213070
   8 C      7.112242    7.903134    4.226020
   9 C      4.659319    5.146104    4.758974
  10 C      5.664603    6.138686    4.127891
  11 C      8.058340    9.080974    4.509969
  12 C      9.485847    4.629763    6.735684
  13 C      8.573458    3.757680    6.699947
  14 C     10.109428    5.806056    6.520583
  15 C      7.374288    3.282781    6.346559
  16 C     10.411922    6.983884    6.213746
  17 C      6.200526    3.295452    5.840703
  18 C     10.235600    8.257064    5.613923
  19 C     10.858724    9.499931    5.712773
  20 C      8.131778    7.041538    4.470466
  21 C      5.681443    4.283882    5.003848
  22 C      6.666096    5.293406    4.369162
  23 C      9.057093    8.236903    4.749112

Unit cell:
           periodic     x           y           z      points  spacing
  1. axis:    yes   16.000000    0.000000    0.000000    80     0.2000
  2. axis:    yes    0.000000   16.000000    0.000000    80     0.2000
  3. axis:    yes    0.000000    0.000000   10.000000    48     0.2083

Effective grid spacing dv^(1/3) = 0.2027

                     log10-error:    total        iterations:
           time      wfs    density  energy       fermi  poisson
iter:   1  15:14:08          +inf  -170.587752    3      5      
iter:   2  15:14:08         -1.87  -170.533659    3      2      
iter:   3  15:14:09         -2.00  -170.486395    3      2      
iter:   4  15:14:10         -2.21  -170.468832    3      2      
iter:   5  15:14:10         -2.39  -170.464796    2      2      
iter:   6  15:14:11         -2.63  -170.463542    3      2      
iter:   7  15:14:11         -2.80  -170.468413    2      1      
iter:   8  15:14:12         -2.89  -170.463439    2      2      
iter:   9  15:14:12         -3.24  -170.463100    2      1      
iter:  10  15:14:13         -3.32  -170.463769    2      1      
iter:  11  15:14:13         -3.42  -170.464862    2      1      
iter:  12  15:14:14         -3.58  -170.463637    2      1      
iter:  13  15:14:14         -3.75  -170.462202    2      1      
iter:  14  15:14:15         -3.84  -170.461870    2      1      
iter:  15  15:14:15         -3.97  -170.462188    2      1      
iter:  16  15:14:16         -4.06  -170.461839    2      1      

Converged after 16 iterations.

Dipole moment: (-0.457188, -0.519691, 0.120070) |e|*Ang

Energy contributions relative to reference atoms: (reference = -24663.074771)

Kinetic:       +111.665116
Potential:     -117.656245
External:        +0.000000
XC:            -167.237890
Entropy (-ST):   -0.280345
Local:           +2.907352
--------------------------
Free energy:   -170.602012
Extrapolated:  -170.461839

Fermi level: -4.25147

 Band  Eigenvalues  Occupancy
    0    -23.14515    2.00000
    1    -22.87146    2.00000
    2    -20.78499    2.00000
    3    -20.58868    2.00000
    4    -20.44922    2.00000
    5    -20.18949    2.00000
    6    -19.53093    2.00000
    7    -19.41720    2.00000
    8    -18.34606    2.00000
    9    -18.34076    2.00000
   10    -17.15625    2.00000
   11    -16.71664    2.00000
   12    -15.97411    2.00000
   13    -15.84313    2.00000
   14    -15.48503    2.00000
   15    -14.95643    2.00000
   16    -14.77581    2.00000
   17    -13.84669    2.00000
   18    -13.73624    2.00000
   19    -13.05819    2.00000
   20    -12.72450    2.00000
   21    -12.00430    2.00000
   22    -11.24927    2.00000
   23    -10.90359    2.00000
   24    -10.83772    2.00000
   25    -10.35231    2.00000
   26    -10.05189    2.00000
   27     -9.70486    2.00000
   28     -9.27438    2.00000
   29     -9.00785    2.00000
   30     -8.95801    2.00000
   31     -8.89099    2.00000
   32     -8.54153    2.00000
   33     -7.83851    2.00000
   34     -7.70462    2.00000
   35     -7.35718    2.00000
   36     -7.32393    2.00000
   37     -7.13856    2.00000
   38     -6.96567    2.00000
   39     -6.65104    2.00000
   40     -6.52055    2.00000
   41     -5.79097    2.00000
   42     -5.74536    2.00000
   43     -5.68841    2.00000
   44     -5.50217    1.99999
   45     -5.46586    1.99999
   46     -4.82264    1.99341
   47     -4.33313    1.38704
   48     -4.15001    0.53217
   49     -3.94098    0.08581
   50     -3.52695    0.00143
   51     -3.29403    0.00014
   52     -3.08290    0.00002
   53     -3.05752    0.00001
   54     -2.65691    0.00000
   55     -2.29442    0.00000
   56     -2.01086    0.00000
   57     -1.53045    0.00000
   58     -0.90202    0.00000
   59     -0.86220    0.00000
   60     -0.48325    0.00000
   61     -0.31044    0.00000
   62      0.38878    0.00000
   63      0.43961    0.00000
   64      1.28446    0.00000
   65      1.77166    0.00000
   66      1.99642    0.00000
   67      2.82430    0.00000
   68      3.27631    0.00000
   69      4.50578    0.00000
   70      4.91192    0.00000
   71      4.94955    0.00000
   72      5.84932    0.00000
   73      5.98869    0.00000
   74      6.29847    0.00000
   75      6.41616    0.00000
   76      6.90934    0.00000
   77      7.36579    0.00000
   78      7.74706    0.00000
   79      7.76300    0.00000
   80      7.83709    0.00000
   81      8.07875    0.00000
   82      8.08716    0.00000
   83      8.43756    0.00000
   84      8.47466    0.00000
   85      8.76914    0.00000
   86      8.96177    0.00000
   87      9.05642    0.00000
   88      9.26550    0.00000
   89      9.31297    0.00000
   90      9.46389    0.00000
   91      9.77582    0.00000
   92      9.84432    0.00000
   93      9.84772    0.00000
   94      9.95109    0.00000
   95     10.00961    0.00000
   96     10.19463    0.00000
   97     10.21193    0.00000


Forces in eV/Ang:
  0 C     0.36748    0.42627    0.03157
  1 C    -0.39138   -0.25048    0.03101
  2 C    -0.32492   -0.03225    0.08557
  3 C    -0.12402   -0.00391    0.07967
  4 C     0.07541    0.44232    0.05308
  5 C    -0.32062    0.10033    0.04778
  6 C     0.10311   -0.12553    0.02861
  7 C     0.27256   -0.22583    0.05932
  8 C    -1.83806   -0.93146   -0.83159
  9 C    -1.97825    1.80543   -0.19563
 10 C    -0.30777    2.79648   -0.87645
 11 C    -2.67144    2.04744   -0.23694
 12 C     0.32484    0.42040    0.03395
 13 C    -0.19390   -0.42307    0.08514
 14 C    -0.00528   -0.27860    0.14602
 15 C    -0.01915   -0.10417    0.10401
 16 C     0.40219    0.15259    0.13216
 17 C     0.08733   -0.28388    0.15894
 18 C    -0.13056    0.07234   -0.02684
 19 C    -0.25247    0.23402   -0.05713
 20 C    -0.40924   -2.15178   -0.49667
 21 C     2.02004   -1.56474    0.78598
 22 C     2.92760    0.07749   -0.06578
 23 C     2.37085   -2.18361    0.99187

System changes: positions 

Initializing position-dependent things.

Density initialized from wave functions
           .--------------------------------------.  
          /|                                      |  
         / |                                      |  
        /  |                                      |  
       /   |                                      |  
      /    |                                      |  
     /     |                                      |  
    /      |                                      |  
   /       |                                      |  
  /        |        C  C  C  C   C                |  
 *         |  C  C             C                  |  
 |         | C            CCCC                    |  
 |         .-C-------C-CCC------------------------.  
 |        /     C CC C                           /   
 |       /                                      /    
 |      /                                      /     
 |     /                                      /      
 |    /                                      /       
 |   /                                      /        
 |  /                                      /         
 | /                                      /          
 |/                                      /           
 *--------------------------------------*            

Positions:
   0 C      4.026829    9.242851    5.433508
   1 C      3.315558    8.187540    5.444287
   2 C      5.117252   10.014591    5.331466
   3 C      3.117001    6.873573    5.333643
   4 C      6.286833   10.470498    5.230500
   5 C      3.410665    5.640559    5.180097
   6 C      7.687511   10.405715    5.007007
   7 C      8.773589   11.263264    5.214965
   8 C      7.088617    7.876613    4.211380
   9 C      4.655157    5.164295    4.756275
  10 C      5.679971    6.174389    4.118449
  11 C      8.039091    9.080081    4.511612
  12 C      9.489638    4.634999    6.737096
  13 C      8.573540    3.752486    6.701492
  14 C     10.110406    5.802747    6.522791
  15 C      7.375805    3.280359    6.350057
  16 C     10.420252    6.984278    6.217897
  17 C      6.201747    3.283568    5.847045
  18 C     10.235098    8.256528    5.616032
  19 C     10.855660    9.507038    5.712319
  20 C      8.113498    7.010048    4.457216
  21 C      5.699901    4.283010    5.007065
  22 C      6.700435    5.313309    4.365087
  23 C      9.058376    8.218779    4.756223

Unit cell:
           periodic     x           y           z      points  spacing
  1. axis:    yes   16.000000    0.000000    0.000000    80     0.2000
  2. axis:    yes    0.000000   16.000000    0.000000    80     0.2000
  3. axis:    yes    0.000000    0.000000   10.000000    48     0.2083

Effective grid spacing dv^(1/3) = 0.2027

                     log10-error:    total        iterations:
           time      wfs    density  energy       fermi  poisson
iter:   1  15:14:17          +inf  -171.089131    3      5      
iter:   2  15:14:18         -1.87  -171.024975    3      2      
iter:   3  15:14:18         -2.03  -170.994410    3      2      
iter:   4  15:14:19         -2.16  -170.969525    3      2      
iter:   5  15:14:20         -2.44  -170.965494    2      2      
iter:   6  15:14:20         -2.61  -170.964322    3      2      
iter:   7  15:14:21         -2.85  -170.967936    2      1      
iter:   8  15:14:21         -2.93  -170.963088    2      2      
iter:   9  15:14:22         -3.22  -170.966312    2      1      
iter:  10  15:14:22         -3.36  -170.965593    2      1      
iter:  11  15:14:23         -3.51  -170.962137    2      1      
iter:  12  15:14:23         -3.58  -170.962703    2      1      
iter:  13  15:14:24         -3.70  -170.963987    2      1      
iter:  14  15:14:24         -3.93  -170.962141    2      1      
iter:  15  15:14:25         -4.00  -170.962303    2      1      

Converged after 15 iterations.

Dipole moment: (-0.470913, -0.537517, 0.113942) |e|*Ang

Energy contributions relative to reference atoms: (reference = -24663.074771)

Kinetic:        +99.153455
Potential:     -108.227442
External:        +0.000000
XC:            -164.654794
Entropy (-ST):   -0.280409
Local:           +2.906682
--------------------------
Free energy:   -171.102507
Extrapolated:  -170.962303

Fermi level: -4.21849

 Band  Eigenvalues  Occupancy
    0    -22.86121    2.00000
    1    -22.52270    2.00000
    2    -20.78637    2.00000
    3    -20.57867    2.00000
    4    -20.45409    2.00000
    5    -20.13911    2.00000
    6    -19.54266    2.00000
    7    -19.43541    2.00000
    8    -18.32374    2.00000
    9    -18.30098    2.00000
   10    -17.18526    2.00000
   11    -16.71675    2.00000
   12    -16.02044    2.00000
   13    -15.75838    2.00000
   14    -15.43528    2.00000
   15    -14.93308    2.00000
   16    -14.74426    2.00000
   17    -13.83560    2.00000
   18    -13.71249    2.00000
   19    -13.04281    2.00000
   20    -12.71496    2.00000
   21    -11.90804    2.00000
   22    -11.38653    2.00000
   23    -10.86705    2.00000
   24    -10.81903    2.00000
   25    -10.23664    2.00000
   26     -9.90354    2.00000
   27     -9.58832    2.00000
   28     -9.28172    2.00000
   29     -9.02634    2.00000
   30     -8.94917    2.00000
   31     -8.87239    2.00000
   32     -8.54050    2.00000
   33     -7.78258    2.00000
   34     -7.75040    2.00000
   35     -7.34103    2.00000
   36     -7.32736    2.00000
   37     -7.19323    2.00000
   38     -7.03882    2.00000
   39     -6.73547    2.00000
   40     -6.67223    2.00000
   41     -5.87323    2.00000
   42     -5.73493    2.00000
   43     -5.68404    2.00000
   44     -5.57135    2.00000
   45     -5.46782    1.99999
   46     -4.85924    1.99671
   47     -4.29822    1.37878
   48     -4.11788    0.53546
   49     -3.90843    0.08616
   50     -3.55164    0.00254
   51     -3.33400    0.00029
   52     -3.13467    0.00004
   53     -3.11374    0.00003
   54     -2.65178    0.00000
   55     -2.31296    0.00000
   56     -2.03048    0.00000
   57     -1.62352    0.00000
   58     -0.92256    0.00000
   59     -0.91804    0.00000
   60     -0.58156    0.00000
   61     -0.30909    0.00000
   62      0.37389    0.00000
   63      0.42797    0.00000
   64      1.20593    0.00000
   65      1.57207    0.00000
   66      1.95593    0.00000
   67      2.54387    0.00000
   68      3.15208    0.00000
   69      4.36219    0.00000
   70      4.84777    0.00000
   71      4.87091    0.00000
   72      5.55878    0.00000
   73      5.93806    0.00000
   74      6.14783    0.00000
   75      6.45167    0.00000
   76      6.67207    0.00000
   77      7.01543    0.00000
   78      7.63503    0.00000
   79      7.71819    0.00000
   80      7.89297    0.00000
   81      7.99477    0.00000
   82      8.05386    0.00000
   83      8.29397    0.00000
   84      8.45692    0.00000
   85      8.63505    0.00000
   86      8.89536    0.00000
   87      8.95385    0.00000
   88      9.14398    0.00000
   89      9.33728    0.00000
   90      9.44818    0.00000
   91      9.59900    0.00000
   92      9.77332    0.00000
   93      9.83925    0.00000
   94      9.91260    0.00000
   95     10.01178    0.00000
   96     10.13595    0.00000
   97     10.21470    0.00000


Forces in eV/Ang:
  0 C    -0.28077   -0.34930    0.04677
  1 C    -0.06099    0.34408    0.05357
  2 C     0.24255    0.29593    0.04532
  3 C    -0.17185    0.21244    0.09054
  4 C    -0.14953    0.34342    0.06961
  5 C     0.01181   -0.21360   -0.07887
  6 C     0.04630   -0.24319   -0.01443
  7 C     0.32734   -0.30630    0.07269
  8 C    -1.32712   -1.11190   -0.61931
  9 C    -0.67848    1.29979   -0.05461
 10 C     0.37814    1.83880   -0.40630
 11 C    -1.73666    0.78832   -0.00503
 12 C    -0.30957   -0.30986    0.04042
 13 C     0.30608    0.01085    0.14235
 14 C     0.22260    0.25709    0.04416
 15 C     0.17915   -0.10888    0.17251
 16 C     0.34267   -0.05234    0.18551
 17 C    -0.19193   -0.02840   -0.14116
 18 C    -0.21716   -0.01010   -0.07664
 19 C    -0.34100    0.27960   -0.08326
 20 C    -0.72487   -1.66133   -0.47222
 21 C     1.33914   -0.38493    0.42099
 22 C     1.81722    0.66677   -0.05310
 23 C     0.96201   -1.50923    0.64327

System changes: positions 

Initializing position-dependent things.

Density initialized from wave functions
           .--------------------------------------.  
          /|                                      |  
         / |                                      |  
        /  |                                      |  
       /   |                                      |  
      /    |                                      |  
     /     |                                      |  
    /      |                                      |  
   /       |                                      |  
  /        |        C  C  C  C   C                |  
 *         |  C  C             C                  |  
 |         | C            CCCC                    |  
 |         .-C-------C-CCC------------------------.  
 |        /     C CC C                           /   
 |       /                                      /    
 |      /                                      /     
 |     /                                      /      
 |    /                                      /       
 |   /                                      /        
 |  /                                      /         
 | /                                      /          
 |/                                      /           
 *--------------------------------------*            

Positions:
   0 C      4.025276    9.240993    5.434950
   1 C      3.312871    8.191619    5.444623
   2 C      5.118264   10.018545    5.332464
   3 C      3.113070    6.878251    5.336147
   4 C      6.283732   10.478771    5.232266
   5 C      3.402049    5.638134    5.181187
   6 C      7.686637   10.403643    5.008252
   7 C      8.781483   11.259508    5.216909
   8 C      7.063578    7.849577    4.197220
   9 C      4.656227    5.182127    4.754717
  10 C      5.697059    6.208424    4.111053
  11 C      8.019836    9.077212    4.514212
  12 C      9.487574    4.633617    6.738451
  13 C      8.577527    3.750621    6.703642
  14 C     10.113583    5.804290    6.524252
  15 C      7.379834    3.277966    6.354437
  16 C     10.428297    6.983360    6.222369
  17 C      6.199988    3.275147    5.849762
  18 C     10.233157    8.255498    5.617135
  19 C     10.850814    9.514351    5.711328
  20 C      8.094607    6.977094    4.444680
  21 C      5.717096    4.287465    5.009501
  22 C      6.732592    5.335180    4.361806
  23 C      9.057247    8.200273    4.763442

Unit cell:
           periodic     x           y           z      points  spacing
  1. axis:    yes   16.000000    0.000000    0.000000    80     0.2000
  2. axis:    yes    0.000000   16.000000    0.000000    80     0.2000
  3. axis:    yes    0.000000    0.000000   10.000000    48     0.2083

Effective grid spacing dv^(1/3) = 0.2027

                     log10-error:    total        iterations:
           time      wfs    density  energy       fermi  poisson
iter:   1  15:14:26          +inf  -171.498515    3      5      
iter:   2  15:14:27         -1.87  -171.419983    3      2      
iter:   3  15:14:27         -2.05  -171.384407    3      2      
iter:   4  15:14:28         -2.19  -171.359987    3      2      
iter:   5  15:14:28         -2.45  -171.354068    2      2      
iter:   6  15:14:29         -2.63  -171.358135    2      1      
iter:   7  15:14:29         -2.65  -171.353651    3      2      
iter:   8  15:14:30         -2.96  -171.353127    2      1      
iter:   9  15:14:31         -3.05  -171.352493    2      2      
iter:  10  15:14:31         -3.37  -171.353021    2      1      
iter:  11  15:14:32         -3.46  -171.354295    2      1      
iter:  12  15:14:32         -3.74  -171.352693    2      1      
iter:  13  15:14:33         -3.83  -171.351981    2      1      
iter:  14  15:14:33         -3.93  -171.351948    2      1      
iter:  15  15:14:34         -4.09  -171.351845    2      1      

Converged after 15 iterations.

Dipole moment: (-0.489210, -0.561033, 0.102580) |e|*Ang

Energy contributions relative to reference atoms: (reference = -24663.074771)

Kinetic:        +89.097932
Potential:     -100.610899
External:        +0.000000
XC:            -162.610078
Entropy (-ST):   -0.270759
Local:           +2.906580
--------------------------
Free energy:   -171.487224
Extrapolated:  -171.351845

Fermi level: -4.18570

 Band  Eigenvalues  Occupancy
    0    -22.62105    2.00000
    1    -22.26520    2.00000
    2    -20.78035    2.00000
    3    -20.57213    2.00000
    4    -20.44810    2.00000
    5    -20.08252    2.00000
    6    -19.52632    2.00000
    7    -19.42764    2.00000
    8    -18.32717    2.00000
    9    -18.29318    2.00000
   10    -17.23242    2.00000
   11    -16.70185    2.00000
   12    -16.04747    2.00000
   13    -15.68072    2.00000
   14    -15.38002    2.00000
   15    -14.88844    2.00000
   16    -14.72163    2.00000
   17    -13.81700    2.00000
   18    -13.69007    2.00000
   19    -13.01307    2.00000
   20    -12.72094    2.00000
   21    -11.81052    2.00000
   22    -11.54444    2.00000
   23    -10.88523    2.00000
   24    -10.75617    2.00000
   25    -10.14460    2.00000
   26     -9.78889    2.00000
   27     -9.48188    2.00000
   28     -9.28724    2.00000
   29     -9.04935    2.00000
   30     -8.95260    2.00000
   31     -8.86155    2.00000
   32     -8.52857    2.00000
   33     -7.78645    2.00000
   34     -7.73424    2.00000
   35     -7.34058    2.00000
   36     -7.31312    2.00000
   37     -7.27460    2.00000
   38     -7.12608    2.00000
   39     -6.88007    2.00000
   40     -6.76489    2.00000
   41     -5.94677    2.00000
   42     -5.74914    2.00000
   43     -5.67935    2.00000
   44     -5.61077    2.00000
   45     -5.49417    2.00000
   46     -4.89932    1.99841
   47     -4.27134    1.40381
   48     -4.08316    0.52792
   49     -3.84713    0.06549
   50     -3.55779    0.00374
   51     -3.35708    0.00050
   52     -3.16009    0.00007
   53     -3.15183    0.00006
   54     -2.62620    0.00000
   55     -2.28984    0.00000
   56     -2.01721    0.00000
   57     -1.67848    0.00000
   58     -1.00157    0.00000
   59     -0.93834    0.00000
   60     -0.67844    0.00000
   61     -0.33031    0.00000
   62      0.35920    0.00000
   63      0.41253    0.00000
   64      1.13865    0.00000
   65      1.42438    0.00000
   66      1.88397    0.00000
   67      2.28709    0.00000
   68      3.06194    0.00000
   69      4.22244    0.00000
   70      4.80597    0.00000
   71      4.82088    0.00000
   72      5.20471    0.00000
   73      5.91830    0.00000
   74      5.99944    0.00000
   75      6.45582    0.00000
   76      6.48154    0.00000
   77      6.75531    0.00000
   78      7.48163    0.00000
   79      7.67529    0.00000
   80      7.82969    0.00000
   81      7.86359    0.00000
   82      8.03065    0.00000
   83      8.15270    0.00000
   84      8.42570    0.00000
   85      8.53060    0.00000
   86      8.83145    0.00000
   87      8.87705    0.00000
   88      9.05366    0.00000
   89      9.36522    0.00000
   90      9.44407    0.00000
   91      9.48856    0.00000
   92      9.71258    0.00000
   93      9.82454    0.00000
   94      9.86699    0.00000
   95     10.02621    0.00000
   96     10.09766    0.00000
   97     10.23073    0.00000


Forces in eV/Ang:
  0 C     0.12967    0.07689    0.00735
  1 C    -0.26060    0.08790    0.08369
  2 C    -0.15848    0.10018    0.09796
  3 C    -0.08334   -0.16087    0.02480
  4 C     0.04851    0.35540    0.03319
  5 C     0.12644    0.10704   -0.09657
  6 C     0.04827   -0.27290   -0.03602
  7 C     0.33277   -0.43236    0.06998
  8 C    -0.88428   -1.38031   -0.39752
  9 C     0.15004    1.01243    0.00078
 10 C     1.01124    1.23083   -0.08437
 11 C    -1.10076   -0.18775    0.14411
 12 C     0.02821    0.12632   -0.00295
 13 C     0.07328   -0.21213    0.15558
 14 C     0.09728   -0.09699    0.14204
 15 C    -0.14471   -0.11681    0.01130
 16 C     0.32898    0.10454    0.11046
 17 C     0.10632    0.14177   -0.09945
 18 C    -0.24441   -0.01689   -0.11154
 19 C    -0.46637    0.25634   -0.13131
 20 C    -1.08206   -1.20750   -0.44901
 21 C     0.94691    0.36147    0.19016
 22 C     1.05108    1.21813   -0.05433
 23 C    -0.07608   -1.05108    0.37672

System changes: positions 

Initializing position-dependent things.

Density initialized from wave functions
           .--------------------------------------.  
          /|                                      |  
         / |                                      |  
        /  |                                      |  
       /   |                                      |  
      /    |                                      |  
     /     |                                      |  
    /      |                                      |  
   /       |                                      |  
[...]

Kinetic:       +105.052257
Potential:     -112.611606
External:        +0.000000
XC:            -177.129044
Entropy (-ST):   -0.009929
Local:           +3.074184
--------------------------
Free energy:   -181.624138
Extrapolated:  -181.619174

Fermi level: -4.03354

 Band  Eigenvalues  Occupancy
    0    -23.48727    2.00000
    1    -21.99186    2.00000
    2    -20.83825    2.00000
    3    -20.44122    2.00000
    4    -20.14971    2.00000
    5    -19.97997    2.00000
    6    -19.34180    2.00000
    7    -19.14821    2.00000
    8    -18.53942    2.00000
    9    -17.80935    2.00000
   10    -17.78459    2.00000
   11    -16.78778    2.00000
   12    -16.70548    2.00000
   13    -15.67896    2.00000
   14    -15.31956    2.00000
   15    -14.89254    2.00000
   16    -14.72410    2.00000
   17    -13.82683    2.00000
   18    -13.27054    2.00000
   19    -13.24332    2.00000
   20    -12.95488    2.00000
   21    -12.37097    2.00000
   22    -11.87899    2.00000
   23    -11.28866    2.00000
   24    -11.09851    2.00000
   25    -10.45833    2.00000
   26    -10.12356    2.00000
   27     -9.73964    2.00000
   28     -9.49543    2.00000
   29     -8.96724    2.00000
   30     -8.87818    2.00000
   31     -8.75918    2.00000
   32     -8.73737    2.00000
   33     -8.36852    2.00000
   34     -8.16384    2.00000
   35     -7.84654    2.00000
   36     -7.41543    2.00000
   37     -7.28756    2.00000
   38     -7.03081    2.00000
   39     -6.95384    2.00000
   40     -6.88904    2.00000
   41     -6.13129    2.00000
   42     -5.98430    2.00000
   43     -5.48553    2.00000
   44     -5.23181    1.99999
   45     -4.95890    1.99981
   46     -4.87304    1.99955
   47     -4.60878    1.99367
   48     -3.44432    0.00551
   49     -3.31251    0.00148
   50     -2.71375    0.00000
   51     -2.49271    0.00000
   52     -2.33446    0.00000
   53     -1.85100    0.00000
   54     -1.72576    0.00000
   55     -0.77958    0.00000
   56     -0.67798    0.00000
   57     -0.49840    0.00000
   58     -0.48502    0.00000
   59     -0.21313    0.00000
   60     -0.16174    0.00000
   61      0.33915    0.00000
   62      1.35370    0.00000
   63      1.64710    0.00000
   64      2.10615    0.00000
   65      2.82513    0.00000
   66      3.36564    0.00000
   67      3.89236    0.00000
   68      4.12109    0.00000
   69      4.56327    0.00000
   70      5.36397    0.00000
   71      5.94858    0.00000
   72      6.29444    0.00000
   73      6.44673    0.00000
   74      7.08968    0.00000
   75      7.35807    0.00000
   76      7.47751    0.00000
   77      7.85155    0.00000
   78      8.28000    0.00000
   79      8.45348    0.00000
   80      8.52970    0.00000
   81      8.79262    0.00000
   82      8.85627    0.00000
   83      8.88068    0.00000
   84      9.12766    0.00000
   85      9.16905    0.00000
   86      9.47070    0.00000
   87      9.60100    0.00000
   88      9.62739    0.00000
   89      9.75165    0.00000
   90      9.91111    0.00000
   91      9.91877    0.00000
   92     10.03479    0.00000
   93     10.11196    0.00000
   94     10.21682    0.00000
   95     10.35302    0.00000
   96     10.54111    0.00000
   97     10.65438    0.00000


Forces in eV/Ang:
  0 C     0.04344   -0.02315   -0.12491
  1 C     0.00988   -0.01468    0.04086
  2 C    -0.07382    0.00019    0.03708
  3 C    -0.09859    0.00727    0.10873
  4 C     0.09739   -0.10067    0.04697
  5 C     0.08562   -0.05719    0.05168
  6 C    -0.06829   -0.03275   -0.02481
  7 C     0.01501    0.06774    0.02276
  8 C    -0.09605    0.12152    0.08516
  9 C    -0.15661    0.08183   -0.04174
 10 C     0.09421    0.00897   -0.14761
 11 C     0.08367   -0.02477   -0.05930
 12 C    -0.10781   -0.11587   -0.12396
 13 C     0.15038    0.09740    0.05300
 14 C     0.00014    0.21702   -0.07958
 15 C    -0.09471   -0.04842    0.07313
 16 C    -0.05736   -0.17990    0.12974
 17 C    -0.05554    0.05725    0.02170
 18 C    -0.05683   -0.00962   -0.03251
 19 C     0.07490    0.02002    0.04923
 20 C     0.11071   -0.04555    0.10609
 21 C     0.11457   -0.16628    0.02613
 22 C     0.04201    0.05858   -0.13959
 23 C    -0.05986    0.06007   -0.10962

System changes: positions 

Initializing position-dependent things.

Density initialized from wave functions
           .--------------------------------------.  
          /|                                      |  
         / |                                      |  
        /  |                                      |  
       /   |                                      |  
      /    |                                      |  
     /     |                                      |  
    /      |                                      |  
   /       |                                      |  
  /        |    C   C  C    C C                   |  
 *         |  C          C    CC                  |  
 |         | C           C  C                     |  
 |         .--C-----C-C----C----------------------.  
 |        /      C C  C  C                       /   
 |       /            C                         /    
 |      /                                      /     
 |     /                                      /      
 |    /                                      /       
 |   /                                      /        
 |  /                                      /         
 | /                                      /          
 |/                                      /           
 *--------------------------------------*            

Positions:
   0 C      3.731752    9.760631    5.567475
   1 C      3.248168    8.585624    5.620356
   2 C      4.950919   10.319786    5.365298
   3 C      3.197794    7.255425    5.431464
   4 C      6.174987   10.532390    5.153683
   5 C      3.900040    6.211739    5.257688
   6 C      7.427467    9.880478    5.050498
   7 C      8.661974   10.094543    5.719078
   8 C      6.819785    7.529616    3.694249
   9 C      5.031911    5.652315    4.667052
  10 C      5.905450    6.452700    3.770302
  11 C      7.590229    8.599171    4.381431
  12 C      9.992779    4.486080    7.072123
  13 C      8.922075    3.803750    6.976304
  14 C     10.416552    5.714111    6.683073
  15 C      7.712732    3.450025    6.507503
  16 C     10.504960    6.875628    6.199825
  17 C      6.673415    3.880624    5.916190
  18 C      9.751337    7.917473    5.612369
  19 C      9.611746    9.290092    5.949152
  20 C      7.960301    6.568637    3.968210
  21 C      6.146191    4.717135    4.934301
  22 C      7.032748    5.503740    4.040567
  23 C      8.692280    7.669630    4.646513

Unit cell:
           periodic     x           y           z      points  spacing
  1. axis:    yes   16.000000    0.000000    0.000000    80     0.2000
  2. axis:    yes    0.000000   16.000000    0.000000    80     0.2000
  3. axis:    yes    0.000000    0.000000   10.000000    48     0.2083

Effective grid spacing dv^(1/3) = 0.2027

                     log10-error:    total        iterations:
           time      wfs    density  energy       fermi  poisson
iter:   1  15:21:22          +inf  -181.626267    2      5      
iter:   2  15:21:23         -2.80  -181.624649    2      1      
iter:   3  15:21:23         -2.94  -181.622992    2      1      
iter:   4  15:21:24         -3.21  -181.622465    2      1      
iter:   5  15:21:24         -3.41  -181.623217    2      1      
iter:   6  15:21:25         -3.19  -181.624339    2      1      
iter:   7  15:21:25         -3.81  -181.624377    2      1      
iter:   8  15:21:26         -3.22  -181.623889    2      1      
iter:   9  15:21:26         -4.37  -181.624055    1      1      

Converged after 9 iterations.

Dipole moment: (-0.028503, -0.042401, -0.044611) |e|*Ang

Energy contributions relative to reference atoms: (reference = -24663.074771)

Kinetic:       +105.540910
Potential:     -113.008133
External:        +0.000000
XC:            -177.237447
Entropy (-ST):   -0.010158
Local:           +3.085695
--------------------------
Free energy:   -181.629134
Extrapolated:  -181.624055

Fermi level: -4.03154

 Band  Eigenvalues  Occupancy
    0    -23.48061    2.00000
    1    -21.99440    2.00000
    2    -20.83572    2.00000
    3    -20.44453    2.00000
    4    -20.14765    2.00000
    5    -19.98670    2.00000
    6    -19.34738    2.00000
    7    -19.14548    2.00000
    8    -18.54671    2.00000
    9    -17.81120    2.00000
   10    -17.78502    2.00000
   11    -16.78241    2.00000
   12    -16.70888    2.00000
   13    -15.67757    2.00000
   14    -15.31810    2.00000
   15    -14.89350    2.00000
   16    -14.72640    2.00000
   17    -13.83572    2.00000
   18    -13.26791    2.00000
   19    -13.24261    2.00000
   20    -12.95905    2.00000
   21    -12.38066    2.00000
   22    -11.88374    2.00000
   23    -11.26503    2.00000
   24    -11.10075    2.00000
   25    -10.45720    2.00000
   26    -10.12808    2.00000
   27     -9.74315    2.00000
   28     -9.49703    2.00000
   29     -8.96929    2.00000
   30     -8.87785    2.00000
   31     -8.75973    2.00000
   32     -8.73569    2.00000
   33     -8.36600    2.00000
   34     -8.16839    2.00000
   35     -7.84570    2.00000
   36     -7.41393    2.00000
   37     -7.28965    2.00000
   38     -7.03078    2.00000
   39     -6.95866    2.00000
   40     -6.89234    2.00000
   41     -6.13898    2.00000
   42     -5.98356    2.00000
   43     -5.48635    2.00000
   44     -5.23507    1.99999
   45     -4.95409    1.99980
   46     -4.86744    1.99953
   47     -4.60419    1.99350
   48     -3.44483    0.00565
   49     -3.31363    0.00152
   50     -2.71889    0.00000
   51     -2.48692    0.00000
   52     -2.33184    0.00000
   53     -1.83205    0.00000
   54     -1.71851    0.00000
   55     -0.76273    0.00000
   56     -0.68808    0.00000
   57     -0.49496    0.00000
   58     -0.47788    0.00000
   59     -0.20811    0.00000
   60     -0.14626    0.00000
   61      0.34296    0.00000
   62      1.35710    0.00000
   63      1.65745    0.00000
   64      2.10233    0.00000
   65      2.81509    0.00000
   66      3.33485    0.00000
   67      3.91560    0.00000
   68      4.13859    0.00000
   69      4.57374    0.00000
   70      5.36563    0.00000
   71      5.92736    0.00000
   72      6.28240    0.00000
   73      6.45619    0.00000
   74      7.08823    0.00000
   75      7.34471    0.00000
   76      7.47476    0.00000
   77      7.85537    0.00000
   78      8.28905    0.00000
   79      8.46741    0.00000
   80      8.54157    0.00000
   81      8.79848    0.00000
   82      8.87770    0.00000
   83      8.88405    0.00000
   84      9.11744    0.00000
   85      9.18177    0.00000
   86      9.47157    0.00000
   87      9.61373    0.00000
   88      9.63676    0.00000
   89      9.75972    0.00000
   90      9.91185    0.00000
   91      9.92200    0.00000
   92     10.04389    0.00000
   93     10.12666    0.00000
   94     10.22177    0.00000
   95     10.34558    0.00000
   96     10.54787    0.00000
   97     10.64457    0.00000


Forces in eV/Ang:
  0 C     0.00285    0.02510   -0.10908
  1 C    -0.00992   -0.01223    0.03604
  2 C    -0.04262    0.01000    0.02715
  3 C    -0.09635   -0.04900    0.07184
  4 C     0.04413   -0.06303    0.02724
  5 C     0.08706   -0.03055    0.03780
  6 C    -0.03360   -0.06081    0.02056
  7 C     0.02336    0.02991    0.03106
  8 C    -0.05314    0.10768    0.05974
  9 C    -0.09690    0.04296   -0.02605
 10 C     0.03862    0.01392   -0.08951
 11 C     0.07780   -0.03056   -0.06090
 12 C    -0.03642   -0.07399   -0.09502
 13 C     0.07830    0.05116    0.05899
 14 C     0.00002    0.06891   -0.01934
 15 C    -0.12887   -0.04640    0.04036
 16 C    -0.05264   -0.01964    0.03877
 17 C    -0.00626    0.04897    0.04393
 18 C    -0.04549   -0.00061   -0.00536
 19 C     0.04115    0.03593    0.03602
 20 C     0.08765   -0.03823    0.06671
 21 C     0.05976   -0.08053    0.00697
 22 C     0.04843    0.03058   -0.09846
 23 C    -0.03432    0.05987   -0.09761

System changes: positions 

Initializing position-dependent things.

Density initialized from wave functions
           .--------------------------------------.  
          /|                                      |  
         / |                                      |  
        /  |                                      |  
       /   |                                      |  
      /    |                                      |  
     /     |                                      |  
    /      |                                      |  
   /       |                                      |  
  /        |    C   C  C    C C                   |  
 *         |  C          C    CC                  |  
 |         | C           C  C                     |  
 |         .--C-----C-C----C----------------------.  
 |        /      C C  C  C                       /   
 |       /            C                         /    
 |      /                                      /     
 |     /                                      /      
 |    /                                      /       
 |   /                                      /        
 |  /                                      /         
 | /                                      /          
 |/                                      /           
 *--------------------------------------*            

Positions:
   0 C      3.738868    9.753215    5.559174
   1 C      3.254739    8.578535    5.619586
   2 C      4.956079   10.317818    5.368125
   3 C      3.184679    7.247643    5.431690
   4 C      6.181076   10.530965    5.157235
   5 C      3.894658    6.206526    5.259086
   6 C      7.433542    9.885691    5.047738
   7 C      8.668672   10.101004    5.717851
   8 C      6.818571    7.532055    3.708141
   9 C      5.024650    5.647637    4.664863
  10 C      5.905748    6.451393    3.771839
  11 C      7.595645    8.605082    4.378795
  12 C      9.985191    4.490825    7.060063
  13 C      8.915557    3.808268    6.972799
  14 C     10.412300    5.719967    6.681629
  15 C      7.706691    3.437780    6.509269
  16 C     10.502907    6.882596    6.201961
  17 C      6.668514    3.873962    5.918090
  18 C      9.756382    7.924533    5.608263
  19 C      9.619518    9.297190    5.948474
  20 C      7.958922    6.570902    3.980670
  21 C      6.143453    4.708045    4.932752
  22 C      7.031779    5.503978    4.041924
  23 C      8.697496    7.675659    4.642982

Unit cell:
           periodic     x           y           z      points  spacing
  1. axis:    yes   16.000000    0.000000    0.000000    80     0.2000
  2. axis:    yes    0.000000   16.000000    0.000000    80     0.2000
  3. axis:    yes    0.000000    0.000000   10.000000    48     0.2083

Effective grid spacing dv^(1/3) = 0.2027

                     log10-error:    total        iterations:
           time      wfs    density  energy       fermi  poisson
iter:   1  15:21:28          +inf  -181.634836    2      5      
iter:   2  15:21:28         -2.54  -181.631783    2      1      
iter:   3  15:21:29         -2.69  -181.629984    2      1      
iter:   4  15:21:29         -3.02  -181.628028    2      2      
iter:   5  15:21:30         -3.18  -181.628973    1      1      
iter:   6  15:21:30         -3.18  -181.629807    1      1      
iter:   7  15:21:31         -3.67  -181.628693    2      1      
iter:   8  15:21:31         -3.27  -181.627442    1      1      
iter:   9  15:21:32         -4.19  -181.627416    1      1      

Converged after 9 iterations.

Dipole moment: (-0.015090, -0.030315, -0.048339) |e|*Ang

Energy contributions relative to reference atoms: (reference = -24663.074771)

Kinetic:       +104.753251
Potential:     -112.400697
External:        +0.000000
XC:            -177.045101
Entropy (-ST):   -0.010463
Local:           +3.070362
--------------------------
Free energy:   -181.632648
Extrapolated:  -181.627416

Fermi level: -4.03718

 Band  Eigenvalues  Occupancy
    0    -23.47065    2.00000
    1    -21.99503    2.00000
    2    -20.82860    2.00000
    3    -20.44487    2.00000
    4    -20.13985    2.00000
    5    -19.99200    2.00000
    6    -19.35282    2.00000
    7    -19.14207    2.00000
    8    -18.55555    2.00000
    9    -17.80455    2.00000
   10    -17.78428    2.00000
   11    -16.77447    2.00000
   12    -16.71272    2.00000
   13    -15.67465    2.00000
   14    -15.30947    2.00000
   15    -14.89328    2.00000
   16    -14.73411    2.00000
   17    -13.84764    2.00000
   18    -13.26062    2.00000
   19    -13.24378    2.00000
   20    -12.95349    2.00000
   21    -12.38932    2.00000
   22    -11.89297    2.00000
   23    -11.22882    2.00000
   24    -11.10714    2.00000
   25    -10.45800    2.00000
   26    -10.13922    2.00000
   27     -9.74626    2.00000
   28     -9.49903    2.00000
   29     -8.96724    2.00000
   30     -8.87387    2.00000
   31     -8.75293    2.00000
   32     -8.72941    2.00000
   33     -8.36932    2.00000
   34     -8.17198    2.00000
   35     -7.84375    2.00000
   36     -7.41698    2.00000
   37     -7.28919    2.00000
   38     -7.03314    2.00000
   39     -6.96469    2.00000
   40     -6.90241    2.00000
   41     -6.16150    2.00000
   42     -5.98444    2.00000
   43     -5.48219    2.00000
   44     -5.23654    1.99999
   45     -4.94955    1.99978
   46     -4.86486    1.99949
   47     -4.60702    1.99332
   48     -3.45444    0.00587
   49     -3.32038    0.00154
   50     -2.73912    0.00000
   51     -2.46985    0.00000
   52     -2.32980    0.00000
   53     -1.82037    0.00000
   54     -1.71342    0.00000
   55     -0.75685    0.00000
   56     -0.71647    0.00000
   57     -0.51535    0.00000
   58     -0.46817    0.00000
   59     -0.20854    0.00000
   60     -0.15463    0.00000
   61      0.34670    0.00000
   62      1.34591    0.00000
   63      1.64801    0.00000
   64      2.08666    0.00000
   65      2.79332    0.00000
   66      3.27229    0.00000
   67      3.91924    0.00000
   68      4.13733    0.00000
   69      4.55039    0.00000
   70      5.34997    0.00000
   71      5.87347    0.00000
   72      6.23840    0.00000
   73      6.45341    0.00000
   74      7.07979    0.00000
   75      7.31681    0.00000
   76      7.46130    0.00000
   77      7.85534    0.00000
   78      8.26934    0.00000
   79      8.47098    0.00000
   80      8.56065    0.00000
   81      8.80291    0.00000
   82      8.88325    0.00000
   83      8.90249    0.00000
   84      9.09192    0.00000
   85      9.19415    0.00000
   86      9.47163    0.00000
   87      9.62407    0.00000
   88      9.63289    0.00000
   89      9.76801    0.00000
   90      9.90300    0.00000
   91      9.92485    0.00000
   92     10.04048    0.00000
   93     10.16099    0.00000
   94     10.21943    0.00000
   95     10.33348    0.00000
   96     10.55173    0.00000
   97     10.62354    0.00000


Forces in eV/Ang:
  0 C    -0.02287   -0.00867   -0.07582
  1 C    -0.01659   -0.06366    0.01544
  2 C     0.05414    0.00450   -0.01438
  3 C    -0.01003   -0.05401    0.07575
  4 C    -0.08114   -0.02188    0.02114
  5 C     0.05433    0.02855    0.01909
  6 C     0.02418   -0.04152    0.07996
  7 C     0.02198    0.00072   -0.00555
  8 C    -0.06488    0.04934   -0.02706
  9 C     0.07540    0.01594   -0.03028
 10 C    -0.05876    0.03865    0.01241
 11 C     0.05469   -0.01958   -0.05768
 12 C     0.01549   -0.06941   -0.04814
 13 C    -0.05625   -0.03803    0.02525
 14 C    -0.00152    0.07437   -0.04240
 15 C    -0.08186    0.01164    0.04165
 16 C    -0.01982   -0.03387    0.02183
 17 C     0.00749    0.06721    0.01558
 18 C    -0.04750    0.00679    0.06074
 19 C    -0.00324    0.03965   -0.01718
 20 C     0.06212   -0.01457    0.01224
 21 C     0.00595    0.05155   -0.04754
 22 C     0.03429   -0.04693    0.02187
 23 C    -0.01348    0.03615   -0.06981

