
  ___ ___ ___ _ _ _  
 |   |   |_  | | | | 
 | | | | | . | | | | 
 |__ |  _|___|_____|  1.3.0b1
 |___|_|             

User:   esb@s65n33.grendel.cscaa.dk
Date:   Thu Nov  9 11:13:08 2017
Arch:   x86_64
Pid:    75779
Python: 2.7.13
gpaw:   /home/esb/DFT/gpaw_git/gpaw
_gpaw:  /home/esb/DFT/gpaw_git/build/bin.linux-x86_64-2.7/gpaw-python
ase:    /home/esb/DFT/ase_git/ase (version 3.15.0b1)
numpy:  /comm/swstack/core/python/2.7.13/lib/python2.7/site-packages/numpy (version 1.13.3)
scipy:  /comm/swstack/core/python/2.7.13/lib/python2.7/site-packages/scipy (version 0.19.1)
units:  Angstrom and eV
cores:  16
Extra parameters: {'blacs': True}

Input parameters:
  basis: dzp
  gpts: [80 80 48]
  kpts: [1 1 1]
  maxiter: 99
  mixer: {backend: pulay,
          beta: 0.05,
          method: separate,
          nmaxold: 5,
          weight: 75}
  mode: lcao
  nbands: -50
  occupations: {name: fermi-dirac,
                width: 0.1}
  poissonsolver: {eps: 1e-07,
                  name: fd,
                  nn: 3,
                  relax: GS}
  xc: PBE

System changes: positions, numbers, cell, pbc, initial_charges, initial_magmoms 

Initialize ...

C-setup:
  name: Carbon
  id: 4aa54d4b901d75f77cc0ea3eec22967b
  Z: 6
  valence: 4
  core: 2
  charge: 0.0
  file: /home/esb/DFT/gpaw-setups-0.8.7929/C.PBE.gz
  cutoffs: 0.64(comp), 1.14(filt), 1.14(core), lmax=2
  valence states:
                energy  radius
    2s(2.00)   -13.751   0.635
    2p(2.00)    -5.284   0.635
    *s          13.461   0.635
    *p          21.927   0.635
    *d           0.000   0.635

  LCAO basis set for C:
    Name: dzp
    File: /home/esb/DFT/gpaw-setups-0.8.7929/C.dzp.basis.gz
    Number of radial functions: 5
    Number of spherical harmonics: 13
      l=0, rc=5.5469 Bohr: 2s-sz confined orbital
      l=1, rc=6.6719 Bohr: 2p-sz confined orbital
      l=0, rc=3.0312 Bohr: 2s-dz split-valence wave
      l=1, rc=3.7500 Bohr: 2p-dz split-valence wave
      l=2, rc=6.6719 Bohr: d-type Gaussian polarization

Reference energy: -24663.074771

Spin-paired calculation

Occupation numbers:
  Fermi-Dirac: width=0.1000 eV

Convergence criteria:
  Maximum total energy change: 0.0005 eV / electron
  Maximum integral of absolute density change: 0.0001 electrons
  Maximum integral of absolute eigenstate change: 4e-08 eV^2
  Maximum number of iterations: 99

Symmetries present (total): 1

  ( 1  0  0)
  ( 0  1  0)
  ( 0  0  1)

1 k-point (Gamma)
1 k-point in the irreducible part of the Brillouin zone
       k-points in crystal coordinates                weights
   0:     0.00000000    0.00000000    0.00000000          1/1

Wave functions: LCAO
  Diagonalizer: Serial LAPACK
  Atomic Correction: dense with blas
  Datatype: float
  Eigensolver: None 

LCAO using direct dense diagonalizer 

Densities:
  Coarse grid: 80*80*48 grid
  Fine grid: 160*160*96 grid
  Total Charge: 0.000000 

Density mixing:
  Method: separate
  Backend: pulay
  Linear mixing parameter: 0.05
  Mixing with 5 old densities
  Damping of long wave oscillations: 75 

Hamiltonian:
  XC and Coulomb potentials evaluated on a 160*160*96 grid
  Using the PBE Exchange-Correlation functional
  Interpolation: tri-quintic (5. degree polynomial)
  Poisson solver: Gauss-Seidel solver with 6 multi-grid levels
    Coarsest grid: 5 x 5 x 3 points
    Stencil: 6*3+1=19 point O(h^6) finite-difference Laplacian
    Max iterations: 1000
    Tolerance: 1.000000e-07 

Memory estimate:
  Process memory now: 77.56 MiB
  Calculator: 15.59 MiB
    Density: 6.13 MiB
      Arrays: 3.81 MiB
      Localized functions: 0.86 MiB
      Mixer: 1.46 MiB
    Hamiltonian: 5.40 MiB
      Arrays: 2.49 MiB
      XC: 0.00 MiB
      Poisson: 2.85 MiB
      vbar: 0.07 MiB
    Wavefunctions: 4.05 MiB
      C [qnM]: 0.23 MiB
      S, T [2 x qmm]: 1.49 MiB
      P [aqMi]: 0.01 MiB
      TCI: 0.00 MiB
      BasisFunctions: 2.33 MiB
      Eigensolver: 0.00 MiB

Total number of cores used: 16
Domain decomposition: 2 x 4 x 2

Number of atoms: 24
Number of atomic orbitals: 312
Number of bands in calculation: 98
Bands to converge: occupied states only
Number of valence electrons: 96

... initialized

Initializing position-dependent things.

Density initialized from atomic densities
           .--------------------------------------.  
          /|                                      |  
         / |                                      |  
        /  |                                      |  
       /   |                                      |  
      /    |                                      |  
     /     |                                      |  
    /      |                                      |  
   /       |                                      |  
  /       C|                               C  C   |  
 *         |  CC                    C   C         |  
 |         |      C  C     C  C   C               |  
 |         .--CC--C--C----------------------------.  
 |        /   C       CC                         /   
 |       /      C     C                         /    
 |      /             C                        /     
 |     /          C                           /      
 |    /                                      /       
 |   /                                      /        
 |  /                                      /         
 | /                                      /          
 |/                                      /           
 *--------------------------------------*            

Positions:
   0 C      8.056090    1.899608    4.625320
   1 C      7.144349    5.803821    4.487939
   2 C      6.361011    1.826953    4.381580
   3 C      4.608842    3.479230    5.519144
   4 C      7.742349    3.284970    4.556233
   5 C      5.475356    2.547808    5.380250
   6 C      7.606997    4.626565    4.444737
   7 C      4.277668    4.765506    5.438223
   8 C      6.475197    7.006545    4.592228
   9 C      5.062943    7.136226    4.972492
  10 C      4.278956    6.028984    5.283401
  11 C      4.733790    8.568184    4.941612
  12 C      9.499476    9.196423    4.361138
  13 C      5.904991    9.281721    4.540395
  14 C      8.327668    8.733507    4.318860
  15 C      1.161844    9.349797    5.915689
  16 C     13.300221   10.241110    4.514336
  17 C      3.472503    9.088549    5.173458
  18 C     11.162442   10.065125    3.946611
  19 C      6.942840    7.773865    3.755753
  20 C     14.489020   10.277494    5.146169
  21 C     15.796336   10.186026    5.302523
  22 C     11.954845    9.956724    4.720559
  23 C      2.581657    9.979074    4.531961

Unit cell:
           periodic     x           y           z      points  spacing
  1. axis:    yes   16.000000    0.000000    0.000000    80     0.2000
  2. axis:    yes    0.000000   16.000000    0.000000    80     0.2000
  3. axis:    yes    0.000000    0.000000   10.000000    48     0.2083

Effective grid spacing dv^(1/3) = 0.2027

                     log10-error:    total        iterations:
           time      wfs    density  energy       fermi  poisson
iter:   1  11:13:09          +inf  -166.477490    3      6      
iter:   2  11:13:10         -0.90  -165.244413    3      3      
iter:   3  11:13:10         -0.94  -163.376893    3      3      
iter:   4  11:13:11         -1.03  -162.253830    4      3      
iter:   5  11:13:11         -1.18  -161.801014    33     3      
iter:   6  11:13:12         -1.44  -161.679413    4      3      
iter:   7  11:13:13         -1.67  -161.654433    3      2      
iter:   8  11:13:13         -1.74  -161.647107    3      3      
iter:   9  11:13:14         -1.87  -161.626580    3      2      
iter:  10  11:13:14         -2.06  -161.618683    3      2      
iter:  11  11:13:15         -2.25  -161.610873    3      2      
iter:  12  11:13:15         -2.60  -161.607484    3      2      
iter:  13  11:13:16         -2.71  -161.606798    3      2      
iter:  14  11:13:16         -2.85  -161.607985    2      1      
iter:  15  11:13:17         -2.90  -161.604240    2      2      
iter:  16  11:13:17         -3.18  -161.604159    2      1      
iter:  17  11:13:18         -3.29  -161.603647    2      1      
iter:  18  11:13:18         -3.48  -161.601580    2      1      
iter:  19  11:13:18         -3.57  -161.599095    2      1      
iter:  20  11:13:19         -3.73  -161.601224    2      1      
iter:  21  11:13:19         -3.90  -161.603084    2      1      
iter:  22  11:13:20         -4.10  -161.603421    2      1      

Converged after 22 iterations.

Dipole moment: (16.177539, -0.435066, 0.265559) |e|*Ang

Energy contributions relative to reference atoms: (reference = -24663.074771)

Kinetic:        +87.015665
Potential:     -100.290817
External:        +0.000000
XC:            -151.014471
Entropy (-ST):   -0.393776
Local:           +2.883090
--------------------------
Free energy:   -161.800309
Extrapolated:  -161.603421

Fermi level: -4.86840

 Band  Eigenvalues  Occupancy
    0    -23.03204    2.00000
    1    -21.12737    2.00000
    2    -20.93857    2.00000
    3    -20.87824    2.00000
    4    -20.25985    2.00000
    5    -19.51561    2.00000
    6    -19.49060    2.00000
    7    -18.94848    2.00000
    8    -17.99192    2.00000
    9    -17.77224    2.00000
   10    -17.45493    2.00000
   11    -17.08334    2.00000
   12    -16.30336    2.00000
   13    -15.77521    2.00000
   14    -15.18936    2.00000
   15    -14.34097    2.00000
   16    -14.28037    2.00000
   17    -14.14253    2.00000
   18    -13.26798    2.00000
   19    -12.94942    2.00000
   20    -11.78708    2.00000
   21    -11.63905    2.00000
   22    -10.28496    2.00000
   23    -10.07205    2.00000
   24     -9.89297    2.00000
   25     -9.55097    2.00000
   26     -9.24030    2.00000
   27     -9.22451    2.00000
   28     -9.04131    2.00000
   29     -9.02539    2.00000
   30     -8.75487    2.00000
   31     -8.54224    2.00000
   32     -8.18516    2.00000
   33     -7.92239    2.00000
   34     -7.77398    2.00000
   35     -7.61490    2.00000
   36     -7.53271    2.00000
   37     -7.23098    2.00000
   38     -7.02028    2.00000
   39     -6.70733    2.00000
   40     -6.39375    2.00000
   41     -6.27199    2.00000
   42     -6.09020    1.99999
   43     -5.93033    1.99995
   44     -5.78389    1.99979
   45     -5.44098    1.99350
   46     -5.05595    1.73417
   47     -4.91881    1.24683
   48     -4.85491    0.93264
   49     -4.55868    0.08645
   50     -4.29847    0.00667
   51     -3.48597    0.00000
   52     -3.45844    0.00000
   53     -3.04505    0.00000
   54     -2.94479    0.00000
   55     -2.75050    0.00000
   56     -1.99711    0.00000
   57     -1.73720    0.00000
   58     -1.67901    0.00000
   59     -0.93047    0.00000
   60     -0.48841    0.00000
   61     -0.30793    0.00000
   62     -0.24034    0.00000
   63      0.03573    0.00000
   64      0.18597    0.00000
   65      0.51477    0.00000
   66      0.87198    0.00000
   67      1.32873    0.00000
   68      1.48808    0.00000
   69      1.80396    0.00000
   70      2.41261    0.00000
   71      2.68919    0.00000
   72      2.96362    0.00000
   73      3.07195    0.00000
   74      3.66519    0.00000
   75      4.00259    0.00000
   76      4.27988    0.00000
   77      5.84527    0.00000
   78      6.05966    0.00000
   79      6.50754    0.00000
   80      6.89830    0.00000
   81      6.99712    0.00000
   82      7.60197    0.00000
   83      7.90453    0.00000
   84      8.30733    0.00000
   85      8.52041    0.00000
   86      8.70481    0.00000
   87      8.76919    0.00000
   88      8.85284    0.00000
   89      9.05452    0.00000
   90      9.40491    0.00000
   91      9.44887    0.00000
   92      9.52095    0.00000
   93      9.62944    0.00000
   94      9.67325    0.00000
   95      9.77938    0.00000
   96      9.82368    0.00000
   97      9.96679    0.00000


Forces in eV/Ang:
  0 C    -3.64591    3.36923   -1.12279
  1 C     0.49387   -2.52973    1.35422
  2 C     0.91809    2.28337    4.36934
  3 C    -0.37689    0.45626   -0.30297
  4 C     1.12642   -3.29069   -0.23438
  5 C     2.06228   -2.49648   -3.31999
  6 C    -0.28116   -0.08586    0.25720
  7 C     0.31830   -0.16953    0.41448
  8 C    -4.79668   -8.95808    5.46704
  9 C    -1.39843    0.35646    0.81642
 10 C     0.23990    0.33750    0.14115
 11 C     1.43804   -2.31554    0.19667
 12 C     3.07774    2.07501   -1.64271
 13 C     0.45688   -0.40085   -1.18059
 14 C    -1.90512   -2.52786   -2.34930
 15 C    -3.49071    3.86216   -3.85750
 16 C     1.48709   -0.60553    3.84911
 17 C    -2.90476    4.33171   -3.64331
 18 C   -22.75015   -1.45713  -12.59629
 19 C     7.18692   14.94642   -4.00974
 20 C    -0.51670   -0.19817   -1.58750
 21 C     3.86439   -2.86633    2.14670
 22 C    18.64999   -0.27203   12.03667
 23 C     0.64768   -3.90762    4.86403

System changes: positions 

Initializing position-dependent things.

Density initialized from wave functions
           .--------------------------------------.  
          /|                                      |  
         / |                                      |  
        /  |                                      |  
       /   |                                      |  
      /    |                                      |  
     /     |                                      |  
    /      |                                      |  
   /       |                                      |  
  /       C|                               C  C   |  
 *         |  CC                    C   C         |  
 |         |      C  C     C  C   C               |  
 |         .--CC--C--C----------------------------.  
 |        /   C       CC                         /   
 |       /      C     C                         /    
 |      /             C                        /     
 |     /          C                           /      
 |    /                                      /       
 |   /                                      /        
 |  /                                      /         
 | /                                      /          
 |/                                      /           
 *--------------------------------------*            

Positions:
   0 C      8.050491    1.904782    4.623596
   1 C      7.145107    5.799936    4.490019
   2 C      6.362421    1.830460    4.388290
   3 C      4.608263    3.479930    5.518678
   4 C      7.744079    3.279916    4.555873
   5 C      5.478523    2.543973    5.375151
   6 C      7.606565    4.626433    4.445132
   7 C      4.278156    4.765246    5.438860
   8 C      6.467830    6.992787    4.600624
   9 C      5.060796    7.136773    4.973746
  10 C      4.279325    6.029503    5.283617
  11 C      4.735999    8.564628    4.941914
  12 C      9.504203    9.199609    4.358615
  13 C      5.905693    9.281105    4.538582
  14 C      8.324742    8.729625    4.315252
  15 C      1.156483    9.355729    5.909765
  16 C     13.302505   10.240180    4.520247
  17 C      3.468042    9.095201    5.167862
  18 C     11.127503   10.062887    3.927266
  19 C      6.953878    7.796819    3.749595
  20 C     14.488226   10.277190    5.143731
  21 C     15.802271   10.181624    5.305820
  22 C     11.983487    9.956307    4.739044
  23 C      2.582652    9.973072    4.539431

Unit cell:
           periodic     x           y           z      points  spacing
  1. axis:    yes   16.000000    0.000000    0.000000    80     0.2000
  2. axis:    yes    0.000000   16.000000    0.000000    80     0.2000
  3. axis:    yes    0.000000    0.000000   10.000000    48     0.2083

Effective grid spacing dv^(1/3) = 0.2027

                     log10-error:    total        iterations:
           time      wfs    density  energy       fermi  poisson
iter:   1  11:13:21          +inf  -164.146205    3      5      
iter:   2  11:13:22         -1.86  -164.059164    3      2      
iter:   3  11:13:22         -2.12  -164.038588    3      2      
iter:   4  11:13:23         -2.28  -164.033010    3      2      
iter:   5  11:13:23         -2.40  -164.028692    3      2      
iter:   6  11:13:24         -2.57  -164.027216    3      2      
iter:   7  11:13:24         -2.71  -164.025297    3      2      
iter:   8  11:13:25         -3.03  -164.025586    2      1      
iter:   9  11:13:25         -3.09  -164.024600    2      2      
iter:  10  11:13:26         -3.35  -164.024173    2      1      
iter:  11  11:13:26         -3.43  -164.022675    2      1      
iter:  12  11:13:27         -3.77  -164.023531    2      1      
iter:  13  11:13:27         -3.84  -164.023768    2      1      
iter:  14  11:13:28         -3.96  -164.023561    2      1      
iter:  15  11:13:28         -4.05  -164.024384    2      1      

Converged after 15 iterations.

Dipole moment: (15.803616, -0.462173, 0.268347) |e|*Ang

Energy contributions relative to reference atoms: (reference = -24663.074771)

Kinetic:        +74.829338
Potential:      -91.923729
External:        +0.000000
XC:            -149.555064
Entropy (-ST):   -0.397147
Local:           +2.823644
--------------------------
Free energy:   -164.222958
Extrapolated:  -164.024384

Fermi level: -4.86998

 Band  Eigenvalues  Occupancy
    0    -22.89068    2.00000
    1    -20.97232    2.00000
    2    -20.90654    2.00000
    3    -20.81556    2.00000
    4    -20.26577    2.00000
    5    -19.49323    2.00000
    6    -19.38700    2.00000
    7    -18.98690    2.00000
    8    -18.01357    2.00000
    9    -17.78645    2.00000
   10    -17.45851    2.00000
   11    -17.05632    2.00000
   12    -16.30951    2.00000
   13    -15.80913    2.00000
   14    -15.16610    2.00000
   15    -14.40940    2.00000
   16    -14.27858    2.00000
   17    -14.18865    2.00000
   18    -13.32146    2.00000
   19    -12.94761    2.00000
   20    -11.78675    2.00000
   21    -11.60783    2.00000
   22    -10.28335    2.00000
   23    -10.14184    2.00000
   24     -9.90568    2.00000
   25     -9.55827    2.00000
   26     -9.23947    2.00000
   27     -9.13748    2.00000
   28     -9.02792    2.00000
   29     -9.00692    2.00000
   30     -8.76455    2.00000
   31     -8.55302    2.00000
   32     -8.20966    2.00000
   33     -7.90077    2.00000
   34     -7.76570    2.00000
   35     -7.59695    2.00000
   36     -7.44362    2.00000
   37     -7.21960    2.00000
   38     -7.00840    2.00000
   39     -6.72144    2.00000
   40     -6.40245    2.00000
   41     -6.27623    2.00000
   42     -6.10777    1.99999
   43     -5.93516    1.99995
   44     -5.77951    1.99978
   45     -5.43954    1.99330
   46     -5.04981    1.71588
   47     -4.91655    1.22876
   48     -4.86456    0.97291
   49     -4.55674    0.08358
   50     -4.28685    0.00585
   51     -3.45439    0.00000
   52     -3.42422    0.00000
   53     -3.01932    0.00000
   54     -2.83799    0.00000
   55     -2.75308    0.00000
   56     -1.96796    0.00000
   57     -1.69866    0.00000
   58     -1.63579    0.00000
   59     -0.88091    0.00000
   60     -0.47647    0.00000
   61     -0.30813    0.00000
   62     -0.26075    0.00000
   63     -0.08164    0.00000
   64      0.23463    0.00000
   65      0.59945    0.00000
   66      0.87010    0.00000
   67      1.32862    0.00000
   68      1.52130    0.00000
   69      1.76950    0.00000
   70      2.43447    0.00000
   71      2.62419    0.00000
   72      3.05785    0.00000
   73      3.09085    0.00000
   74      3.70618    0.00000
   75      4.01229    0.00000
   76      4.32009    0.00000
   77      5.89908    0.00000
   78      6.08900    0.00000
   79      6.52507    0.00000
   80      7.02363    0.00000
   81      7.10645    0.00000
   82      7.66633    0.00000
   83      7.91823    0.00000
   84      8.31776    0.00000
   85      8.51591    0.00000
   86      8.69337    0.00000
   87      8.76248    0.00000
   88      8.78652    0.00000
   89      9.08142    0.00000
   90      9.41173    0.00000
   91      9.45312    0.00000
   92      9.53159    0.00000
   93      9.64921    0.00000
   94      9.69508    0.00000
   95      9.78216    0.00000
   96      9.83054    0.00000
   97      9.97782    0.00000


Forces in eV/Ang:
  0 C    -3.56173    3.03885   -1.07543
  1 C     0.31182   -2.25245    1.29543
  2 C     0.91603    2.21218    4.28579
  3 C    -0.11231    0.13232   -0.35556
  4 C     1.05804   -2.69994   -0.29615
  5 C     1.74005   -2.15238   -3.19524
  6 C    -0.11801   -0.61419    0.28464
  7 C     0.30198   -0.08995    0.41096
  8 C    -3.35136   -6.54671    3.08905
  9 C    -1.24548    0.26210    0.80397
 10 C     0.12154    0.18145    0.17035
 11 C     1.14857   -1.93760    0.18199
 12 C     2.65200    1.95373   -1.65131
 13 C     0.44640   -0.52873   -1.19872
 14 C    -1.41474   -2.31094   -2.38584
 15 C    -3.46863    3.84521   -3.87954
 16 C     1.55290   -0.41853    3.49133
 17 C    -2.28006    3.83211   -3.45810
 18 C   -15.19252   -2.50245   -5.41192
 19 C     5.81906   12.70902   -1.48503
 20 C     0.57525   -0.27006   -1.28817
 21 C     3.27607   -2.77040    2.03171
 22 C    10.37282    0.49127    4.98572
 23 C     0.30537   -3.61582    4.65709

System changes: positions 

Initializing position-dependent things.

Density initialized from wave functions
           .--------------------------------------.  
          /|                                      |  
         / |                                      |  
        /  |                                      |  
       /   |                                      |  
      /    |                                      |  
     /     |                                      |  
    /      |                                      |  
   /       |                                      |  
  /       C|                               C  C   |  
 *         |  CC                    C   C         |  
 |         |      C  C     C  C   C               |  
 |         .--CC--C--C----------------------------.  
 |        /   C       CC                         /   
 |       /      C     C                         /    
 |      /             C                        /     
 |     /          C                           /      
 |    /                                      /       
 |   /                                      /        
 |  /                                      /         
 | /                                      /          
 |/                                      /           
 *--------------------------------------*            

Positions:
   0 C      8.038253    1.914287    4.619980
   1 C      7.145546    5.793009    4.494368
   2 C      6.365640    1.837992    4.403080
   3 C      4.608826    3.479223    5.517236
   4 C      7.747558    3.272548    4.554607
   5 C      5.483484    2.537640    5.364351
   6 C      7.606741    4.622356    4.446234
   7 C      4.279161    4.765217    5.440294
   8 C      6.461263    6.978467    4.602890
   9 C      5.056964    7.137354    4.976532
  10 C      4.279324    6.029576    5.284323
  11 C      4.738995    8.559174    4.942501
  12 C      9.511999    9.206050    4.352769
  13 C      5.907227    9.278780    4.534295
  14 C      8.321536    8.722273    4.306718
  15 C      1.144349    9.369208    5.896024
  16 C     13.308211   10.239383    4.531246
  17 C      3.462275    9.106886    5.156356
  18 C     11.101375   10.050289    3.934228
  19 C      6.969415    7.833470    3.753509
  20 C     14.494207   10.275979    5.140278
  21 C     15.811676   10.172216    5.312558
  22 C     11.990037    9.960801    4.731065
  23 C      2.582488    9.961396    4.555081

Unit cell:
           periodic     x           y           z      points  spacing
  1. axis:    yes   16.000000    0.000000    0.000000    80     0.2000
  2. axis:    yes    0.000000   16.000000    0.000000    80     0.2000
  3. axis:    yes    0.000000    0.000000   10.000000    48     0.2083

Effective grid spacing dv^(1/3) = 0.2027

                     log10-error:    total        iterations:
           time      wfs    density  energy       fermi  poisson
iter:   1  11:13:30          +inf  -166.044390    3      5      
iter:   2  11:13:30         -1.79  -165.926734    3      2      
iter:   3  11:13:31         -2.08  -165.906944    2      2      
iter:   4  11:13:31         -2.21  -165.889940    3      2      
iter:   5  11:13:32         -2.40  -165.887260    2      2      
iter:   6  11:13:32         -2.50  -165.884106    2      2      
iter:   7  11:13:33         -2.70  -165.883227    2      2      
iter:   8  11:13:33         -2.96  -165.880031    2      1      
iter:   9  11:13:34         -3.08  -165.884067    2      2      
iter:  10  11:13:34         -3.37  -165.883953    2      1      
iter:  11  11:13:35         -3.44  -165.881800    2      1      
iter:  12  11:13:35         -3.67  -165.884367    2      1      
iter:  13  11:13:36         -3.76  -165.885025    2      1      
iter:  14  11:13:36         -3.88  -165.883814    2      1      
iter:  15  11:13:37         -3.99  -165.884169    2      1      
iter:  16  11:13:37         -4.11  -165.884401    2      1      

Converged after 16 iterations.

Dipole moment: (15.296398, -0.493132, 0.249802) |e|*Ang

Energy contributions relative to reference atoms: (reference = -24663.074771)

Kinetic:        +69.811090
Potential:      -88.465255
External:        +0.000000
XC:            -149.875093
Entropy (-ST):   -0.391113
Local:           +2.840413
--------------------------
Free energy:   -166.079958
Extrapolated:  -165.884401

Fermi level: -4.85518

 Band  Eigenvalues  Occupancy
    0    -22.74168    2.00000
    1    -21.05429    2.00000
    2    -20.80843    2.00000
    3    -20.74309    2.00000
    4    -20.27516    2.00000
    5    -19.48234    2.00000
    6    -19.36021    2.00000
    7    -19.03421    2.00000
    8    -18.06989    2.00000
    9    -17.83125    2.00000
   10    -17.48131    2.00000
   11    -17.08326    2.00000
   12    -16.33136    2.00000
   13    -15.88325    2.00000
   14    -15.14334    2.00000
   15    -14.50150    2.00000
   16    -14.30311    2.00000
   17    -14.25273    2.00000
   18    -13.39702    2.00000
   19    -12.95575    2.00000
   20    -11.77741    2.00000
   21    -11.64341    2.00000
   22    -10.40466    2.00000
   23    -10.28101    2.00000
   24     -9.99127    2.00000
   25     -9.58924    2.00000
   26     -9.26897    2.00000
   27     -9.11570    2.00000
   28     -9.03347    2.00000
   29     -9.01274    2.00000
   30     -8.77266    2.00000
   31     -8.57798    2.00000
   32     -8.26459    2.00000
   33     -7.88045    2.00000
   34     -7.80565    2.00000
   35     -7.62265    2.00000
   36     -7.43764    2.00000
   37     -7.22048    2.00000
   38     -6.99727    2.00000
   39     -6.73515    2.00000
   40     -6.41888    2.00000
   41     -6.28851    2.00000
   42     -6.13105    1.99999
   43     -5.93915    1.99996
   44     -5.76628    1.99978
   45     -5.43297    1.99383
   46     -5.03063    1.70505
   47     -4.92083    1.31696
   48     -4.83508    0.89982
   49     -4.53690    0.07963
   50     -4.25581    0.00498
   51     -3.42938    0.00000
   52     -3.32122    0.00000
   53     -2.93653    0.00000
   54     -2.75592    0.00000
   55     -2.66260    0.00000
   56     -1.91652    0.00000
   57     -1.60995    0.00000
   58     -1.54353    0.00000
   59     -0.77613    0.00000
   60     -0.45055    0.00000
   61     -0.32533    0.00000
   62     -0.20020    0.00000
   63      0.02851    0.00000
   64      0.39256    0.00000
   65      0.79575    0.00000
   66      0.94017    0.00000
   67      1.35435    0.00000
   68      1.61350    0.00000
   69      1.80782    0.00000
   70      2.62903    0.00000
   71      2.69372    0.00000
   72      3.18013    0.00000
   73      3.28136    0.00000
   74      3.83486    0.00000
   75      4.26101    0.00000
   76      4.42593    0.00000
   77      5.92903    0.00000
   78      6.14194    0.00000
   79      6.55884    0.00000
   80      7.07520    0.00000
   81      7.30170    0.00000
   82      7.76054    0.00000
   83      7.93606    0.00000
   84      8.32627    0.00000
   85      8.51266    0.00000
   86      8.69929    0.00000
   87      8.77250    0.00000
   88      8.80064    0.00000
   89      9.17129    0.00000
   90      9.40134    0.00000
   91      9.47218    0.00000
   92      9.56542    0.00000
   93      9.67582    0.00000
   94      9.69525    0.00000
   95      9.78234    0.00000
   96      9.82118    0.00000
   97      9.98240    0.00000


Forces in eV/Ang:
  0 C    -3.37844    2.40417   -0.99820
  1 C     0.12275   -2.01413    1.22170
  2 C     0.98729    2.06155    4.08434
  3 C     0.16377   -0.13226   -0.42134
  4 C     0.93332   -1.85110   -0.38541
  5 C     1.27677   -1.68239   -2.93318
  6 C     0.01420   -0.95354    0.31296
  7 C     0.31426   -0.19815    0.41215
  8 C    -2.15107   -4.55168    1.20029
  9 C    -0.97877    0.13534    0.69326
 10 C     0.00608    0.06482    0.19520
 11 C     0.75942   -1.40362    0.11929
 12 C     1.92158    1.67011   -1.75236
 13 C     0.45440   -0.69903   -1.20356
 14 C    -0.47603   -1.85940   -2.44755
 15 C    -3.58988    3.96775   -3.96892
 16 C     1.56543   -0.39647    3.30432
 17 C    -1.17353    2.86755   -3.00186
 18 C   -14.23942   -2.92931   -3.92497
 19 C     4.58248   10.83307    0.67323
 20 C     0.66456   -0.31816   -1.18951
 21 C     3.38346   -2.79671    2.04187
 22 C     9.15755    0.74526    3.71952
 23 C    -0.38683   -3.01804    4.25447

System changes: positions 

Initializing position-dependent things.

Density initialized from wave functions
           .--------------------------------------.  
          /|                                      |  
         / |                                      |  
        /  |                                      |  
       /   |                                      |  
      /    |                                      |  
     /     |                                      |  
    /      |                                      |  
   /       |                                      |  
  /       C|                               C  C   |  
 *         |  CC                    C   C         |  
 |         |      C  C     C  C   C               |  
 |         .--CC--C--C----------------------------.  
 |        /   C       CC                         /   
 |       /      C     C                         /    
 |      /             C                        /     
 |     /          C                           /      
 |    /                                      /       
 |   /                                      /        
 |  /                                      /         
 | /                                      /          
 |/                                      /           
 *--------------------------------------*            

Positions:
   0 C      8.024716    1.921567    4.616118
   1 C      7.144945    5.786010    4.499156
   2 C      6.370046    1.846075    4.419562
   3 C      4.611157    3.476885    5.515088
   4 C      7.750936    3.269050    4.552512
   5 C      5.486525    2.532961    5.353067
   6 C      7.607693    4.615692    4.447732
   7 C      4.280485    4.764280    5.442038
   8 C      6.460113    6.972435    4.595111
   9 C      5.054080    7.137259    4.979100
  10 C      4.278643    6.029029    5.285315
  11 C      4.740165    8.555976    4.942772
  12 C      9.516652    9.211912    4.344990
  13 C      5.909150    9.274907    4.529114
  14 C      8.323856    8.716406    4.296024
  15 C      1.128794    9.386388    5.878825
  16 C     13.315095   10.238324    4.543643
  17 C      3.462547    9.114618    5.145557
  18 C     11.066310   10.033424    3.943504
  19 C      6.981013    7.867067    3.770510
  20 C     14.500554   10.274266    5.136420
  21 C     15.824627   10.160541    5.320921
  22 C     12.000569    9.967018    4.721991
  23 C      2.577700    9.951280    4.571301

Unit cell:
           periodic     x           y           z      points  spacing
  1. axis:    yes   16.000000    0.000000    0.000000    80     0.2000
  2. axis:    yes    0.000000   16.000000    0.000000    80     0.2000
  3. axis:    yes    0.000000    0.000000   10.000000    48     0.2083

Effective grid spacing dv^(1/3) = 0.2027

                     log10-error:    total        iterations:
           time      wfs    density  energy       fermi  poisson
iter:   1  11:13:39          +inf  -167.874770    3      5      
iter:   2  11:13:39         -1.79  -167.769554    2      2      
iter:   3  11:13:40         -2.03  -167.743045    3      2      
iter:   4  11:13:40         -2.16  -167.720178    3      2      
iter:   5  11:13:41         -2.40  -167.715102    3      2      
iter:   6  11:13:41         -2.61  -167.714432    2      2      
iter:   7  11:13:42         -2.74  -167.713139    2      2      
iter:   8  11:13:42         -3.03  -167.714354    2      2      
iter:   9  11:13:43         -3.24  -167.711698    2      1      
iter:  10  11:13:43         -3.40  -167.712076    2      1      
iter:  11  11:13:44         -3.53  -167.713871    2      1      
iter:  12  11:13:44         -3.67  -167.713755    2      1      
iter:  13  11:13:45         -3.83  -167.713939    2      1      
iter:  14  11:13:45         -3.92  -167.714315    2      1      
iter:  15  11:13:46         -4.10  -167.714653    2      1      

Converged after 15 iterations.

Dipole moment: (14.473253, -0.523001, 0.221346) |e|*Ang

Energy contributions relative to reference atoms: (reference = -24663.074771)

Kinetic:        +66.439232
Potential:      -86.175659
External:        +0.000000
XC:            -150.650691
Entropy (-ST):   -0.376121
Local:           +2.860525
--------------------------
Free energy:   -167.902713
Extrapolated:  -167.714653

Fermi level: -4.83198

 Band  Eigenvalues  Occupancy
    0    -22.65591    2.00000
    1    -21.15233    2.00000
    2    -20.70335    2.00000
    3    -20.68280    2.00000
    4    -20.27991    2.00000
    5    -19.50006    2.00000
    6    -19.31081    2.00000
    7    -19.06284    2.00000
    8    -18.14738    2.00000
    9    -17.87670    2.00000
   10    -17.52755    2.00000
   11    -17.12243    2.00000
   12    -16.35833    2.00000
   13    -15.96661    2.00000
   14    -15.17935    2.00000
   15    -14.59417    2.00000
   16    -14.38077    2.00000
   17    -14.27603    2.00000
   18    -13.48136    2.00000
   19    -12.96805    2.00000
   20    -11.76595    2.00000
   21    -11.73092    2.00000
   22    -10.59492    2.00000
   23    -10.42086    2.00000
   24    -10.06947    2.00000
   25     -9.63724    2.00000
   26     -9.31093    2.00000
   27     -9.09924    2.00000
   28     -9.03345    2.00000
   29     -8.99791    2.00000
   30     -8.79129    2.00000
   31     -8.61028    2.00000
   32     -8.32525    2.00000
   33     -7.88016    2.00000
   34     -7.82393    2.00000
   35     -7.65474    2.00000
   36     -7.41833    2.00000
   37     -7.24401    2.00000
   38     -7.00816    2.00000
   39     -6.73947    2.00000
   40     -6.43432    2.00000
   41     -6.33195    2.00000
   42     -6.11995    1.99999
   43     -5.97112    1.99998
   44     -5.74096    1.99977
   45     -5.42461    1.99468
   46     -5.01230    1.71708
   47     -4.91940    1.41122
   48     -4.79104    0.79812
   49     -4.50770    0.07517
   50     -4.21026    0.00398
   51     -3.40122    0.00000
   52     -3.21982    0.00000
   53     -2.84972    0.00000
   54     -2.75134    0.00000
   55     -2.45587    0.00000
   56     -1.87463    0.00000
   57     -1.53336    0.00000
   58     -1.44826    0.00000
   59     -0.67539    0.00000
   60     -0.44631    0.00000
   61     -0.32462    0.00000
   62     -0.10495    0.00000
   63      0.20332    0.00000
   64      0.53872    0.00000
   65      0.96932    0.00000
   66      1.09870    0.00000
   67      1.40546    0.00000
   68      1.73991    0.00000
   69      1.92566    0.00000
   70      2.73370    0.00000
   71      2.87078    0.00000
   72      3.26715    0.00000
   73      3.52668    0.00000
   74      4.00129    0.00000
   75      4.53693    0.00000
   76      4.62834    0.00000
   77      5.92606    0.00000
   78      6.18280    0.00000
   79      6.61072    0.00000
   80      7.14859    0.00000
   81      7.47037    0.00000
   82      7.84631    0.00000
   83      7.97631    0.00000
   84      8.35235    0.00000
   85      8.51358    0.00000
   86      8.70516    0.00000
   87      8.78262    0.00000
   88      8.81767    0.00000
   89      9.24974    0.00000
   90      9.39398    0.00000
   91      9.48668    0.00000
   92      9.59270    0.00000
   93      9.67853    0.00000
   94      9.69581    0.00000
   95      9.79045    0.00000
   96      9.82779    0.00000
   97      9.98974    0.00000


Forces in eV/Ang:
  0 C    -3.24199    1.87796   -0.93461
  1 C     0.04278   -1.89157    1.13361
  2 C     1.10864    1.88417    3.81714
  3 C     0.21048   -0.10439   -0.44194
  4 C     0.84796   -1.41002   -0.44005
  5 C     1.01902   -1.42658   -2.67393
  6 C     0.01612   -0.80713    0.31625
  7 C     0.34042   -0.36111    0.40101
  8 C    -1.72663   -3.94124    0.64007
  9 C    -0.75439    0.04181    0.53830
 10 C    -0.02274    0.02544    0.20732
 11 C     0.65365   -1.11626    0.03434
 12 C     1.77284    1.62208   -1.84401
 13 C     0.51557   -0.82806   -1.18672
 14 C    -0.05027   -1.60856   -2.44182
 15 C    -3.67385    4.11475   -4.13755
 16 C     1.66948   -0.34498    3.04520
 17 C    -0.54088    2.22027   -2.58394
 18 C   -12.55012   -3.38826   -1.88819
 19 C     4.03790   10.16486    1.53214
 20 C     0.85292   -0.37384   -1.05820
 21 C     3.41011   -2.81377    2.05508
 22 C     7.03701    0.97426    1.98362
 23 C    -0.96143   -2.60251    3.94344

System changes: positions 

Initializing position-dependent things.

Density initialized from wave functions
           .--------------------------------------.  
          /|                                      |  
         / |                                      |  
        /  |                                      |  
       /   |                                      |  
      /    |                                      |  
     /     |                                      |  
    /      |                                      |  
   /       |                                      |  
  /       C|                               C  C   |  
 *         | C C                     C  C         |  
 |         |      C  C     C  C   C               |  
 |         .--CC--C--C----------------------------.  
 |        /   C       CC                         /   
 |       /      C     C                         /    
 |      /             C                        /     
 |     /          C                           /      
 |    /                                      /       
 |   /                                      /        
 |  /                                      /         
 | /                                      /          
 |/                                      /           
 *--------------------------------------*            

Positions:
   0 C      8.011971    1.926026    4.612610
   1 C      7.144254    5.779296    4.503396
   2 C      6.375282    1.853007    4.434206
   3 C      4.613046    3.475648    5.512966
   4 C      7.753894    3.266966    4.550220
   5 C      5.488649    2.529157    5.343366
   6 C      7.608221    4.611508    4.449162
   7 C      4.282011    4.762109    5.443682
   8 C      6.458517    6.964918    4.589112
   9 C      5.052389    7.136743    4.980597
  10 C      4.278080    6.028566    5.286319
  11 C      4.741489    8.553747    4.942478
  12 C      9.521820    9.217963    4.336707
  13 C      5.911552    9.270472    4.524140
  14 C      8.327412    8.711584    4.285605
  15 C      1.112849    9.404442    5.860576
  16 C     13.322654   10.237400    4.554641
  17 C      3.465284    9.119310    5.137217
  18 C     11.033459   10.015084    3.957085
  19 C      6.991964    7.901048    3.787431
  20 C     14.506763   10.272292    5.133087
  21 C     15.838305   10.148733    5.329462
  22 C     12.006993    9.973599    4.710495
  23 C      2.569904    9.943229    4.585821

Unit cell:
           periodic     x           y           z      points  spacing
  1. axis:    yes   16.000000    0.000000    0.000000    80     0.2000
  2. axis:    yes    0.000000   16.000000    0.000000    80     0.2000
  3. axis:    yes    0.000000    0.000000   10.000000    48     0.2083

Effective grid spacing dv^(1/3) = 0.2027

                     log10-error:    total        iterations:
           time      wfs    density  energy       fermi  poisson
iter:   1  11:13:47          +inf  -169.545337    3      5      
iter:   2  11:13:48         -1.79  -169.437004    3      2      
iter:   3  11:13:48         -2.04  -169.410339    3      2      
iter:   4  11:13:49         -2.17  -169.386901    2      2      
iter:   5  11:13:49         -2.42  -169.385262    2      2      
iter:   6  11:13:50         -2.50  -169.379735    3      2      
iter:   7  11:13:50         -2.76  -169.379771    2      2      
iter:   8  11:13:51         -3.12  -169.380952    2      1      
iter:   9  11:13:51         -3.23  -169.377910    2      1      
iter:  10  11:13:52         -3.45  -169.379502    2      1      
iter:  11  11:13:52         -3.53  -169.379619    2      1      
iter:  12  11:13:52         -3.72  -169.379143    2      1      
iter:  13  11:13:53         -3.82  -169.380874    2      1      
iter:  14  11:13:53         -3.92  -169.381535    2      1      
iter:  15  11:13:54         -4.02  -169.381275    2      1      

Converged after 15 iterations.

Dipole moment: (13.471990, -0.547556, 0.193212) |e|*Ang

Energy contributions relative to reference atoms: (reference = -24663.074771)

Kinetic:        +63.726190
Potential:      -84.329650
External:        +0.000000
XC:            -151.471061
Entropy (-ST):   -0.352741
Local:           +2.869617
--------------------------
Free energy:   -169.557645
Extrapolated:  -169.381275

Fermi level: -4.80505

 Band  Eigenvalues  Occupancy
    0    -22.57774    2.00000
    1    -21.24411    2.00000
    2    -20.67056    2.00000
    3    -20.57783    2.00000
    4    -20.27682    2.00000
    5    -19.51000    2.00000
    6    -19.27402    2.00000
    7    -19.08523    2.00000
    8    -18.22053    2.00000
    9    -17.90280    2.00000
   10    -17.56905    2.00000
   11    -17.16888    2.00000
   12    -16.37809    2.00000
   13    -16.04290    2.00000
   14    -15.24565    2.00000
   15    -14.66256    2.00000
   16    -14.46645    2.00000
   17    -14.28766    2.00000
   18    -13.55214    2.00000
   19    -12.98020    2.00000
   20    -11.82521    2.00000
   21    -11.75423    2.00000
   22    -10.81226    2.00000
   23    -10.54266    2.00000
   24    -10.11654    2.00000
   25     -9.68134    2.00000
   26     -9.35179    2.00000
   27     -9.09284    2.00000
   28     -9.03093    2.00000
   29     -8.97817    2.00000
   30     -8.82501    2.00000
   31     -8.64338    2.00000
   32     -8.37968    2.00000
   33     -7.92994    2.00000
   34     -7.80345    2.00000
   35     -7.68521    2.00000
   36     -7.41694    2.00000
   37     -7.26791    2.00000
   38     -7.02994    2.00000
   39     -6.74431    2.00000
   40     -6.44749    2.00000
   41     -6.37505    2.00000
   42     -6.09846    2.00000
   43     -5.99864    1.99999
   44     -5.71103    1.99977
   45     -5.40842    1.99522
   46     -5.00060    1.75210
   47     -4.91153    1.48723
   48     -4.74268    0.69791
   49     -4.46473    0.06439
   50     -4.16746    0.00340
   51     -3.37494    0.00000
   52     -3.13741    0.00000
   53     -2.81774    0.00000
   54     -2.69324    0.00000
   55     -2.25587    0.00000
   56     -1.83922    0.00000
   57     -1.47530    0.00000
   58     -1.35506    0.00000
   59     -0.58574    0.00000
   60     -0.44748    0.00000
   61     -0.30470    0.00000
   62     -0.00639    0.00000
   63      0.38575    0.00000
   64      0.65873    0.00000
   65      1.07335    0.00000
   66      1.31507    0.00000
   67      1.45109    0.00000
   68      1.89584    0.00000
   69      2.08701    0.00000
   70      2.80238    0.00000
   71      3.09687    0.00000
   72      3.36064    0.00000
   73      3.75947    0.00000
   74      4.18489    0.00000
   75      4.63338    0.00000
   76      4.99890    0.00000
   77      5.93242    0.00000
   78      6.22294    0.00000
   79      6.64066    0.00000
   80      7.25631    0.00000
   81      7.55384    0.00000
   82      7.91228    0.00000
   83      8.06805    0.00000
   84      8.38274    0.00000
   85      8.51584    0.00000
   86      8.71921    0.00000
   87      8.81032    0.00000
   88      8.84456    0.00000
   89      9.29573    0.00000
   90      9.38469    0.00000
   91      9.49456    0.00000
   92      9.61701    0.00000
   93      9.66276    0.00000
   94      9.70009    0.00000
   95      9.79531    0.00000
   96      9.84185    0.00000
   97      9.97967    0.00000


Forces in eV/Ang:
  0 C    -3.09385    1.47457   -0.87164
  1 C    -0.07189   -1.60913    1.02380
  2 C     1.18896    1.74401    3.60975
  3 C     0.27173   -0.18131   -0.45311
  4 C     0.78081   -1.06259   -0.47846
  5 C     0.77708   -1.21354   -2.46633
  6 C     0.08718   -0.90969    0.31432
  7 C     0.34065   -0.31377    0.37503
  8 C    -1.24647   -3.14615    0.05980
  9 C    -0.57627   -0.06108    0.40508
 10 C    -0.05814   -0.07101    0.22692
 11 C     0.62278   -0.90359   -0.05371
 12 C     1.62556    1.55726   -1.91437
 13 C     0.60114   -0.93191   -1.17747
 14 C     0.34642   -1.35092   -2.38784
 15 C    -3.66267    4.26694   -4.30255
 16 C     1.68409   -0.32084    2.85441
 17 C    -0.21755    1.82218   -2.31936
 18 C   -11.36803   -3.70239   -0.53810
 19 C     3.39970    9.29487    2.35416
 20 C     0.95191   -0.40858   -0.95390
 21 C     3.35846   -2.81844    2.00054
 22 C     5.63127    1.11471    0.85591
 23 C    -1.35798   -2.41420    3.85177

System changes: positions 

Initializing position-dependent things.

Density initialized from wave functions
           .--------------------------------------.  
          /|                                      |  
         / |                                      |  
        /  |                                      |  
       /   |                                      |  
      /    |                                      |  
     /     |                                      |  
    /      |                                      |  
   /       |                                      |  
  /       C|                               C  C   |  
 *         | C C                     C  C         |  
 |         |      C  C     C  C   C               |  
 |         .--CC--C--C-C--------------------------.  
 |        /   C       C                          /   
 |       /      C     C                         /    
 |      /             C                        /     
 |     /          C                           /      
 |    /                                      /       
 |   /                                      /        
 |  /                                      /         
 | /                                      /          
 |/                                      /           
 *--------------------------------------*            

Positions:
   0 C      7.999982    1.929026    4.609406
   1 C      7.143029    5.774528    4.506931
   2 C      6.380910    1.859298    4.447877
   3 C      4.614838    3.474178    5.510917
   4 C      7.756647    3.265515    4.547858
   5 C      5.489951    2.525861    5.334553
   6 C      7.609151    4.606761    4.450508
   7 C      4.283466    4.760950    5.445100
   8 C      6.457837    6.959124    4.583191
   9 C      5.051379    7.135696    4.981349
  10 C      4.277490    6.027518    5.287432
  11 C      4.743570    8.551824    4.941630
  12 C      9.527310    9.224019    4.328099
  13 C      5.914652    9.265668    4.519220
  14 C      8.332078    8.707839    4.275803
  15 C      1.097365    9.423508    5.841219
  16 C     13.330044   10.236425    4.564958
  17 C      3.467503    9.123531    5.129587
  18 C     11.001530    9.996090    3.971910
  19 C      7.000764    7.932485    3.805433
  20 C     14.512637   10.270231    5.130098
  21 C     15.851652   10.136868    5.337504
  22 C     12.012188    9.980117    4.698772
  23 C      2.560907    9.934844    4.601033

Unit cell:
           periodic     x           y           z      points  spacing
  1. axis:    yes   16.000000    0.000000    0.000000    80     0.2000
  2. axis:    yes    0.000000   16.000000    0.000000    80     0.2000
  3. axis:    yes    0.000000    0.000000   10.000000    48     0.2083

Effective grid spacing dv^(1/3) = 0.2027

                     log10-error:    total        iterations:
           time      wfs    density  energy       fermi  poisson
iter:   1  11:13:55          +inf  -171.106346    3      5      
iter:   2  11:13:56         -1.78  -170.989469    3      2      
iter:   3  11:13:56         -2.03  -170.960672    3      2      
iter:   4  11:13:57         -2.18  -170.938540    2      2      
iter:   5  11:13:57         -2.43  -170.936962    2      2      
iter:   6  11:13:58         -2.50  -170.931566    3      2      
iter:   7  11:13:58         -2.76  -170.926423    2      1      
iter:   8  11:13:59         -2.84  -170.931528    3      2      
iter:   9  11:13:59         -3.22  -170.931296    2      1      
iter:  10  11:14:00         -3.33  -170.928950    2      1      
iter:  11  11:14:00         -3.52  -170.931679    2      1      
iter:  12  11:14:01         -3.62  -170.932696    2      1      
iter:  13  11:14:01         -3.81  -170.931775    2      1      
iter:  14  11:14:02         -3.96  -170.932322    2      1      
iter:  15  11:14:02         -4.11  -170.933132    2      1      

Converged after 15 iterations.

Dipole moment: (12.349588, -0.573289, 0.169236) |e|*Ang

Energy contributions relative to reference atoms: (reference = -24663.074771)

Kinetic:        +61.803790
Potential:      -83.066266
External:        +0.000000
XC:            -152.389565
Entropy (-ST):   -0.326364
Local:           +2.882091
--------------------------
Free energy:   -171.096314
Extrapolated:  -170.933132

Fermi level: -4.77891

 Band  Eigenvalues  Occupancy
    0    -22.52153    2.00000
    1    -21.33363    2.00000
    2    -20.64890    2.00000
    3    -20.48019    2.00000
    4    -20.27074    2.00000
    5    -19.52332    2.00000
    6    -19.24346    2.00000
    7    -19.09701    2.00000
    8    -18.29330    2.00000
    9    -17.93314    2.00000
   10    -17.60972    2.00000
   11    -17.21944    2.00000
   12    -16.39890    2.00000
   13    -16.12121    2.00000
   14    -15.33101    2.00000
   15    -14.71354    2.00000
   16    -14.54679    2.00000
   17    -14.29927    2.00000
   18    -13.61615    2.00000
   19    -12.99452    2.00000
   20    -11.92502    2.00000
   21    -11.74730    2.00000
   22    -11.01479    2.00000
   23    -10.65582    2.00000
   24    -10.14811    2.00000
   25     -9.72549    2.00000
   26     -9.39366    2.00000
   27     -9.08847    2.00000
   28     -9.02824    2.00000
   29     -8.98187    2.00000
   30     -8.85001    2.00000
   31     -8.68722    2.00000
   32     -8.42216    2.00000
   33     -7.98652    2.00000
   34     -7.78244    2.00000
   35     -7.71371    2.00000
   36     -7.42569    2.00000
   37     -7.28836    2.00000
   38     -7.04916    2.00000
   39     -6.75146    2.00000
   40     -6.47688    2.00000
   41     -6.40406    2.00000
   42     -6.07774    2.00000
   43     -6.01991    1.99999
   44     -5.68299    1.99976
   45     -5.38909    1.99553
   46     -5.00068    1.80366
   47     -4.89471    1.52195
   48     -4.70128    0.63023
   49     -4.40367    0.04585
   50     -4.12957    0.00302
   51     -3.35091    0.00000
   52     -3.06111    0.00000
   53     -2.83016    0.00000
   54     -2.60840    0.00000
   55     -2.05490    0.00000
   56     -1.80526    0.00000
   57     -1.42599    0.00000
   58     -1.26658    0.00000
   59     -0.51690    0.00000
   60     -0.43865    0.00000
   61     -0.26769    0.00000
   62      0.09947    0.00000
   63      0.57066    0.00000
   64      0.77539    0.00000
   65      1.17368    0.00000
   66      1.48674    0.00000
   67      1.54127    0.00000
   68      2.08340    0.00000
   69      2.27873    0.00000
   70      2.85877    0.00000
   71      3.30358    0.00000
   72      3.44860    0.00000
   73      3.97622    0.00000
   74      4.39020    0.00000
   75      4.72159    0.00000
   76      5.32928    0.00000
   77      5.94074    0.00000
   78      6.26462    0.00000
   79      6.66103    0.00000
   80      7.41472    0.00000
   81      7.60069    0.00000
   82      7.93315    0.00000
   83      8.17451    0.00000
   84      8.42049    0.00000
   85      8.51880    0.00000
   86      8.72296    0.00000
   87      8.85282    0.00000
   88      8.87511    0.00000
   89      9.32438    0.00000
   90      9.37683    0.00000
   91      9.48782    0.00000
   92      9.63768    0.00000
   93      9.65667    0.00000
   94      9.70270    0.00000
   95      9.80183    0.00000
   96      9.86126    0.00000
   97      9.94932    0.00000


Forces in eV/Ang:
  0 C    -2.96706    1.13450   -0.80375
  1 C    -0.08662   -1.53239    0.91671
  2 C     1.27450    1.58229    3.38741
  3 C     0.29176   -0.18241   -0.45871
  4 C     0.73366   -0.80705   -0.50070
  5 C     0.54430   -1.02126   -2.23944
  6 C     0.08010   -0.79601    0.31385
  7 C     0.34997   -0.40292    0.36229
  8 C    -0.90051   -2.49853   -0.31232
  9 C    -0.44976   -0.12000    0.29353
 10 C    -0.06597   -0.05548    0.23013
 11 C     0.56629   -0.71675   -0.13512
 12 C     1.50094    1.48545   -1.96641
 13 C     0.69723   -1.01328   -1.18159
 14 C     0.66566   -1.11821   -2.31653
 15 C    -3.44086    4.31833   -4.41699
 16 C     1.61685   -0.28833    2.65567
 17 C     0.11059    1.43995   -2.07703
 18 C   -10.16054   -3.84861    0.55016
 19 C     2.84850    8.59697    2.91497
 20 C     1.08312   -0.44643   -0.83494
 21 C     3.14864   -2.75227    1.90513
 22 C     4.32958    1.16652   -0.06761
 23 C    -1.75447   -2.25033    3.76395

System changes: positions 

Initializing position-dependent things.

Density initialized from wave functions
           .--------------------------------------.  
          /|                                      |  
         / |                                      |  
        /  |                                      |  
       /   |                                      |  
      /    |                                      |  
     /     |                                      |  
    /      |                                      |  
   /       |                                      |  
  /       C|                               C  C   |  
 *         | C C                     C  C         |  
 |         |      C  C     C  C   C               |  
 |         .--CC--C--C-C--------------------------.  
 |        /   C       C                          /   
 |       /      C     C                         /    
 |      /         C   C                        /     
 |     /                                      /      
 |    /                                      /       
 |   /                                      /        
 |  /                                      /         
 | /                                      /          
 |/                                      /           
 *--------------------------------------*            

Positions:
   0 C      7.987788    1.931103    4.606395
   1 C      7.142291    5.768934    4.510017
   2 C      6.387404    1.865016    4.461188
   3 C      4.616368    3.473128    5.508813
   4 C      7.759532    3.264126    4.545395
   5 C      5.490320    2.522947    5.326439
   6 C      7.609660    4.603577    4.451903
   7 C      4.285076    4.758884    5.446563
   8 C      6.457300    6.954332    4.577943
   9 C      5.050536    7.134517    4.981625
  10 C      4.277080    6.027125    5.288542
  11 C      4.745871    8.550179    4.940241
  12 C      9.533198    9.230195    4.318760
  13 C      5.918736    9.260332    4.513862
  14 C      8.337865    8.704889    4.266081
  15 C      1.083721    9.443649    5.820086
  16 C     13.336820   10.235480    4.575034
  17 C      3.470363    9.126982    5.122237
  18 C     10.970236    9.976806    3.987684
  19 C      7.008216    7.964238    3.824227
  20 C     14.519168   10.267869    5.127520
  21 C     15.863702   10.125009    5.345133
  22 C     12.015936    9.986214    4.686761
  23 C      2.549618    9.925811    4.617576

Unit cell:
           periodic     x           y           z      points  spacing
  1. axis:    yes   16.000000    0.000000    0.000000    80     0.2000
  2. axis:    yes    0.000000   16.000000    0.000000    80     0.2000
  3. axis:    yes    0.000000    0.000000   10.000000    48     0.2083

Effective grid spacing dv^(1/3) = 0.2027

                     log10-error:    total        iterations:
           time      wfs    density  energy       fermi  poisson
iter:   1  11:14:04          +inf  -172.591881    3      5      
iter:   2  11:14:04         -1.77  -172.471849    3      2      
iter:   3  11:14:05         -2.02  -172.438802    2      2      
iter:   4  11:14:05         -2.19  -172.417983    2      2      
iter:   5  11:14:06         -2.44  -172.415924    2      2      
iter:   6  11:14:06         -2.53  -172.411510    3      2      
iter:   7  11:14:07         -2.77  -172.405642    2      1      
iter:   8  11:14:07         -2.85  -172.411985    3      2      
iter:   9  11:14:08         -3.07  -172.412565    2      2      
iter:  10  11:14:08         -3.32  -172.410101    2      1      
iter:  11  11:14:09         -3.41  -172.409328    2      1      
iter:  12  11:14:09         -3.60  -172.412711    2      1      
iter:  13  11:14:10         -3.72  -172.413015    2      1      
iter:  14  11:14:10         -3.87  -172.412330    2      1      
iter:  15  11:14:11         -4.02  -172.413098    2      1      

Converged after 15 iterations.

Dipole moment: (11.213508, -0.602287, 0.148553) |e|*Ang

Energy contributions relative to reference atoms: (reference = -24663.074771)

Kinetic:        +60.659010
Potential:      -82.393321
External:        +0.000000
XC:            -153.422060
Entropy (-ST):   -0.305831
Local:           +2.896188
--------------------------
Free energy:   -172.566014
Extrapolated:  -172.413098

Fermi level: -4.75369

 Band  Eigenvalues  Occupancy
    0    -22.46921    2.00000
    1    -21.42429    2.00000
    2    -20.63132    2.00000
    3    -20.38657    2.00000
    4    -20.26163    2.00000
    5    -19.53640    2.00000
    6    -19.22342    2.00000
    7    -19.10578    2.00000
    8    -18.36206    2.00000
    9    -17.96023    2.00000
   10    -17.64968    2.00000
   11    -17.27028    2.00000
   12    -16.41651    2.00000
   13    -16.19777    2.00000
   14    -15.42283    2.00000
   15    -14.75382    2.00000
   16    -14.62143    2.00000
   17    -14.31242    2.00000
   18    -13.67136    2.00000
   19    -13.00388    2.00000
   20    -12.03674    2.00000
   21    -11.73731    2.00000
   22    -11.18083    2.00000
   23    -10.77138    2.00000
   24    -10.16955    2.00000
   25     -9.77062    2.00000
   26     -9.43789    2.00000
   27     -9.09064    2.00000
   28     -9.06316    2.00000
   29     -8.99981    2.00000
   30     -8.84072    2.00000
   31     -8.74219    2.00000
   32     -8.45711    2.00000
   33     -8.04187    2.00000
   34     -7.78288    2.00000
   35     -7.72715    2.00000
   36     -7.44640    2.00000
   37     -7.31179    2.00000
   38     -7.06405    2.00000
   39     -6.76570    2.00000
   40     -6.51307    2.00000
   41     -6.41789    2.00000
   42     -6.05905    2.00000
   43     -6.03449    1.99999
   44     -5.65071    1.99975
   45     -5.36654    1.99565
   46     -5.00236    1.84640
   47     -4.87025    1.52468
   48     -4.67003    0.60449
   49     -4.32231    0.02641
   50     -4.09042    0.00263
   51     -3.32259    0.00000
   52     -2.98624    0.00000
   53     -2.84698    0.00000
   54     -2.53378    0.00000
   55     -1.86661    0.00000
   56     -1.76160    0.00000
   57     -1.38419    0.00000
   58     -1.17882    0.00000
   59     -0.47160    0.00000
   60     -0.41652    0.00000
   61     -0.20214    0.00000
   62      0.21399    0.00000
   63      0.76174    0.00000
   64      0.91492    0.00000
   65      1.27078    0.00000
   66      1.53469    0.00000
   67      1.75607    0.00000
   68      2.31565    0.00000
   69      2.50789    0.00000
   70      2.92317    0.00000
   71      3.47114    0.00000
   72      3.55135    0.00000
   73      4.18655    0.00000
   74      4.61735    0.00000
   75      4.82525    0.00000
   76      5.59052    0.00000
   77      5.94608    0.00000
   78      6.30041    0.00000
   79      6.67642    0.00000
   80      7.53737    0.00000
   81      7.70486    0.00000
   82      7.94867    0.00000
   83      8.26749    0.00000
   84      8.45211    0.00000
   85      8.52370    0.00000
   86      8.72121    0.00000
   87      8.90577    0.00000
   88      8.91918    0.00000
   89      9.32400    0.00000
   90      9.37115    0.00000
   91      9.47699    0.00000
   92      9.63086    0.00000
   93      9.68341    0.00000
   94      9.70444    0.00000
   95      9.81028    0.00000
   96      9.88372    0.00000
   97      9.90570    0.00000


Forces in eV/Ang:
  0 C    -2.82582    0.84042   -0.77057
  1 C    -0.20016   -1.21511    0.82567
  2 C     1.31424    1.47471    3.18438
  3 C     0.30229   -0.21789   -0.45753
  4 C     0.69786   -0.55195   -0.51937
  5 C     0.37209   -0.88153   -2.05365
  6 C     0.14877   -0.91730    0.30947
  7 C     0.34327   -0.32683    0.33462
  8 C    -0.54588   -1.93763   -0.63230
  9 C    -0.32531   -0.15564    0.19501
 10 C    -0.08856   -0.14470    0.24544
 11 C     0.53398   -0.53122   -0.22110
 12 C     1.29612    1.33724   -1.92257
 13 C     0.77931   -1.10347   -1.18203
 14 C     0.94000   -0.87956   -2.18094
 15 C    -2.97742    4.26144   -4.42367
 16 C     1.47657   -0.26177    2.44027
 17 C     0.33011    1.15483   -1.87202
 18 C    -8.87424   -3.84469    1.37311
 19 C     2.30194    7.82388    3.35796
 20 C     1.16059   -0.48485   -0.71670
 21 C     2.74929   -2.54416    1.69785
 22 C     3.18572    1.15454   -0.78392
 23 C    -2.09443   -2.17502    3.78471

System changes: positions 

Initializing position-dependent things.

Density initialized from wave functions
           .--------------------------------------.  
          /|                                      |  
         / |                                      |  
        /  |                                      |  
       /   |                                      |  
      /    |                                      |  
     /     |                                      |  
    /      |                                      |  
   /       |                                      |  
  /       C|                               C  C   |  
 *         | C C                     C  C         |  
 |         |      C  C     C  C   C               |  
 |         .--CC--C--C-C--------------------------.  
 |        /   C       C                          /   
 |       /      C     C                         /    
 |      /         C   C                        /     
 |     /                                      /      
 |    /                                      /       
 |   /                                      /        
 |  /                                      /         
 | /                                      /          
 |/                                      /           
 *--------------------------------------*            

Positions:
   0 C      7.974708    1.932599    4.602915
   1 C      7.140548    5.765404    4.513083
   2 C      6.394739    1.871236    4.475290
   3 C      4.617739    3.471914    5.506546
   4 C      7.762841    3.263153    4.542625
   5 C      5.490392    2.519720    5.317991
   6 C      7.610841    4.598548    4.453416
   7 C      4.286776    4.757833    5.447985
   8 C      6.457468    6.949671    4.572846
   9 C      5.049969    7.133333    4.981520
  10 C      4.276566    6.025875    5.289915
  11 C      4.748740    8.548943    4.938104
  12 C      9.538662    9.235914    4.309142
  13 C      5.923926    9.253819    4.507719
  14 C      8.345045    8.702762    4.256458
  15 C      1.073707    9.465168    5.796832
  16 C     13.342730   10.234452    4.585273
  17 C      3.473301    9.130628    5.114445
  18 C     10.939444    9.957185    4.004020
  19 C      7.014517    7.997162    3.844761
  20 C     14.526307   10.264973    5.125212
  21 C     15.873124   10.114014    5.351565
  22 C     12.018857    9.991821    4.674614
  23 C      2.535466    9.914697    4.637828

Unit cell:
           periodic     x           y           z      points  spacing
  1. axis:    yes   16.000000    0.000000    0.000000    80     0.2000
  2. axis:    yes    0.000000   16.000000    0.000000    80     0.2000
  3. axis:    yes    0.000000    0.000000   10.000000    48     0.2083

Effective grid spacing dv^(1/3) = 0.2027

                     log10-error:    total        iterations:
           time      wfs    density  energy       fermi  poisson
iter:   1  11:14:12          +inf  -174.029058    3      5      
iter:   2  11:14:13         -1.76  -173.907464    3      2      
iter:   3  11:14:13         -1.99  -173.865339    2      2      
iter:   4  11:14:14         -2.18  -173.844959    2      2      
iter:   5  11:14:14         -2.44  -173.843053    2      2      
iter:   6  11:14:15         -2.52  -173.838686    2      2      
iter:   7  11:14:15         -2.75  -173.831199    3      1      
iter:   8  11:14:16         -2.84  -173.839672    3      2      
iter:   9  11:14:16         -3.00  -173.839616    2      2      
iter:  10  11:14:17         -3.28  -173.836314    2      1      
iter:  11  11:14:17         -3.38  -173.836667    2      1      
iter:  12  11:14:18         -3.54  -173.840695    2      1      
iter:  13  11:14:18         -3.67  -173.839928    2      1      
iter:  14  11:14:18         -3.81  -173.839382    2      1      
iter:  15  11:14:19         -3.95  -173.840976    2      1      
iter:  16  11:14:19         -4.12  -173.840519    2      1      

Converged after 16 iterations.

Dipole moment: (10.246518, -0.634939, 0.130936) |e|*Ang

Energy contributions relative to reference atoms: (reference = -24663.074771)

Kinetic:        +60.366060
Potential:      -82.356104
External:        +0.000000
XC:            -154.614910
Entropy (-ST):   -0.295407
Local:           +2.912138
--------------------------
Free energy:   -173.988223
Extrapolated:  -173.840519

Fermi level: -4.72760

 Band  Eigenvalues  Occupancy
    0    -22.42287    2.00000
    1    -21.52318    2.00000
    2    -20.61666    2.00000
    3    -20.29572    2.00000
    4    -20.25189    2.00000
    5    -19.54855    2.00000
    6    -19.21658    2.00000
    7    -19.10193    2.00000
    8    -18.43348    2.00000
    9    -18.00232    2.00000
   10    -17.68564    2.00000
   11    -17.31621    2.00000
   12    -16.43866    2.00000
   13    -16.28353    2.00000
   14    -15.50834    2.00000
   15    -14.79135    2.00000
   16    -14.68800    2.00000
   17    -14.32762    2.00000
   18    -13.71983    2.00000
   19    -13.00741    2.00000
   20    -12.15877    2.00000
   21    -11.72791    2.00000
   22    -11.30055    2.00000
   23    -10.89676    2.00000
   24    -10.18585    2.00000
   25     -9.81939    2.00000
   26     -9.48839    2.00000
   27     -9.16608    2.00000
   28     -9.10514    2.00000
   29     -9.01173    2.00000
   30     -8.82544    2.00000
   31     -8.78683    2.00000
   32     -8.48669    2.00000
   33     -8.09187    2.00000
   34     -7.81231    2.00000
   35     -7.71793    2.00000
   36     -7.47710    2.00000
   37     -7.32829    2.00000
   38     -7.07435    2.00000
   39     -6.78367    2.00000
   40     -6.55435    2.00000
   41     -6.42841    2.00000
   42     -6.05619    2.00000
   43     -6.03698    2.00000
   44     -5.61452    1.99972
   45     -5.33720    1.99551
   46     -4.99418    1.86996
   47     -4.84074    1.51221
   48     -4.64443    0.60656
   49     -4.23098    0.01384
   50     -4.04675    0.00221
   51     -3.29445    0.00000
   52     -2.92015    0.00000
   53     -2.85715    0.00000
   54     -2.47928    0.00000
   55     -1.77427    0.00000
   56     -1.62081    0.00000
   57     -1.33811    0.00000
   58     -1.08507    0.00000
   59     -0.44140    0.00000
   60     -0.38886    0.00000
   61     -0.11210    0.00000
   62      0.35206    0.00000
   63      0.94869    0.00000
   64      1.11126    0.00000
   65      1.35911    0.00000
   66      1.59033    0.00000
   67      1.97574    0.00000
   68      2.58486    0.00000
   69      2.78101    0.00000
   70      3.01839    0.00000
   71      3.58768    0.00000
   72      3.68730    0.00000
   73      4.39195    0.00000
   74      4.80756    0.00000
   75      5.02180    0.00000
   76      5.79488    0.00000
   77      5.96592    0.00000
   78      6.35079    0.00000
   79      6.68451    0.00000
   80      7.56144    0.00000
   81      7.86074    0.00000
   82      7.94885    0.00000
   83      8.35449    0.00000
   84      8.46599    0.00000
   85      8.53128    0.00000
   86      8.72421    0.00000
   87      8.96390    0.00000
   88      8.97808    0.00000
   89      9.30257    0.00000
   90      9.36536    0.00000
   91      9.47918    0.00000
   92      9.62482    0.00000
   93      9.68617    0.00000
   94      9.73618    0.00000
   95      9.82230    0.00000
   96      9.86479    0.00000
   97      9.90978    0.00000


Forces in eV/Ang:
  0 C    -2.65210    0.53932   -0.72914
  1 C    -0.15769   -1.23798    0.70819
  2 C     1.37814    1.34147    2.98027
  3 C     0.31425   -0.22159   -0.45617
  4 C     0.67355   -0.33751   -0.53729
  5 C     0.16595   -0.71991   -1.85326
  6 C     0.10821   -0.70533    0.31255
  7 C     0.34475   -0.41720    0.31897
  8 C    -0.27347   -1.36687   -0.86232
  9 C    -0.23877   -0.19389    0.12542
 10 C    -0.07954   -0.07761    0.23310
 11 C     0.48519   -0.36049   -0.30251
 12 C     1.13461    1.20889   -1.85088
 13 C     0.86788   -1.19237   -1.18833
 14 C     1.07975   -0.67135   -2.03221
 15 C    -2.27472    4.08520   -4.39097
 16 C     1.25721   -0.23036    2.22893
 17 C     0.55046    0.89626   -1.68536
 18 C    -7.50384   -3.70561    1.96977
 19 C     1.76595    7.06843    3.69543
 20 C     1.17331   -0.52249   -0.60143
 21 C     2.22416   -2.25530    1.40710
 22 C     2.12836    1.06585   -1.33099
 23 C    -2.45810   -2.11514    3.83376

System changes: positions 

Initializing position-dependent things.

Density initialized from wave functions
           .--------------------------------------.  
          /|                                      |  
         / |                                      |  
        /  |                                      |  
       /   |                                      |  
      /    |                                      |  
     /     |                                      |  
    /      |                                      |  
   /       |                                      |  
  /       C|                               C  C   |  
 *         | C C                     C  C         |  
 |         |      C  C     C  C   C               |  
 |         .--CC--C--C-C--------------------------.  
 |        /   C       C                          /   
 |       /      C     C                         /    
 |      /         C   C                        /     
 |     /                                      /      
 |    /                                      /       
 |   /                                      /        
 |  /                                      /         
 | /                                      /          
 |/                                      /           
 *--------------------------------------*            

Positions:
   0 C      7.961389    1.933181    4.599172
   1 C      7.139758    5.759616    4.515760
   2 C      6.403121    1.877493    4.489939
   3 C      4.619117    3.470823    5.504117
   4 C      7.766584    3.262436    4.539557
   5 C      5.489587    2.516714    5.309566
   6 C      7.611321    4.595883    4.455130
   7 C      4.288654    4.755594    5.449513
   8 C      6.457793    6.946156    4.568097
   9 C      5.049318    7.132030    4.981380
  10 C      4.276298    6.025731    5.291185
  11 C      4.751749    8.548115    4.935354
  12 C      9.544025    9.241391    4.299595
  13 C      5.930136    9.246235    4.500848
  14 C      8.352139    8.701156    4.247064
  15 C      1.069610    9.486459    5.772210
  16 C     13.346985   10.233435    4.595577
  17 C      3.476777    9.134337    5.106284
  18 C     10.911185    9.938625    4.019370
  19 C      7.019386    8.030378    3.866510
  20 C     14.533252   10.261610    5.123159
  21 C     15.878818   10.104729    5.355953
  22 C     12.020860    9.996259    4.663258
  23 C      2.518278    9.901910    4.661381

Unit cell:
           periodic     x           y           z      points  spacing
  1. axis:    yes   16.000000    0.000000    0.000000    80     0.2000
  2. axis:    yes    0.000000   16.000000    0.000000    80     0.2000
  3. axis:    yes    0.000000    0.000000   10.000000    48     0.2083

Effective grid spacing dv^(1/3) = 0.2027

                     log10-error:    total        iterations:
           time      wfs    density  energy       fermi  poisson
iter:   1  11:14:21          +inf  -175.326999    3      5      
iter:   2  11:14:21         -1.78  -175.220485    3      2      
iter:   3  11:14:22         -1.99  -175.172318    3      2      
iter:   4  11:14:22         -2.23  -175.156325    2      2      
iter:   5  11:14:23         -2.48  -175.146411    3      1      
iter:   6  11:14:23         -2.55  -175.151411    2      2      
iter:   7  11:14:24         -2.75  -175.145227    3      1      
iter:   8  11:14:24         -2.86  -175.152608    3      2      
iter:   9  11:14:25         -3.01  -175.152522    2      2      
iter:  10  11:14:25         -3.26  -175.149643    2      1      
iter:  11  11:14:26         -3.38  -175.149743    2      1      
iter:  12  11:14:26         -3.59  -175.151741    2      1      
iter:  13  11:14:27         -3.68  -175.151898    2      1      
iter:  14  11:14:27         -3.78  -175.152007    2      1      
iter:  15  11:14:28         -3.88  -175.153907    2      1      
iter:  16  11:14:28         -4.05  -175.153497    2      1      

Converged after 16 iterations.

Dipole moment: (9.633830, -0.665136, 0.115150) |e|*Ang

Energy contributions relative to reference atoms: (reference = -24663.074771)

Kinetic:        +60.836163
Potential:      -82.870900
External:        +0.000000
XC:            -155.897308
Entropy (-ST):   -0.295325
Local:           +2.926211
--------------------------
Free energy:   -175.301159
Extrapolated:  -175.153497

Fermi level: -4.69771

 Band  Eigenvalues  Occupancy
    0    -22.37563    2.00000
    1    -21.61971    2.00000
    2    -20.60169    2.00000
    3    -20.24151    2.00000
    4    -20.21408    2.00000
    5    -19.56226    2.00000
    6    -19.22111    2.00000
    7    -19.09862    2.00000
    8    -18.49682    2.00000
    9    -18.04216    2.00000
   10    -17.71397    2.00000
   11    -17.34610    2.00000
   12    -16.46259    2.00000
   13    -16.35815    2.00000
   14    -15.57787    2.00000
   15    -14.83492    2.00000
   16    -14.74052    2.00000
   17    -14.34227    2.00000
   18    -13.75955    2.00000
   19    -12.99946    2.00000
   20    -12.28127    2.00000
   21    -11.71394    2.00000
   22    -11.37244    2.00000
   23    -11.02286    2.00000
   24    -10.19626    2.00000
   25     -9.86688    2.00000
   26     -9.54320    2.00000
   27     -9.29101    2.00000
   28     -9.18740    2.00000
   29     -9.04752    2.00000
   30     -8.82517    2.00000
   31     -8.77026    2.00000
   32     -8.50778    2.00000
   33     -8.12935    2.00000
   34     -7.85324    2.00000
   35     -7.71241    2.00000
   36     -7.51319    2.00000
   37     -7.35042    2.00000
   38     -7.08304    2.00000
   39     -6.81266    2.00000
   40     -6.58510    2.00000
   41     -6.43127    2.00000
   42     -6.06261    2.00000
   43     -6.02709    2.00000
   44     -5.57266    1.99968
   45     -5.30087    1.99521
   46     -4.96924    1.87585
   47     -4.80426    1.48749
   48     -4.62053    0.63220
   49     -4.14496    0.00792
   50     -3.98794    0.00165
   51     -3.25605    0.00000
   52     -2.91785    0.00000
   53     -2.78851    0.00000
   54     -2.44475    0.00000
   55     -1.73575    0.00000
   56     -1.44796    0.00000
   57     -1.28763    0.00000
   58     -0.98761    0.00000
   59     -0.41573    0.00000
   60     -0.36010    0.00000
   61     -0.01480    0.00000
   62      0.50311    0.00000
   63      1.10815    0.00000
   64      1.34832    0.00000
   65      1.43876    0.00000
   66      1.67246    0.00000
   67      2.18563    0.00000
   68      2.81674    0.00000
   69      3.04138    0.00000
   70      3.25773    0.00000
   71      3.69281    0.00000
   72      3.82652    0.00000
   73      4.56424    0.00000
   74      4.96583    0.00000
   75      5.27870    0.00000
   76      5.95459    0.00000
   77      5.99893    0.00000
   78      6.39916    0.00000
   79      6.69421    0.00000
   80      7.57120    0.00000
   81      7.93229    0.00000
   82      7.99328    0.00000
   83      8.41698    0.00000
   84      8.46406    0.00000
   85      8.53370    0.00000
   86      8.74185    0.00000
   87      9.00156    0.00000
   88      9.05956    0.00000
   89      9.27853    0.00000
   90      9.35950    0.00000
   91      9.49657    0.00000
   92      9.62454    0.00000
   93      9.67137    0.00000
   94      9.77872    0.00000
   95      9.83239    0.00000
   96      9.84723    0.00000
   97      9.93643    0.00000


Forces in eV/Ang:
  0 C    -2.44675    0.33088   -0.68572
  1 C    -0.30140   -0.79422    0.60183
  2 C     1.35343    1.26216    2.76156
  3 C     0.30397   -0.23135   -0.44295
  4 C     0.65282   -0.12849   -0.55747
  5 C    -0.00250   -0.60270   -1.66530
  6 C     0.21343   -0.91438    0.29886
  7 C     0.33249   -0.30832    0.28229
  8 C     0.01442   -0.95227   -1.03742
  9 C    -0.12360   -0.20338    0.06109
 10 C    -0.09070   -0.18303    0.24329
 11 C     0.44478   -0.18738   -0.37789
 12 C     0.86846    1.02741   -1.73118
 13 C     0.90779   -1.23823   -1.17170
 14 C     1.22747   -0.47264   -1.90389
 15 C    -1.52308    3.91237   -4.32892
 16 C     1.04969   -0.22524    2.03464
 17 C     0.71158    0.67878   -1.53923
 18 C    -6.10326   -3.44086    2.38566
 19 C     1.23949    6.26554    3.93029
 20 C     1.13085   -0.54685   -0.51225
 21 C     1.69782   -1.93786    1.12781
 22 C     1.22763    0.94804   -1.73258
 23 C    -2.75961   -2.14733    3.94413

System changes: positions 

Initializing position-dependent things.

Density initialized from wave functions
           .--------------------------------------.  
          /|                                      |  
         / |                                      |  
        /  |                                      |  
       /   |                                      |  
      /    |                                      |  
     /     |                                      |  
    /      |                                      |  
   /       |                                      |  
  /       C|                               C  C   |  
 *         | C C                     C  C         |  
 |         |      C  C     C  C   C               |  
[...]
Local:           +3.089054
--------------------------
Free energy:   -185.499349
Extrapolated:  -185.390779

Fermi level: -4.60563

 Band  Eigenvalues  Occupancy
    0    -22.18720    2.00000
    1    -21.28064    2.00000
    2    -20.46114    2.00000
    3    -20.16951    2.00000
    4    -20.01818    2.00000
    5    -19.93268    2.00000
    6    -19.41766    2.00000
    7    -19.29277    2.00000
    8    -18.72703    2.00000
    9    -18.67659    2.00000
   10    -17.83555    2.00000
   11    -17.80768    2.00000
   12    -16.95072    2.00000
   13    -16.55954    2.00000
   14    -15.83195    2.00000
   15    -15.81817    2.00000
   16    -14.75775    2.00000
   17    -14.42066    2.00000
   18    -14.16651    2.00000
   19    -13.88056    2.00000
   20    -13.02439    2.00000
   21    -12.89217    2.00000
   22    -12.80490    2.00000
   23    -11.26678    2.00000
   24    -11.08072    2.00000
   25    -10.69745    2.00000
   26    -10.09670    2.00000
   27     -9.61088    2.00000
   28     -9.52903    2.00000
   29     -8.99496    2.00000
   30     -8.96961    2.00000
   31     -8.94130    2.00000
   32     -8.62876    2.00000
   33     -8.52849    2.00000
   34     -8.35734    2.00000
   35     -8.13421    2.00000
   36     -7.65078    2.00000
   37     -7.44472    2.00000
   38     -7.37637    2.00000
   39     -7.29689    2.00000
   40     -6.65931    2.00000
   41     -6.25645    2.00000
   42     -6.13214    2.00000
   43     -5.92133    2.00000
   44     -5.22948    1.99610
   45     -5.11110    1.98732
   46     -4.93994    1.93176
   47     -4.78611    1.71747
   48     -4.45645    0.36732
   49     -3.50625    0.00003
   50     -3.20108    0.00000
   51     -2.73493    0.00000
   52     -1.96651    0.00000
   53     -1.75888    0.00000
   54     -1.67337    0.00000
   55     -1.27207    0.00000
   56     -1.00011    0.00000
   57     -0.41357    0.00000
   58     -0.18979    0.00000
   59      0.49748    0.00000
   60      0.62322    0.00000
   61      1.42744    0.00000
   62      1.99749    0.00000
   63      2.50726    0.00000
   64      3.21912    0.00000
   65      3.70594    0.00000
   66      4.25989    0.00000
   67      4.42540    0.00000
   68      4.78973    0.00000
   69      4.94555    0.00000
   70      5.51043    0.00000
   71      5.69957    0.00000
   72      6.13077    0.00000
   73      6.25228    0.00000
   74      6.51196    0.00000
   75      6.75983    0.00000
   76      7.08769    0.00000
   77      7.55063    0.00000
   78      7.62203    0.00000
   79      7.70959    0.00000
   80      8.15704    0.00000
   81      8.38022    0.00000
   82      8.46028    0.00000
   83      8.65045    0.00000
   84      8.81700    0.00000
   85      8.87301    0.00000
   86      9.08246    0.00000
   87      9.10804    0.00000
   88      9.13037    0.00000
   89      9.36998    0.00000
   90      9.47576    0.00000
   91      9.57578    0.00000
   92      9.75616    0.00000
   93      9.84044    0.00000
   94      9.87281    0.00000
   95      9.91884    0.00000
   96      9.94789    0.00000
   97     10.12034    0.00000


Forces in eV/Ang:
  0 C    -0.20457   -0.22968    0.04613
  1 C     0.05657   -0.03707    0.00914
  2 C     0.11778    0.10328   -0.02893
  3 C    -0.08531   -0.06653    0.01918
  4 C     0.01148    0.06599    0.03489
  5 C    -0.00107   -0.00486   -0.06494
  6 C    -0.05193    0.18412    0.04752
  7 C     0.05228    0.00834    0.03551
  8 C     0.03787    0.08665    0.03847
  9 C     0.03950    0.06153   -0.05374
 10 C    -0.02341   -0.03950   -0.05163
 11 C    -0.02631    0.00748    0.05932
 12 C     0.18530    0.03109    0.04699
 13 C     0.01973   -0.15161   -0.10453
 14 C    -0.08253   -0.09957    0.03923
 15 C    -0.02787    0.00331    0.03014
 16 C    -0.06408    0.00608    0.01178
 17 C     0.03489    0.00404    0.03249
 18 C    -0.08319    0.05845   -0.10524
 19 C    -0.06148    0.07386    0.02218
 20 C     0.08026    0.00039    0.00859
 21 C    -0.01839   -0.07838   -0.05131
 22 C     0.05383    0.03376    0.05194
 23 C     0.05216   -0.02186   -0.00989

System changes: positions 

Initializing position-dependent things.

Density initialized from wave functions
           .--------------------------------------.  
          /|                                      |  
         / |                                      |  
        /  |                                      |  
       /   |                                      |  
      /    |                                      |  
     /     |                                      |  
    /      |                                      |  
   /       |                                      |  
  /        |                                      |  
 *        C|C  C                    C   C  C  C   |  
 |         |      C  C C   C  C  C                |  
 |         .---C--C--C----------------------------.  
 |        /   C        C                         /   
 |       /   C C       C                        /    
 |      /        C  C  C                       /     
 |     /                                      /      
 |    /                                      /       
 |   /                                      /        
 |  /                                      /         
 | /                                      /          
 |/                                      /           
 *--------------------------------------*            

Positions:
   0 C      7.327078    2.290995    4.713446
   1 C      7.395341    5.740818    4.434570
   2 C      6.266544    1.565444    5.040495
   3 C      4.217200    3.147385    5.336967
   4 C      8.155503    3.254518    4.429149
   5 C      5.135764    2.239156    5.231914
   6 C      7.892505    4.567853    4.375864
   7 C      4.185698    4.475313    5.214625
   8 C      6.602845    6.848064    4.576298
   9 C      5.162032    6.855235    4.893619
  10 C      4.415980    5.722846    5.086554
  11 C      4.736063    8.283434    4.959013
  12 C      9.520448    9.128933    4.338725
  13 C      5.891376    9.068997    4.749705
  14 C      8.343977    8.693468    4.372545
  15 C      1.049712    9.711151    5.162440
  16 C     13.276568   10.141148    4.713171
  17 C      3.435757    8.726468    5.112592
  18 C     10.778425    9.546621    4.419874
  19 C      7.035001    8.279635    4.513132
  20 C     14.530882   10.201404    4.900723
  21 C     15.834433   10.057881    5.069303
  22 C     11.988697    9.901753    4.533672
  23 C      2.290277    9.238329    5.188274

Unit cell:
           periodic     x           y           z      points  spacing
  1. axis:    yes   16.000000    0.000000    0.000000    80     0.2000
  2. axis:    yes    0.000000   16.000000    0.000000    80     0.2000
  3. axis:    yes    0.000000    0.000000   10.000000    48     0.2083

Effective grid spacing dv^(1/3) = 0.2027

                     log10-error:    total        iterations:
           time      wfs    density  energy       fermi  poisson
iter:   1  11:24:15          +inf  -185.396273    3      4      
iter:   2  11:24:16         -2.89  -185.394995    3      1      
iter:   3  11:24:16         -3.09  -185.394436    2      1      
iter:   4  11:24:17         -3.19  -185.395522    2      1      
iter:   5  11:24:17         -3.36  -185.395378    3      1      
iter:   6  11:24:18         -2.95  -185.393015    3      1      
iter:   7  11:24:18         -3.37  -185.394849    3      1      
iter:   8  11:24:19         -3.18  -185.394156    3      1      
iter:   9  11:24:19         -3.64  -185.393376    2      1      
iter:  10  11:24:20         -3.90  -185.393830    2      1      
iter:  11  11:24:20         -3.76  -185.393808    2      1      
iter:  12  11:24:21         -4.15  -185.393700    2      1      

Converged after 12 iterations.

Dipole moment: (13.333881, -0.839494, 0.002843) |e|*Ang

Energy contributions relative to reference atoms: (reference = -24663.074771)

Kinetic:       +109.951544
Potential:     -122.754381
External:        +0.000000
XC:            -175.565984
Entropy (-ST):   -0.216780
Local:           +3.083511
--------------------------
Free energy:   -185.502090
Extrapolated:  -185.393700

Fermi level: -4.60670

 Band  Eigenvalues  Occupancy
    0    -22.19035    2.00000
    1    -21.28866    2.00000
    2    -20.45616    2.00000
    3    -20.17029    2.00000
    4    -20.01883    2.00000
    5    -19.93499    2.00000
    6    -19.41881    2.00000
    7    -19.29325    2.00000
    8    -18.72648    2.00000
    9    -18.67668    2.00000
   10    -17.83794    2.00000
   11    -17.80819    2.00000
   12    -16.95142    2.00000
   13    -16.55648    2.00000
   14    -15.83100    2.00000
   15    -15.82275    2.00000
   16    -14.75852    2.00000
   17    -14.41321    2.00000
   18    -14.16265    2.00000
   19    -13.88400    2.00000
   20    -13.02647    2.00000
   21    -12.88305    2.00000
   22    -12.80077    2.00000
   23    -11.26985    2.00000
   24    -11.08920    2.00000
   25    -10.70574    2.00000
   26    -10.09730    2.00000
   27     -9.61327    2.00000
   28     -9.53287    2.00000
   29     -8.99568    2.00000
   30     -8.97037    2.00000
   31     -8.93670    2.00000
   32     -8.62901    2.00000
   33     -8.52150    2.00000
   34     -8.35955    2.00000
   35     -8.13625    2.00000
   36     -7.65135    2.00000
   37     -7.44565    2.00000
   38     -7.37844    2.00000
   39     -7.29900    2.00000
   40     -6.65707    2.00000
   41     -6.25765    2.00000
   42     -6.13303    2.00000
   43     -5.92020    2.00000
   44     -5.23210    1.99616
   45     -5.11240    1.98735
   46     -4.94132    1.93196
   47     -4.78742    1.71806
   48     -4.45723    0.36643
   49     -3.50859    0.00003
   50     -3.19955    0.00000
   51     -2.74075    0.00000
   52     -1.95481    0.00000
   53     -1.75069    0.00000
   54     -1.67571    0.00000
   55     -1.27562    0.00000
   56     -1.00475    0.00000
   57     -0.41803    0.00000
   58     -0.19288    0.00000
   59      0.49042    0.00000
   60      0.63214    0.00000
   61      1.42446    0.00000
   62      2.00269    0.00000
   63      2.50124    0.00000
   64      3.20819    0.00000
   65      3.68858    0.00000
   66      4.25398    0.00000
   67      4.41861    0.00000
   68      4.78660    0.00000
   69      4.94205    0.00000
   70      5.51356    0.00000
   71      5.70589    0.00000
   72      6.13670    0.00000
   73      6.22788    0.00000
   74      6.49469    0.00000
   75      6.77196    0.00000
   76      7.07322    0.00000
   77      7.54114    0.00000
   78      7.62695    0.00000
   79      7.70682    0.00000
   80      8.14122    0.00000
   81      8.37664    0.00000
   82      8.45748    0.00000
   83      8.65226    0.00000
   84      8.81776    0.00000
   85      8.87127    0.00000
   86      9.08358    0.00000
   87      9.10474    0.00000
   88      9.13342    0.00000
   89      9.36277    0.00000
   90      9.47056    0.00000
   91      9.57459    0.00000
   92      9.75028    0.00000
   93      9.83944    0.00000
   94      9.87042    0.00000
   95      9.91757    0.00000
   96      9.94645    0.00000
   97     10.11158    0.00000


Forces in eV/Ang:
  0 C    -0.00034   -0.06736   -0.00717
  1 C     0.00869    0.03718    0.02138
  2 C     0.01070    0.04149    0.00276
  3 C    -0.06565   -0.02172    0.02159
  4 C    -0.05880    0.04725    0.03399
  5 C    -0.03003   -0.01604   -0.06046
  6 C    -0.04288    0.06405    0.05440
  7 C     0.03675   -0.02713    0.03497
  8 C     0.03759    0.07863    0.03511
  9 C     0.00973    0.01368   -0.04112
 10 C     0.01227    0.00824   -0.05074
 11 C     0.00720   -0.01230    0.02365
 12 C     0.06384   -0.00691    0.03780
 13 C     0.01295   -0.06503   -0.08087
 14 C    -0.03222   -0.02755    0.03058
 15 C    -0.01173    0.00341    0.02467
 16 C    -0.03245    0.00951    0.01532
 17 C    -0.00376    0.00972    0.04058
 18 C    -0.03757    0.05058   -0.08502
 19 C    -0.00432    0.03183    0.00560
 20 C     0.02209    0.00658   -0.01770
 21 C    -0.00186   -0.07850   -0.02800
 22 C     0.07008    0.04733    0.04615
 23 C     0.06443   -0.02856   -0.01387

System changes: positions 

Initializing position-dependent things.

Density initialized from wave functions
           .--------------------------------------.  
          /|                                      |  
         / |                                      |  
        /  |                                      |  
       /   |                                      |  
      /    |                                      |  
     /     |                                      |  
    /      |                                      |  
   /       |                                      |  
  /        |                                      |  
 *        C|C  C                    C   C  C  C   |  
 |         |      C  C C   C  C  C                |  
 |         .---C--C--C----------------------------.  
 |        /   C        C                         /   
 |       /   C C       C                        /    
 |      /        C  C  C                       /     
 |     /                                      /      
 |    /                                      /       
 |   /                                      /        
 |  /                                      /         
 | /                                      /          
 |/                                      /           
 *--------------------------------------*            

Positions:
   0 C      7.326253    2.287908    4.711268
   1 C      7.395477    5.740498    4.436360
   2 C      6.266204    1.565548    5.038311
   3 C      4.214690    3.144905    5.337802
   4 C      8.152708    3.253540    4.429890
   5 C      5.136922    2.240345    5.233474
   6 C      7.891966    4.567827    4.378322
   7 C      4.187190    4.473572    5.215507
   8 C      6.602530    6.847390    4.579408
   9 C      5.161497    6.854795    4.894499
  10 C      4.415156    5.721384    5.084039
  11 C      4.736463    8.283314    4.961586
  12 C      9.521432    9.130441    4.337372
  13 C      5.892099    9.065230    4.743615
  14 C      8.346147    8.689265    4.372808
  15 C      1.050936    9.712789    5.163518
  16 C     13.275953   10.142570    4.716503
  17 C      3.437843    8.730295    5.114046
  18 C     10.777288    9.554412    4.413457
  19 C      7.036527    8.277911    4.515330
  20 C     14.530943   10.199512    4.904154
  21 C     15.834976   10.055833    5.068163
  22 C     11.988173    9.906723    4.533752
  23 C      2.293020    9.242548    5.189941

Unit cell:
           periodic     x           y           z      points  spacing
  1. axis:    yes   16.000000    0.000000    0.000000    80     0.2000
  2. axis:    yes    0.000000   16.000000    0.000000    80     0.2000
  3. axis:    yes    0.000000    0.000000   10.000000    48     0.2083

Effective grid spacing dv^(1/3) = 0.2027

                     log10-error:    total        iterations:
           time      wfs    density  energy       fermi  poisson
iter:   1  11:24:22          +inf  -185.401040    2      4      
iter:   2  11:24:23         -3.03  -185.399105    2      1      
iter:   3  11:24:23         -3.15  -185.396561    2      1      
iter:   4  11:24:23         -3.37  -185.396318    2      1      
iter:   5  11:24:24         -3.45  -185.396916    2      1      
iter:   6  11:24:24         -3.61  -185.395191    2      1      
iter:   7  11:24:25         -3.48  -185.396162    2      1      
iter:   8  11:24:25         -4.03  -185.396733    1      1      

Converged after 8 iterations.

Dipole moment: (13.298894, -0.836213, 0.004819) |e|*Ang

Energy contributions relative to reference atoms: (reference = -24663.074771)

Kinetic:       +110.094547
Potential:     -122.867665
External:        +0.000000
XC:            -175.608351
Entropy (-ST):   -0.215353
Local:           +3.092412
--------------------------
Free energy:   -185.504410
Extrapolated:  -185.396733

Fermi level: -4.60618

 Band  Eigenvalues  Occupancy
    0    -22.19935    2.00000
    1    -21.29320    2.00000
    2    -20.45412    2.00000
    3    -20.16869    2.00000
    4    -20.01933    2.00000
    5    -19.93660    2.00000
    6    -19.42025    2.00000
    7    -19.29218    2.00000
    8    -18.72790    2.00000
    9    -18.67642    2.00000
   10    -17.84047    2.00000
   11    -17.80795    2.00000
   12    -16.95246    2.00000
   13    -16.55612    2.00000
   14    -15.83058    2.00000
   15    -15.82650    2.00000
   16    -14.76000    2.00000
   17    -14.41133    2.00000
   18    -14.16206    2.00000
   19    -13.88484    2.00000
   20    -13.02592    2.00000
   21    -12.87930    2.00000
   22    -12.80500    2.00000
   23    -11.27392    2.00000
   24    -11.10221    2.00000
   25    -10.71459    2.00000
   26    -10.10150    2.00000
   27     -9.61530    2.00000
   28     -9.53668    2.00000
   29     -8.99414    2.00000
   30     -8.96899    2.00000
   31     -8.93493    2.00000
   32     -8.62826    2.00000
   33     -8.51858    2.00000
   34     -8.35912    2.00000
   35     -8.13786    2.00000
   36     -7.65064    2.00000
   37     -7.44622    2.00000
   38     -7.37940    2.00000
   39     -7.29946    2.00000
   40     -6.65690    2.00000
   41     -6.25803    2.00000
   42     -6.13367    2.00000
   43     -5.92047    2.00000
   44     -5.23139    1.99615
   45     -5.11222    1.98739
   46     -4.94217    1.93285
   47     -4.78812    1.72099
   48     -4.45541    0.36257
   49     -3.50932    0.00003
   50     -3.19813    0.00000
   51     -2.74311    0.00000
   52     -1.94609    0.00000
   53     -1.74634    0.00000
   54     -1.67723    0.00000
   55     -1.27558    0.00000
   56     -1.00454    0.00000
   57     -0.41798    0.00000
   58     -0.19288    0.00000
   59      0.48935    0.00000
   60      0.63856    0.00000
   61      1.42377    0.00000
   62      2.00753    0.00000
   63      2.50033    0.00000
   64      3.20657    0.00000
   65      3.67270    0.00000
   66      4.26156    0.00000
   67      4.41672    0.00000
   68      4.78421    0.00000
   69      4.94562    0.00000
   70      5.52092    0.00000
   71      5.71245    0.00000
   72      6.14853    0.00000
   73      6.22471    0.00000
   74      6.48526    0.00000
   75      6.78514    0.00000
   76      7.06463    0.00000
   77      7.54540    0.00000
   78      7.63064    0.00000
   79      7.71040    0.00000
   80      8.13444    0.00000
   81      8.37578    0.00000
   82      8.45809    0.00000
   83      8.65192    0.00000
   84      8.81727    0.00000
   85      8.87143    0.00000
   86      9.08804    0.00000
   87      9.10457    0.00000
   88      9.13668    0.00000
   89      9.36024    0.00000
   90      9.46976    0.00000
   91      9.57391    0.00000
   92      9.74976    0.00000
   93      9.84052    0.00000
   94      9.86991    0.00000
   95      9.91806    0.00000
   96      9.94722    0.00000
   97     10.11309    0.00000


Forces in eV/Ang:
  0 C     0.07793    0.00432   -0.02182
  1 C    -0.01577    0.07601    0.03451
  2 C    -0.08027   -0.04326    0.03047
  3 C    -0.05877    0.01545    0.02436
  4 C    -0.03129    0.08635    0.02077
  5 C    -0.02952   -0.04982   -0.05938
  6 C    -0.02202   -0.02139    0.04579
  7 C     0.02145   -0.01047    0.02136
  8 C     0.04711    0.04477    0.01962
  9 C     0.00633   -0.01038   -0.02895
 10 C     0.02243    0.00455   -0.03087
 11 C     0.03170   -0.01661   -0.01382
 12 C    -0.01758   -0.02444    0.01908
 13 C    -0.01647   -0.01544   -0.05654
 14 C     0.01963    0.02341    0.02373
 15 C     0.02340   -0.00678    0.01813
 16 C     0.01505    0.01720    0.02072
 17 C     0.00083   -0.00473    0.04353
 18 C    -0.00469    0.03207   -0.05404
 19 C     0.02961   -0.00641   -0.01242
 20 C    -0.01806    0.00734   -0.03281
 21 C    -0.00874   -0.07219   -0.00543
 22 C     0.03645    0.04316    0.03202
 23 C     0.00827   -0.01346   -0.00841

