
  ___ ___ ___ _ _ _  
 |   |   |_  | | | | 
 | | | | | . | | | | 
 |__ |  _|___|_____|  1.3.0b1
 |___|_|             

User:   esb@s65n22.grendel.cscaa.dk
Date:   Thu Nov  9 09:19:02 2017
Arch:   x86_64
Pid:    66896
Python: 2.7.13
gpaw:   /home/esb/DFT/gpaw_git/gpaw
_gpaw:  /home/esb/DFT/gpaw_git/build/bin.linux-x86_64-2.7/gpaw-python
ase:    /home/esb/DFT/ase_git/ase (version 3.15.0b1)
numpy:  /comm/swstack/core/python/2.7.13/lib/python2.7/site-packages/numpy (version 1.13.3)
scipy:  /comm/swstack/core/python/2.7.13/lib/python2.7/site-packages/scipy (version 0.19.1)
units:  Angstrom and eV
cores:  16
Extra parameters: {'blacs': True}

Input parameters:
  basis: dzp
  gpts: [80 80 48]
  kpts: [1 1 1]
  maxiter: 99
  mixer: {backend: pulay,
          beta: 0.05,
          method: separate,
          nmaxold: 5,
          weight: 75}
  mode: lcao
  nbands: -50
  occupations: {name: fermi-dirac,
                width: 0.1}
  poissonsolver: {eps: 1e-07,
                  name: fd,
                  nn: 3,
                  relax: GS}
  xc: PBE

System changes: positions, numbers, cell, pbc, initial_charges, initial_magmoms 

Initialize ...

C-setup:
  name: Carbon
  id: 4aa54d4b901d75f77cc0ea3eec22967b
  Z: 6
  valence: 4
  core: 2
  charge: 0.0
  file: /home/esb/DFT/gpaw-setups-0.8.7929/C.PBE.gz
  cutoffs: 0.64(comp), 1.14(filt), 1.14(core), lmax=2
  valence states:
                energy  radius
    2s(2.00)   -13.751   0.635
    2p(2.00)    -5.284   0.635
    *s          13.461   0.635
    *p          21.927   0.635
    *d           0.000   0.635

  LCAO basis set for C:
    Name: dzp
    File: /home/esb/DFT/gpaw-setups-0.8.7929/C.dzp.basis.gz
    Number of radial functions: 5
    Number of spherical harmonics: 13
      l=0, rc=5.5469 Bohr: 2s-sz confined orbital
      l=1, rc=6.6719 Bohr: 2p-sz confined orbital
      l=0, rc=3.0312 Bohr: 2s-dz split-valence wave
      l=1, rc=3.7500 Bohr: 2p-dz split-valence wave
      l=2, rc=6.6719 Bohr: d-type Gaussian polarization

Reference energy: -24663.074771

Spin-paired calculation

Occupation numbers:
  Fermi-Dirac: width=0.1000 eV

Convergence criteria:
  Maximum total energy change: 0.0005 eV / electron
  Maximum integral of absolute density change: 0.0001 electrons
  Maximum integral of absolute eigenstate change: 4e-08 eV^2
  Maximum number of iterations: 99

Symmetries present (total): 1

  ( 1  0  0)
  ( 0  1  0)
  ( 0  0  1)

1 k-point (Gamma)
1 k-point in the irreducible part of the Brillouin zone
       k-points in crystal coordinates                weights
   0:     0.00000000    0.00000000    0.00000000          1/1

Wave functions: LCAO
  Diagonalizer: Serial LAPACK
  Atomic Correction: dense with blas
  Datatype: float
  Eigensolver: None 

LCAO using direct dense diagonalizer 

Densities:
  Coarse grid: 80*80*48 grid
  Fine grid: 160*160*96 grid
  Total Charge: 0.000000 

Density mixing:
  Method: separate
  Backend: pulay
  Linear mixing parameter: 0.05
  Mixing with 5 old densities
  Damping of long wave oscillations: 75 

Hamiltonian:
  XC and Coulomb potentials evaluated on a 160*160*96 grid
  Using the PBE Exchange-Correlation functional
  Interpolation: tri-quintic (5. degree polynomial)
  Poisson solver: Gauss-Seidel solver with 6 multi-grid levels
    Coarsest grid: 5 x 5 x 3 points
    Stencil: 6*3+1=19 point O(h^6) finite-difference Laplacian
    Max iterations: 1000
    Tolerance: 1.000000e-07 

Memory estimate:
  Process memory now: 77.59 MiB
  Calculator: 15.59 MiB
    Density: 6.13 MiB
      Arrays: 3.81 MiB
      Localized functions: 0.86 MiB
      Mixer: 1.46 MiB
    Hamiltonian: 5.40 MiB
      Arrays: 2.49 MiB
      XC: 0.00 MiB
      Poisson: 2.85 MiB
      vbar: 0.07 MiB
    Wavefunctions: 4.05 MiB
      C [qnM]: 0.23 MiB
      S, T [2 x qmm]: 1.49 MiB
      P [aqMi]: 0.01 MiB
      TCI: 0.00 MiB
      BasisFunctions: 2.33 MiB
      Eigensolver: 0.00 MiB

Total number of cores used: 16
Domain decomposition: 2 x 4 x 2

Number of atoms: 24
Number of atomic orbitals: 312
Number of bands in calculation: 98
Bands to converge: occupied states only
Number of valence electrons: 96

... initialized

Initializing position-dependent things.

Density initialized from atomic densities
           .--------------------------------------.  
          /|                                      |  
         / |                                      |  
        /  |                                      |  
       /   |                                      |  
      /    |                                      |  
     /     |                                      |  
    /      |                                      |  
   /       |      C  C                            |  
  /        |     C     C  CC  C                   |  
 *         |                   C                  |  
 |         |    CC   C      C    C                |  
 |         .-C-C-----C--C-----C-------------------.  
 |        /     C  C  CC  C   C                  /   
 |       /                                      /    
 |      /                                      /     
 |     /                                      /      
 |    /                                      /       
 |   /                                      /        
 |  /                                      /         
 | /                                      /          
 |/                                      /           
 *--------------------------------------*            

Positions:
   0 C      7.547506    9.927920    6.079185
   1 C     10.726437    5.232759    5.649679
   2 C      9.804456    8.588518    6.205694
   3 C      9.566873    6.171946    5.751354
   4 C     10.382163    7.408801    6.006993
   5 C      8.422937    8.818233    6.022144
   6 C      3.288245    6.325099    5.437312
   7 C     11.454974    6.415528    5.935323
   8 C     10.697761    3.903902    5.296983
   9 C      5.188180   11.327063    5.594650
  10 C      6.580736    6.952233    5.125670
  11 C      3.612157    9.312026    4.607643
  12 C      4.595847    5.718686    4.542000
  13 C      7.177607    4.925782    5.176048
  14 C      6.310891   10.703046    5.639657
  15 C      7.946914    3.766529    5.195508
  16 C      7.881631    6.259424    5.325370
  17 C      9.240496    3.908575    5.237569
  18 C      3.905498   11.834828    5.423931
  19 C      5.929668    5.633895    4.937803
  20 C      3.662129   10.546018    4.960730
  21 C      4.457848    8.192534    4.651800
  22 C      5.961055    8.199529    5.034877
  23 C      4.058217    6.864453    4.413628

Unit cell:
           periodic     x           y           z      points  spacing
  1. axis:    yes   16.000000    0.000000    0.000000    80     0.2000
  2. axis:    yes    0.000000   16.000000    0.000000    80     0.2000
  3. axis:    yes    0.000000    0.000000   10.000000    48     0.2083

Effective grid spacing dv^(1/3) = 0.2027

                     log10-error:    total        iterations:
           time      wfs    density  energy       fermi  poisson
iter:   1  09:19:04          +inf  -174.887795    3      6      
iter:   2  09:19:04         -0.90  -173.938711    3      3      
iter:   3  09:19:05         -0.94  -172.364190    4      3      
iter:   4  09:19:05         -1.08  -171.925612    4      3      
iter:   5  09:19:06         -1.19  -171.556997    32     3      
iter:   6  09:19:07         -1.37  -171.549460    33     3      
iter:   7  09:19:07         -1.59  -171.508873    2      3      
iter:   8  09:19:08         -1.67  -171.451497    3      3      
iter:   9  09:19:08         -1.87  -171.434031    3      2      
iter:  10  09:19:09         -1.96  -171.418830    3      2      
iter:  11  09:19:09         -2.05  -171.400894    4      2      
iter:  12  09:19:10         -2.39  -171.390061    3      2      
iter:  13  09:19:10         -2.53  -171.387807    3      2      
iter:  14  09:19:11         -2.66  -171.395386    3      1      
iter:  15  09:19:11         -2.72  -171.387361    3      2      
iter:  16  09:19:12         -2.91  -171.397053    2      1      
iter:  17  09:19:12         -3.05  -171.386875    3      2      
iter:  18  09:19:13         -3.33  -171.386397    2      1      
iter:  19  09:19:13         -3.46  -171.389039    2      1      
iter:  20  09:19:14         -3.57  -171.390765    2      1      
iter:  21  09:19:14         -3.77  -171.385436    2      1      
iter:  22  09:19:15         -3.91  -171.385265    2      1      
iter:  23  09:19:15         -4.02  -171.385237    2      1      

Converged after 23 iterations.

Dipole moment: (0.309943, 0.193374, -0.159801) |e|*Ang

Energy contributions relative to reference atoms: (reference = -24663.074771)

Kinetic:        +95.284391
Potential:     -104.024051
External:        +0.000000
XC:            -165.402579
Entropy (-ST):   -0.312422
Local:           +2.913214
--------------------------
Free energy:   -171.541448
Extrapolated:  -171.385237

Fermi level: -4.85416

 Band  Eigenvalues  Occupancy
    0    -23.70727    2.00000
    1    -23.38057    2.00000
    2    -22.36622    2.00000
    3    -21.84369    2.00000
    4    -20.72029    2.00000
    5    -19.98990    2.00000
    6    -19.89193    2.00000
    7    -19.37258    2.00000
    8    -18.75151    2.00000
    9    -18.05709    2.00000
   10    -17.62833    2.00000
   11    -17.43858    2.00000
   12    -16.62717    2.00000
   13    -15.60327    2.00000
   14    -15.26659    2.00000
   15    -14.84310    2.00000
   16    -13.71480    2.00000
   17    -13.41229    2.00000
   18    -13.30125    2.00000
   19    -12.66869    2.00000
   20    -12.12127    2.00000
   21    -12.00624    2.00000
   22    -11.39507    2.00000
   23    -11.22662    2.00000
   24    -11.09689    2.00000
   25    -10.54417    2.00000
   26    -10.30115    2.00000
   27    -10.07403    2.00000
   28     -9.85926    2.00000
   29     -9.58148    2.00000
   30     -9.50518    2.00000
   31     -9.17879    2.00000
   32     -8.69346    2.00000
   33     -8.59724    2.00000
   34     -8.38388    2.00000
   35     -8.04562    2.00000
   36     -7.68336    2.00000
   37     -7.30706    2.00000
   38     -7.23630    2.00000
   39     -6.70376    2.00000
   40     -6.42191    2.00000
   41     -6.19825    2.00000
   42     -5.81899    1.99987
   43     -5.56700    1.99840
   44     -5.51883    1.99741
   45     -5.37968    1.98961
   46     -5.12803    1.87855
   47     -4.93669    1.39072
   48     -4.80166    0.74338
   49     -4.11663    0.00125
   50     -4.06646    0.00076
   51     -3.80019    0.00005
   52     -3.18237    0.00000
   53     -2.75649    0.00000
   54     -2.36887    0.00000
   55     -1.86227    0.00000
   56     -1.81822    0.00000
   57     -1.35483    0.00000
   58     -0.97624    0.00000
   59     -0.89119    0.00000
   60      0.08858    0.00000
   61      0.46877    0.00000
   62      0.56026    0.00000
   63      1.59989    0.00000
   64      1.71699    0.00000
   65      2.01421    0.00000
   66      2.17193    0.00000
   67      2.66204    0.00000
   68      3.09701    0.00000
   69      3.27921    0.00000
   70      3.63479    0.00000
   71      3.89537    0.00000
   72      4.39547    0.00000
   73      4.52109    0.00000
   74      4.98324    0.00000
   75      5.66918    0.00000
   76      6.05476    0.00000
   77      6.35447    0.00000
   78      6.44924    0.00000
   79      6.56152    0.00000
   80      7.22503    0.00000
   81      7.64828    0.00000
   82      7.87799    0.00000
   83      8.25554    0.00000
   84      8.30328    0.00000
   85      8.52192    0.00000
   86      8.66564    0.00000
   87      8.75447    0.00000
   88      8.82794    0.00000
   89      9.06314    0.00000
   90      9.13515    0.00000
   91      9.19124    0.00000
   92      9.27158    0.00000
   93      9.54607    0.00000
   94      9.68704    0.00000
   95      9.82056    0.00000
   96      9.86067    0.00000
   97      9.97860    0.00000


Forces in eV/Ang:
  0 C    -3.15318   -0.33017   -2.39240
  1 C    -1.25160    1.27005    0.27550
  2 C    -3.48621    0.81526   -0.40346
  3 C    -4.30864    1.73455   -1.01254
  4 C     0.88404   -2.32958    0.23983
  5 C     0.84222    4.98678    0.93694
  6 C    -0.31632   -2.51294   -0.40024
  7 C     0.92051    1.91442   -0.08355
  8 C    -3.49596   -1.08380   -0.31160
  9 C    -0.76104    0.69691   -0.02992
 10 C     0.72283    2.44513    0.31000
 11 C     0.30402   -0.94130    0.14921
 12 C     1.50085   -6.06524    2.56394
 13 C     0.87213    1.53251    0.03894
 14 C     6.37527   -3.90826    2.32223
 15 C     0.10178   -0.14678   -0.44677
 16 C     3.26860   -1.55910    0.95052
 17 C     2.91785   -3.09085   -0.04806
 18 C     0.22414   -0.22297   -0.14851
 19 C     0.62123   -1.21390   -0.38491
 20 C     0.29291    0.30519    0.17872
 21 C     3.02686    3.52611   -0.13688
 22 C    -2.49764   -1.51130   -0.79741
 23 C    -3.64422    5.68280   -1.33403

System changes: positions 

Initializing position-dependent things.

Density initialized from wave functions
           .--------------------------------------.  
          /|                                      |  
         / |                                      |  
        /  |                                      |  
       /   |                                      |  
      /    |                                      |  
     /     |                                      |  
    /      |                                      |  
   /       |      C  C                            |  
  /        |     C     C  CC  C                   |  
 *         |                   C                  |  
 |         |    CC   C      C    C                |  
 |         .-C-C--------C-----C-------------------.  
 |        /     C  C  CC  C  C                   /   
 |       /                                      /    
 |      /                                      /     
 |     /                                      /      
 |    /                                      /       
 |   /                                      /        
 |  /                                      /         
 | /                                      /          
 |/                                      /           
 *--------------------------------------*            

Positions:
   0 C      7.531398    9.926233    6.066963
   1 C     10.720043    5.239247    5.651086
   2 C      9.786647    8.592683    6.203633
   3 C      9.544862    6.180807    5.746181
   4 C     10.386679    7.396900    6.008218
   5 C      8.427239    8.843707    6.026930
   6 C      3.286629    6.312262    5.435267
   7 C     11.459676    6.425308    5.934896
   8 C     10.679902    3.898365    5.295391
   9 C      5.184293   11.330623    5.594498
  10 C      6.584428    6.964723    5.127254
  11 C      3.613710    9.307217    4.608405
  12 C      4.603514    5.687702    4.555098
  13 C      7.182062    4.933610    5.176247
  14 C      6.343459   10.683080    5.651520
  15 C      7.947434    3.765779    5.193226
  16 C      7.898328    6.251460    5.330225
  17 C      9.255401    3.892786    5.237323
  18 C      3.906643   11.833689    5.423172
  19 C      5.932841    5.627694    4.935837
  20 C      3.663626   10.547577    4.961643
  21 C      4.473310    8.210547    4.651100
  22 C      5.948296    8.191809    5.030803
  23 C      4.039601    6.893484    4.406813

Unit cell:
           periodic     x           y           z      points  spacing
  1. axis:    yes   16.000000    0.000000    0.000000    80     0.2000
  2. axis:    yes    0.000000   16.000000    0.000000    80     0.2000
  3. axis:    yes    0.000000    0.000000   10.000000    48     0.2083

Effective grid spacing dv^(1/3) = 0.2027

                     log10-error:    total        iterations:
           time      wfs    density  energy       fermi  poisson
iter:   1  09:19:17          +inf  -173.194470    3      5      
iter:   2  09:19:17         -1.70  -172.993812    3      2      
iter:   3  09:19:18         -1.89  -172.906816    3      2      
iter:   4  09:19:18         -2.06  -172.866751    3      2      
iter:   5  09:19:19         -2.27  -172.863757    2      2      
iter:   6  09:19:19         -2.45  -172.860385    3      1      
iter:   7  09:19:20         -2.54  -172.856453    2      2      
iter:   8  09:19:20         -2.76  -172.861640    2      2      
iter:   9  09:19:21         -2.69  -172.856375    3      2      
iter:  10  09:19:21         -3.12  -172.856698    2      1      
iter:  11  09:19:22         -3.24  -172.856497    2      1      
iter:  12  09:19:22         -3.51  -172.856370    2      1      
iter:  13  09:19:23         -3.57  -172.856529    2      1      
iter:  14  09:19:23         -3.67  -172.856340    2      1      
iter:  15  09:19:24         -3.91  -172.856303    2      1      
iter:  16  09:19:24         -4.09  -172.856470    2      1      

Converged after 16 iterations.

Dipole moment: (0.294086, 0.303571, -0.137801) |e|*Ang

Energy contributions relative to reference atoms: (reference = -24663.074771)

Kinetic:        +86.565326
Potential:      -97.781552
External:        +0.000000
XC:            -164.360933
Entropy (-ST):   -0.283414
Local:           +2.862395
--------------------------
Free energy:   -172.998177
Extrapolated:  -172.856470

Fermi level: -4.81112

 Band  Eigenvalues  Occupancy
    0    -23.41084    2.00000
    1    -23.22014    2.00000
    2    -22.17931    2.00000
    3    -21.91755    2.00000
    4    -20.69972    2.00000
    5    -20.00790    2.00000
    6    -19.94565    2.00000
    7    -19.37800    2.00000
    8    -18.75648    2.00000
    9    -18.10029    2.00000
   10    -17.56954    2.00000
   11    -17.40550    2.00000
   12    -16.62136    2.00000
   13    -15.65308    2.00000
   14    -15.40858    2.00000
   15    -14.84270    2.00000
   16    -13.73923    2.00000
   17    -13.35896    2.00000
   18    -13.24324    2.00000
   19    -12.75456    2.00000
   20    -12.10044    2.00000
   21    -11.92060    2.00000
   22    -11.40525    2.00000
   23    -11.22412    2.00000
   24    -11.05543    2.00000
   25    -10.48214    2.00000
   26    -10.24835    2.00000
   27    -10.10463    2.00000
   28     -9.78513    2.00000
   29     -9.63439    2.00000
   30     -9.55960    2.00000
   31     -9.25123    2.00000
   32     -8.64746    2.00000
   33     -8.58550    2.00000
   34     -8.43944    2.00000
   35     -8.01794    2.00000
   36     -7.75865    2.00000
   37     -7.33673    2.00000
   38     -7.21591    2.00000
   39     -6.77273    2.00000
   40     -6.42340    2.00000
   41     -6.07370    1.99999
   42     -5.80957    1.99991
   43     -5.62671    1.99943
   44     -5.52573    1.99843
   45     -5.35129    1.99102
   46     -5.13036    1.92109
   47     -4.91156    1.46385
   48     -4.73199    0.62380
   49     -4.07814    0.00131
   50     -4.05948    0.00109
   51     -3.80758    0.00009
   52     -3.16315    0.00000
   53     -2.67265    0.00000
   54     -2.37493    0.00000
   55     -1.88057    0.00000
   56     -1.74365    0.00000
   57     -1.36073    0.00000
   58     -1.04944    0.00000
   59     -0.82895    0.00000
   60      0.13064    0.00000
   61      0.48493    0.00000
   62      0.69341    0.00000
   63      1.66569    0.00000
   64      1.74307    0.00000
   65      2.03861    0.00000
   66      2.17232    0.00000
   67      2.61939    0.00000
   68      3.12786    0.00000
   69      3.30570    0.00000
   70      3.55879    0.00000
   71      3.90116    0.00000
   72      4.50493    0.00000
   73      4.54874    0.00000
   74      5.07094    0.00000
   75      5.62904    0.00000
   76      6.07607    0.00000
   77      6.35735    0.00000
   78      6.52278    0.00000
   79      6.61532    0.00000
   80      7.26161    0.00000
   81      7.61090    0.00000
   82      7.94125    0.00000
   83      8.22550    0.00000
   84      8.29956    0.00000
   85      8.48846    0.00000
   86      8.64555    0.00000
   87      8.74901    0.00000
   88      8.83971    0.00000
   89      9.10576    0.00000
   90      9.15803    0.00000
   91      9.19687    0.00000
   92      9.34629    0.00000
   93      9.51582    0.00000
   94      9.67914    0.00000
   95      9.79035    0.00000
   96      9.84733    0.00000
   97      9.97820    0.00000


Forces in eV/Ang:
  0 C    -2.93293   -0.11803   -2.16211
  1 C    -1.49491    0.96991    0.12809
  2 C    -2.86862   -0.04083   -0.53766
  3 C    -4.23416    1.41537   -1.09066
  4 C     0.24112   -1.19477    0.36630
  5 C     0.94438    4.50026    0.89154
  6 C     0.10546   -2.21460   -0.89789
  7 C     1.04424    1.67782   -0.08826
  8 C    -2.66618   -0.47083   -0.08190
  9 C     0.86728   -0.39948    0.03476
 10 C     0.89153    1.81993    0.26408
 11 C     0.18203    0.09388    0.26931
 12 C    -0.48737   -2.15119    2.04919
 13 C     1.30319    1.11065    0.01376
 14 C     3.97346   -2.56034    1.98696
 15 C     0.60642   -0.06873   -0.43664
 16 C     3.07064   -1.19337    0.98308
 17 C     1.36954   -2.89308   -0.08910
 18 C     0.43033    0.00664   -0.01458
 19 C     0.62003   -0.73046   -0.28443
 20 C     0.41202   -0.31188    0.02467
 21 C     2.78542    2.73443   -0.19576
 22 C    -2.09106   -1.30171   -0.66805
 23 C    -2.08366    1.41668   -0.44312

System changes: positions 

Initializing position-dependent things.

Density initialized from wave functions
           .--------------------------------------.  
          /|                                      |  
         / |                                      |  
        /  |                                      |  
       /   |                                      |  
      /    |                                      |  
     /     |                                      |  
    /      |                                      |  
   /       |      C  C                            |  
  /        |     C     C C C  C                   |  
 *         |                   C                  |  
 |         |    CC   C      C    C                |  
 |         .-C-C--------C-----C-------------------.  
 |        /     C  C  CC  C  C                   /   
 |       /                                      /    
 |      /                                      /     
 |     /                                      /      
 |    /                                      /       
 |   /                                      /        
 |  /                                      /         
 | /                                      /          
 |/                                      /           
 *--------------------------------------*            

Positions:
   0 C      7.506220    9.925634    6.048541
   1 C     10.706486    5.247110    5.651905
   2 C      9.762840    8.590583    6.198662
   3 C      9.508018    6.192523    5.736493
   4 C     10.387477    7.388771    6.011676
   5 C      8.435698    8.882037    6.034627
   6 C      3.288409    6.293519    5.426409
   7 C     11.469052    6.439486    5.934115
   8 C     10.658296    3.895499    5.295143
   9 C      5.195186   11.324901    5.594933
  10 C      6.592561    6.979352    5.129468
  11 C      3.615052    9.310145    4.611002
  12 C      4.595208    5.676875    4.571955
  13 C      7.194326    4.942456    5.176316
  14 C      6.373287   10.663454    5.668198
  15 C      7.953760    3.765337    5.189432
  16 C      7.924754    6.241777    5.338881
  17 C      9.264216    3.867910    5.236461
  18 C      3.910822   11.834214    5.423317
  19 C      5.938256    5.622296    4.933556
  20 C      3.667468   10.543595    4.961545
  21 C      4.497156    8.232827    4.649270
  22 C      5.930853    8.180862    5.025230
  23 C      4.024572    6.897176    4.404755

Unit cell:
           periodic     x           y           z      points  spacing
  1. axis:    yes   16.000000    0.000000    0.000000    80     0.2000
  2. axis:    yes    0.000000   16.000000    0.000000    80     0.2000
  3. axis:    yes    0.000000    0.000000   10.000000    48     0.2083

Effective grid spacing dv^(1/3) = 0.2027

                     log10-error:    total        iterations:
           time      wfs    density  energy       fermi  poisson
iter:   1  09:19:26          +inf  -174.702870    3      5      
iter:   2  09:19:27         -1.62  -174.367863    3      2      
iter:   3  09:19:27         -1.84  -174.280076    3      2      
iter:   4  09:19:28         -1.99  -174.215449    3      2      
iter:   5  09:19:28         -2.28  -174.212769    2      2      
iter:   6  09:19:29         -2.42  -174.209218    2      2      
iter:   7  09:19:29         -2.55  -174.206811    3      2      
iter:   8  09:19:30         -2.73  -174.206905    2      2      
iter:   9  09:19:30         -2.85  -174.206274    2      2      
iter:  10  09:19:31         -3.13  -174.206315    2      1      
iter:  11  09:19:31         -3.25  -174.206414    2      1      
iter:  12  09:19:32         -3.38  -174.205861    2      1      
iter:  13  09:19:32         -3.62  -174.206699    2      1      
iter:  14  09:19:33         -3.71  -174.207439    2      1      
iter:  15  09:19:33         -3.82  -174.207472    2      1      
iter:  16  09:19:34         -4.00  -174.207257    2      1      
iter:  17  09:19:34         -4.17  -174.206990    2      1      

Converged after 17 iterations.

Dipole moment: (0.251336, 0.371273, -0.138015) |e|*Ang

Energy contributions relative to reference atoms: (reference = -24663.074771)

Kinetic:        +83.879257
Potential:      -96.213840
External:        +0.000000
XC:            -164.632897
Entropy (-ST):   -0.253751
Local:           +2.887366
--------------------------
Free energy:   -174.333865
Extrapolated:  -174.206990

Fermi level: -4.76428

 Band  Eigenvalues  Occupancy
    0    -23.29570    2.00000
    1    -22.97151    2.00000
    2    -22.07415    2.00000
    3    -21.89440    2.00000
    4    -20.70242    2.00000
    5    -20.10420    2.00000
    6    -20.04300    2.00000
    7    -19.41571    2.00000
    8    -18.78837    2.00000
    9    -18.16652    2.00000
   10    -17.52450    2.00000
   11    -17.39246    2.00000
   12    -16.63530    2.00000
   13    -15.76961    2.00000
   14    -15.57110    2.00000
   15    -14.85154    2.00000
   16    -13.80334    2.00000
   17    -13.29447    2.00000
   18    -13.19969    2.00000
   19    -12.93766    2.00000
   20    -12.22570    2.00000
   21    -11.81671    2.00000
   22    -11.40755    2.00000
   23    -11.18875    2.00000
   24    -10.93596    2.00000
   25    -10.39667    2.00000
   26    -10.19142    2.00000
   27    -10.09703    2.00000
   28     -9.70271    2.00000
   29     -9.66602    2.00000
   30     -9.60635    2.00000
   31     -9.33695    2.00000
   32     -8.71426    2.00000
   33     -8.60320    2.00000
   34     -8.50024    2.00000
   35     -8.08208    2.00000
   36     -7.82683    2.00000
   37     -7.38476    2.00000
   38     -7.22584    2.00000
   39     -6.89277    2.00000
   40     -6.43920    2.00000
   41     -6.01202    1.99999
   42     -5.81193    1.99994
   43     -5.66983    1.99977
   44     -5.56970    1.99936
   45     -5.29636    1.99027
   46     -5.15666    1.96123
   47     -4.87986    1.52113
   48     -4.66112    0.52552
   49     -4.06153    0.00177
   50     -3.99228    0.00089
   51     -3.78398    0.00011
   52     -3.13595    0.00000
   53     -2.56364    0.00000
   54     -2.33880    0.00000
   55     -1.87369    0.00000
   56     -1.65704    0.00000
   57     -1.34022    0.00000
   58     -1.04054    0.00000
   59     -0.65107    0.00000
   60      0.17317    0.00000
   61      0.54197    0.00000
   62      0.90761    0.00000
   63      1.84243    0.00000
   64      1.86208    0.00000
   65      2.17337    0.00000
   66      2.34116    0.00000
   67      2.63388    0.00000
   68      3.18962    0.00000
   69      3.31655    0.00000
   70      3.51948    0.00000
   71      3.89057    0.00000
   72      4.49521    0.00000
   73      4.78241    0.00000
   74      5.14199    0.00000
   75      5.52520    0.00000
   76      6.03537    0.00000
   77      6.35918    0.00000
   78      6.54562    0.00000
   79      6.72039    0.00000
   80      7.17972    0.00000
   81      7.57405    0.00000
   82      7.97632    0.00000
   83      8.18188    0.00000
   84      8.29718    0.00000
   85      8.47396    0.00000
   86      8.59505    0.00000
   87      8.73776    0.00000
   88      8.84099    0.00000
   89      9.08710    0.00000
   90      9.16046    0.00000
   91      9.22517    0.00000
   92      9.38045    0.00000
   93      9.44932    0.00000
   94      9.67284    0.00000
   95      9.79339    0.00000
   96      9.85857    0.00000
   97     10.00701    0.00000


Forces in eV/Ang:
  0 C    -1.98473   -0.30932   -1.73249
  1 C    -1.59321    1.00138    0.05607
  2 C    -2.32244   -0.40529   -0.55802
  3 C    -3.89856    1.19094   -1.13348
  4 C    -0.26460   -0.75114    0.34003
  5 C     0.78924    3.96368    0.79090
  6 C     0.06363   -2.14806   -0.79311
  7 C     0.85882    1.19529   -0.09208
  8 C    -1.71676    0.07158    0.12464
  9 C     0.90104   -0.62068   -0.03817
 10 C     0.96663    0.89964    0.20891
 11 C     0.25009   -0.08648    0.14141
 12 C    -0.37922   -1.29045    2.01370
 13 C     1.35765    0.68430   -0.10382
 14 C     2.12597   -1.39601    1.58654
 15 C     0.45756   -0.01250   -0.43944
 16 C     2.83431   -0.72745    1.03073
 17 C     0.37351   -2.60217   -0.10326
 18 C     1.03581   -0.19680    0.09620
 19 C     0.47171   -0.29930   -0.23743
 20 C     0.53421    0.19309    0.18688
 21 C     1.90294    1.38220   -0.41800
 22 C    -1.51021   -1.00265   -0.54880
 23 C    -1.26981    1.37984   -0.30686

System changes: positions 

Initializing position-dependent things.

Density initialized from wave functions
           .--------------------------------------.  
          /|                                      |  
         / |                                      |  
        /  |                                      |  
       /   |                                      |  
      /    |                                      |  
     /     |                                      |  
    /      |                                      |  
   /       |      C  C                            |  
  /        |     C     C C C  C                   |  
 *         |                   C                  |  
 |         |    CC   C      C    C                |  
 |         .-C-C--------C-----C-------------------.  
 |        /     C  C  CC  C  C                   /   
 |       /                                      /    
 |      /                                      /     
 |     /                                      /      
 |    /                                      /       
 |   /                                      /        
 |  /                                      /         
 | /                                      /          
 |/                                      /           
 *--------------------------------------*            

Positions:
   0 C      7.488824    9.922539    6.032759
   1 C     10.690802    5.256532    5.652204
   2 C      9.741902    8.585375    6.193148
   3 C      9.471125    6.203346    5.725459
   4 C     10.383581    7.383224    6.015012
   5 C      8.443130    8.918885    6.042034
   6 C      3.289317    6.273225    5.418521
   7 C     11.477123    6.450013    5.933219
   8 C     10.644002    3.897572    5.296866
   9 C      5.205300   11.317642    5.594506
  10 C      6.602120    6.986010    5.131350
  11 C      3.617460    9.309916    4.612263
  12 C      4.590027    5.669186    4.590820
  13 C      7.207837    4.947999    5.175110
  14 C      6.388746   10.653029    5.682533
  15 C      7.958357    3.765373    5.185210
  16 C      7.951465    6.235833    5.348896
  17 C      9.264903    3.843518    5.235411
  18 C      3.921917   11.832197    5.424533
  19 C      5.942557    5.620514    4.931434
  20 C      3.672900   10.545722    4.963467
  21 C      4.513851    8.243299    4.644848
  22 C      5.917599    8.171873    5.020252
  23 C      4.014988    6.906727    4.402785

Unit cell:
           periodic     x           y           z      points  spacing
  1. axis:    yes   16.000000    0.000000    0.000000    80     0.2000
  2. axis:    yes    0.000000   16.000000    0.000000    80     0.2000
  3. axis:    yes    0.000000    0.000000   10.000000    48     0.2083

Effective grid spacing dv^(1/3) = 0.2027

                     log10-error:    total        iterations:
           time      wfs    density  energy       fermi  poisson
iter:   1  09:19:36          +inf  -175.489520    2      5      
iter:   2  09:19:36         -1.70  -175.259475    3      2      
iter:   3  09:19:37         -1.93  -175.204914    2      2      
iter:   4  09:19:37         -2.08  -175.157115    2      2      
iter:   5  09:19:38         -2.38  -175.156147    2      2      
iter:   6  09:19:38         -2.53  -175.153516    2      2      
iter:   7  09:19:39         -2.66  -175.152338    2      2      
iter:   8  09:19:39         -2.83  -175.147413    2      1      
iter:   9  09:19:40         -2.94  -175.151769    2      2      
iter:  10  09:19:40         -3.23  -175.152263    2      1      
iter:  11  09:19:41         -3.39  -175.151198    2      1      
iter:  12  09:19:41         -3.54  -175.152995    2      1      
iter:  13  09:19:42         -3.69  -175.153355    2      1      
iter:  14  09:19:42         -3.74  -175.153001    2      1      
iter:  15  09:19:43         -3.83  -175.152921    2      1      
iter:  16  09:19:43         -4.02  -175.152802    2      1      

Converged after 16 iterations.

Dipole moment: (0.211075, 0.403071, -0.136945) |e|*Ang

Energy contributions relative to reference atoms: (reference = -24663.074771)

Kinetic:        +83.881688
Potential:      -96.538932
External:        +0.000000
XC:            -165.275611
Entropy (-ST):   -0.238209
Local:           +2.899158
--------------------------
Free energy:   -175.271907
Extrapolated:  -175.152802

Fermi level: -4.73610

 Band  Eigenvalues  Occupancy
    0    -23.21770    2.00000
    1    -22.76536    2.00000
    2    -22.00833    2.00000
    3    -21.89106    2.00000
    4    -20.70806    2.00000
    5    -20.17887    2.00000
    6    -20.12901    2.00000
    7    -19.44632    2.00000
    8    -18.81185    2.00000
    9    -18.18787    2.00000
   10    -17.52464    2.00000
   11    -17.45088    2.00000
   12    -16.65691    2.00000
   13    -15.90413    2.00000
   14    -15.67520    2.00000
   15    -14.86638    2.00000
   16    -13.88809    2.00000
   17    -13.23972    2.00000
   18    -13.18106    2.00000
   19    -13.09074    2.00000
   20    -12.31765    2.00000
   21    -11.73078    2.00000
   22    -11.40950    2.00000
   23    -11.18100    2.00000
   24    -10.84453    2.00000
   25    -10.34103    2.00000
   26    -10.15548    2.00000
   27    -10.06349    2.00000
   28     -9.75464    2.00000
   29     -9.67009    2.00000
   30     -9.56744    2.00000
   31     -9.35888    2.00000
   32     -8.77606    2.00000
   33     -8.63660    2.00000
   34     -8.53953    2.00000
   35     -8.12109    2.00000
   36     -7.88680    2.00000
   37     -7.41250    2.00000
   38     -7.23396    2.00000
   39     -7.00472    2.00000
   40     -6.45786    2.00000
   41     -6.01153    1.99999
   42     -5.79606    1.99995
   43     -5.68167    1.99984
   44     -5.57658    1.99955
   45     -5.26180    1.98963
   46     -5.17780    1.97615
   47     -4.86143    1.55573
   48     -4.61978    0.47619
   49     -4.04967    0.00209
   50     -3.94749    0.00075
   51     -3.76596    0.00012
   52     -3.09174    0.00000
   53     -2.44952    0.00000
   54     -2.26897    0.00000
   55     -1.86095    0.00000
   56     -1.60205    0.00000
   57     -1.36061    0.00000
   58     -1.02938    0.00000
   59     -0.50008    0.00000
   60      0.22700    0.00000
   61      0.56963    0.00000
   62      1.02229    0.00000
   63      1.98487    0.00000
   64      2.04170    0.00000
   65      2.26432    0.00000
   66      2.49390    0.00000
   67      2.66720    0.00000
   68      3.25062    0.00000
   69      3.34506    0.00000
   70      3.51821    0.00000
   71      3.88303    0.00000
   72      4.47095    0.00000
   73      5.05015    0.00000
   74      5.24715    0.00000
   75      5.54321    0.00000
   76      6.05985    0.00000
   77      6.41552    0.00000
   78      6.60334    0.00000
   79      6.75171    0.00000
   80      7.11430    0.00000
   81      7.55984    0.00000
   82      7.89571    0.00000
   83      8.18126    0.00000
   84      8.33548    0.00000
   85      8.48780    0.00000
   86      8.55147    0.00000
   87      8.73782    0.00000
   88      8.85516    0.00000
   89      9.04019    0.00000
   90      9.16176    0.00000
   91      9.24773    0.00000
   92      9.40873    0.00000
   93      9.46682    0.00000
   94      9.67447    0.00000
   95      9.81350    0.00000
   96      9.86177    0.00000
   97     10.04002    0.00000


Forces in eV/Ang:
  0 C    -1.24862   -0.47962   -1.35103
  1 C    -1.57987    1.05225   -0.00766
  2 C    -1.85360   -0.54826   -0.51970
  3 C    -3.20989    1.09076   -1.03627
  4 C    -0.54466   -0.64378    0.25744
  5 C     0.67141    3.43955    0.69688
  6 C     0.16204   -2.03172   -0.87355
  7 C     0.56240    0.86878   -0.10829
  8 C    -1.24765    0.39937    0.24760
  9 C     0.80389   -0.62506   -0.05125
 10 C     0.89070    0.47806    0.14368
 11 C     0.26563    0.23903    0.15208
 12 C    -0.53880   -0.49441    1.85450
 13 C     1.15783    0.49787   -0.17924
 14 C     1.00222   -0.63998    1.21042
 15 C     0.13753   -0.05233   -0.45780
 16 C     2.30955   -0.51442    0.94282
 17 C     0.18024   -2.31195   -0.09030
 18 C     1.22546   -0.08925    0.20344
 19 C     0.64274   -0.07419   -0.14191
 20 C     0.58078   -0.13583    0.09800
 21 C     1.16531    0.90241   -0.54474
 22 C    -0.72923   -0.95510   -0.34947
 23 C    -0.78183    0.67414   -0.07499

System changes: positions 

Initializing position-dependent things.

Density initialized from wave functions
           .--------------------------------------.  
          /|                                      |  
         / |                                      |  
        /  |                                      |  
       /   |                                      |  
      /    |                                      |  
     /     |                                      |  
    /      |                                      |  
   /       |      C  C                            |  
  /        |     C     C C C  C                   |  
 *         |                   C                  |  
 |         |    CC   C      C    C                |  
 |         .-C-C--------C-----C-------------------.  
 |        /     C  C  CC  C  C                   /   
 |       /                                      /    
 |      /                                      /     
 |     /                                      /      
 |    /                                      /       
 |   /                                      /        
 |  /                                      /         
 | /                                      /          
 |/                                      /           
 *--------------------------------------*            

Positions:
   0 C      7.476355    9.916472    6.018102
   1 C     10.672584    5.268916    5.651980
   2 C      9.721572    8.578799    6.187253
   3 C      9.435695    6.215744    5.713704
   4 C     10.376623    7.375874    6.017755
   5 C      8.450546    8.957406    6.049856
   6 C      3.291304    6.249934    5.408383
   7 C     11.482841    6.459205    5.931928
   8 C     10.630756    3.902980    5.300027
   9 C      5.213965   11.310611    5.593843
  10 C      6.612227    6.990420    5.132853
  11 C      3.620623    9.313131    4.613978
  12 C      4.583958    5.664611    4.612025
  13 C      7.220669    4.953296    5.172827
  14 C      6.397728   10.647427    5.695612
  15 C      7.959015    3.764670    5.179866
  16 C      7.976927    6.230435    5.359605
  17 C      9.266620    3.817491    5.234403
  18 C      3.936682   11.831297    5.427141
  19 C      5.950353    5.620198    4.930007
  20 C      3.679739   10.543686    4.964480
  21 C      4.525379    8.252391    4.638191
  22 C      5.911084    8.160972    5.016684
  23 C      4.006948    6.913941    4.402279

Unit cell:
           periodic     x           y           z      points  spacing
  1. axis:    yes   16.000000    0.000000    0.000000    80     0.2000
  2. axis:    yes    0.000000   16.000000    0.000000    80     0.2000
  3. axis:    yes    0.000000    0.000000   10.000000    48     0.2083

Effective grid spacing dv^(1/3) = 0.2027

                     log10-error:    total        iterations:
           time      wfs    density  energy       fermi  poisson
iter:   1  09:19:45          +inf  -176.144932    3      5      
iter:   2  09:19:45         -1.78  -175.985964    3      2      
iter:   3  09:19:46         -2.01  -175.948895    2      2      
iter:   4  09:19:46         -2.14  -175.910334    3      2      
iter:   5  09:19:47         -2.43  -175.909645    2      2      
iter:   6  09:19:47         -2.57  -175.901236    2      1      
iter:   7  09:19:48         -2.69  -175.906185    2      2      
iter:   8  09:19:49         -2.87  -175.903510    2      1      
iter:   9  09:19:49         -2.96  -175.906452    2      2      
iter:  10  09:19:50         -3.21  -175.906333    2      1      
iter:  11  09:19:50         -3.36  -175.905654    2      1      
iter:  12  09:19:51         -3.52  -175.906054    2      1      
iter:  13  09:19:51         -3.70  -175.907538    2      1      
iter:  14  09:19:51         -3.78  -175.908454    2      1      
iter:  15  09:19:52         -3.95  -175.907668    2      1      
iter:  16  09:19:52         -4.05  -175.907821    2      1      

Converged after 16 iterations.

Dipole moment: (0.176877, 0.406896, -0.140899) |e|*Ang

Energy contributions relative to reference atoms: (reference = -24663.074771)

Kinetic:        +86.034707
Potential:      -98.447613
External:        +0.000000
XC:            -166.292233
Entropy (-ST):   -0.230412
Local:           +2.912524
--------------------------
Free energy:   -176.023027
Extrapolated:  -175.907821

Fermi level: -4.71927

 Band  Eigenvalues  Occupancy
    0    -23.18124    2.00000
    1    -22.63482    2.00000
    2    -21.99800    2.00000
    3    -21.85802    2.00000
    4    -20.72882    2.00000
    5    -20.25222    2.00000
    6    -20.18879    2.00000
    7    -19.46491    2.00000
    8    -18.83021    2.00000
    9    -18.21704    2.00000
   10    -17.57198    2.00000
   11    -17.52378    2.00000
   12    -16.70690    2.00000
   13    -16.01688    2.00000
   14    -15.74371    2.00000
   15    -14.88147    2.00000
   16    -13.99321    2.00000
   17    -13.20688    2.00000
   18    -13.20069    2.00000
   19    -13.17796    2.00000
   20    -12.39463    2.00000
   21    -11.66651    2.00000
   22    -11.40290    2.00000
   23    -11.18570    2.00000
   24    -10.78976    2.00000
   25    -10.31311    2.00000
   26    -10.14283    2.00000
   27    -10.02623    2.00000
   28     -9.80758    2.00000
   29     -9.71263    2.00000
   30     -9.49576    2.00000
   31     -9.32058    2.00000
   32     -8.83219    2.00000
   33     -8.67751    2.00000
   34     -8.57015    2.00000
   35     -8.17623    2.00000
   36     -7.93665    2.00000
   37     -7.42781    2.00000
   38     -7.24177    2.00000
   39     -7.12268    2.00000
   40     -6.48449    2.00000
   41     -6.04809    2.00000
   42     -5.77217    1.99995
   43     -5.69195    1.99988
   44     -5.59021    1.99967
   45     -5.23593    1.98866
   46     -5.17403    1.97904
   47     -4.85227    1.58169
   48     -4.59513    0.44841
   49     -4.02702    0.00197
   50     -3.91166    0.00062
   51     -3.74946    0.00012
   52     -3.03164    0.00000
   53     -2.32163    0.00000
   54     -2.17161    0.00000
   55     -1.85032    0.00000
   56     -1.54819    0.00000
   57     -1.38887    0.00000
   58     -1.03373    0.00000
   59     -0.33853    0.00000
   60      0.28547    0.00000
   61      0.60002    0.00000
   62      1.04744    0.00000
   63      2.14176    0.00000
   64      2.24502    0.00000
   65      2.35248    0.00000
   66      2.61139    0.00000
   67      2.74818    0.00000
   68      3.33703    0.00000
   69      3.37197    0.00000
   70      3.59347    0.00000
   71      3.89539    0.00000
   72      4.47133    0.00000
   73      5.24694    0.00000
   74      5.37656    0.00000
   75      5.62588    0.00000
   76      6.17951    0.00000
   77      6.47245    0.00000
   78      6.67955    0.00000
   79      6.79364    0.00000
   80      7.05803    0.00000
   81      7.57124    0.00000
   82      7.80450    0.00000
   83      8.14165    0.00000
   84      8.35732    0.00000
   85      8.50674    0.00000
   86      8.52758    0.00000
   87      8.72270    0.00000
   88      8.87729    0.00000
   89      9.00227    0.00000
   90      9.15953    0.00000
   91      9.25501    0.00000
   92      9.44073    0.00000
   93      9.53617    0.00000
   94      9.67515    0.00000
   95      9.82377    0.00000
   96      9.86826    0.00000
   97     10.07631    0.00000


Forces in eV/Ang:
  0 C    -0.89579   -0.40927   -1.05980
  1 C    -1.41331    0.99044   -0.07221
  2 C    -1.38952   -0.65521   -0.45996
  3 C    -2.25014    0.94729   -0.84132
  4 C    -0.77329   -0.38676    0.17824
  5 C     0.73140    2.83164    0.59393
  6 C     0.18591   -1.93530   -0.84258
  7 C     0.28661    0.58743   -0.08938
  8 C    -0.84156    0.65733    0.33247
  9 C     0.76812   -0.57876   -0.01925
 10 C     0.81403    0.07145    0.10113
 11 C     0.30110    0.04114    0.02719
 12 C    -0.43940    0.00551    1.72049
 13 C     1.01960    0.25778   -0.21790
 14 C     0.29892   -0.12267    0.91862
 15 C     0.13157   -0.11952   -0.47828
 16 C     1.45956   -0.32008    0.75946
 17 C    -0.25979   -2.03795   -0.09765
 18 C     1.18568   -0.14702    0.18165
 19 C     0.56283    0.12443   -0.08999
 20 C     0.57466    0.23500    0.19474
 21 C     0.62472    0.43937   -0.59427
 22 C    -0.26949   -0.74151   -0.23933
 23 C    -0.36572    0.31931    0.06549

System changes: positions 

Initializing position-dependent things.

Density initialized from wave functions
           .--------------------------------------.  
          /|                                      |  
         / |                                      |  
        /  |                                      |  
       /   |                                      |  
      /    |                                      |  
     /     |                                      |  
    /      |                                      |  
   /       |      C  C C                          |  
  /        |     C       C C  C                   |  
 *         |                   C                  |  
 |         |    CC  C C     C    C                |  
 |         .-C-C--------C-----C-------------------.  
 |        /     C  C  CC  C  C                   /   
 |       /                                      /    
 |      /                                      /     
 |     /                                      /      
 |    /                                      /       
 |   /                                      /        
 |  /                                      /         
 | /                                      /          
 |/                                      /           
 *--------------------------------------*            

Positions:
   0 C      7.464454    9.910797    6.003948
   1 C     10.653932    5.282534    5.651044
   2 C      9.702819    8.570677    6.181265
   3 C      9.406708    6.228759    5.702741
   4 C     10.366566    7.369704    6.019906
   5 C      8.460418    8.995345    6.057802
   6 C      3.293662    6.223683    5.397219
   7 C     11.486140    6.467099    5.930725
   8 C     10.618814    3.911548    5.304389
   9 C      5.222849   11.303915    5.593613
  10 C      6.622864    6.991805    5.134185
  11 C      3.624790    9.313218    4.614253
  12 C      4.579429    5.662213    4.635424
  13 C      7.233677    4.957044    5.169874
  14 C      6.403313   10.645066    5.707920
  15 C      7.960118    3.762820    5.173344
  16 C      7.995539    6.225839    5.369516
  17 C      9.264593    3.790122    5.233136
  18 C      3.952197   11.829384    5.429499
  19 C      5.958240    5.621574    4.928836
  20 C      3.687358   10.546868    4.967078
  21 C      4.533375    8.259159    4.630193
  22 C      5.908012    8.150768    5.013590
  23 C      4.001011    6.920520    4.402748

Unit cell:
           periodic     x           y           z      points  spacing
  1. axis:    yes   16.000000    0.000000    0.000000    80     0.2000
  2. axis:    yes    0.000000   16.000000    0.000000    80     0.2000
  3. axis:    yes    0.000000    0.000000   10.000000    48     0.2083

Effective grid spacing dv^(1/3) = 0.2027

                     log10-error:    total        iterations:
           time      wfs    density  energy       fermi  poisson
iter:   1  09:19:54          +inf  -176.635345    3      5      
iter:   2  09:19:55         -1.87  -176.537102    3      2      
iter:   3  09:19:55         -2.07  -176.510139    2      2      
iter:   4  09:19:56         -2.20  -176.482596    3      2      
iter:   5  09:19:56         -2.47  -176.480868    2      2      
iter:   6  09:19:57         -2.62  -176.479186    3      2      
iter:   7  09:19:57         -2.72  -176.479571    2      2      
iter:   8  09:19:58         -2.89  -176.474386    2      1      
iter:   9  09:19:58         -3.01  -176.479086    2      2      
iter:  10  09:19:59         -3.29  -176.479231    2      1      
iter:  11  09:19:59         -3.42  -176.477333    2      1      
iter:  12  09:20:00         -3.62  -176.480550    2      1      
iter:  13  09:20:00         -3.70  -176.481607    2      1      
iter:  14  09:20:01         -3.83  -176.479681    2      1      
iter:  15  09:20:01         -3.91  -176.480201    2      1      
iter:  16  09:20:02         -3.96  -176.480935    2      1      
iter:  17  09:20:02         -4.18  -176.480596    2      1      

Converged after 17 iterations.

Dipole moment: (0.147993, 0.394333, -0.144160) |e|*Ang

Energy contributions relative to reference atoms: (reference = -24663.074771)

Kinetic:        +89.314060
Potential:     -101.133849
External:        +0.000000
XC:            -167.476658
Entropy (-ST):   -0.227569
Local:           +2.929636
--------------------------
Free energy:   -176.594381
Extrapolated:  -176.480596

Fermi level: -4.70525

 Band  Eigenvalues  Occupancy
    0    -23.16566    2.00000
    1    -22.56827    2.00000
    2    -22.03202    2.00000
    3    -21.83159    2.00000
    4    -20.75210    2.00000
    5    -20.31083    2.00000
    6    -20.22625    2.00000
    7    -19.48657    2.00000
    8    -18.84851    2.00000
    9    -18.22137    2.00000
   10    -17.69590    2.00000
   11    -17.54861    2.00000
   12    -16.73545    2.00000
   13    -16.08439    2.00000
   14    -15.80483    2.00000
   15    -14.91132    2.00000
   16    -14.10205    2.00000
   17    -13.28810    2.00000
   18    -13.20811    2.00000
   19    -13.15387    2.00000
   20    -12.45855    2.00000
   21    -11.62509    2.00000
   22    -11.38808    2.00000
   23    -11.20453    2.00000
   24    -10.76079    2.00000
   25    -10.30579    2.00000
   26    -10.14251    2.00000
   27     -9.97710    2.00000
   28     -9.86180    2.00000
   29     -9.75869    2.00000
   30     -9.43912    2.00000
   31     -9.26743    2.00000
   32     -8.87333    2.00000
   33     -8.71486    2.00000
   34     -8.59274    2.00000
   35     -8.23667    2.00000
   36     -7.98327    2.00000
   37     -7.44402    2.00000
   38     -7.25074    2.00000
   39     -7.22503    2.00000
   40     -6.51982    2.00000
   41     -6.10019    2.00000
   42     -5.74349    1.99994
   43     -5.68521    1.99989
   44     -5.58438    1.99970
   45     -5.20402    1.98645
   46     -5.15314    1.97756
   47     -4.84383    1.59984
   48     -4.57706    0.43444
   49     -3.98784    0.00153
   50     -3.88393    0.00054
   51     -3.73210    0.00012
   52     -2.95816    0.00000
   53     -2.19838    0.00000
   54     -2.08068    0.00000
   55     -1.83773    0.00000
   56     -1.51548    0.00000
   57     -1.41120    0.00000
   58     -1.04722    0.00000
   59     -0.19316    0.00000
   60      0.34889    0.00000
   61      0.62458    0.00000
   62      1.04663    0.00000
   63      2.32111    0.00000
   64      2.43328    0.00000
   65      2.44115    0.00000
   66      2.70049    0.00000
   67      2.85454    0.00000
   68      3.37971    0.00000
   69      3.46881    0.00000
   70      3.73422    0.00000
   71      3.92256    0.00000
   72      4.48785    0.00000
   73      5.34839    0.00000
   74      5.49400    0.00000
   75      5.71149    0.00000
   76      6.33383    0.00000
   77      6.58715    0.00000
   78      6.73684    0.00000
   79      6.88164    0.00000
   80      7.00638    0.00000
   81      7.61027    0.00000
   82      7.71776    0.00000
   83      8.09913    0.00000
   84      8.36346    0.00000
   85      8.48013    0.00000
   86      8.56655    0.00000
   87      8.71590    0.00000
   88      8.91123    0.00000
   89      8.99843    0.00000
   90      9.15601    0.00000
   91      9.25425    0.00000
   92      9.46799    0.00000
   93      9.61232    0.00000
   94      9.68246    0.00000
   95      9.83300    0.00000
   96      9.88346    0.00000
   97     10.11904    0.00000


Forces in eV/Ang:
  0 C    -0.53176   -0.43668   -0.79665
  1 C    -1.22820    0.85430   -0.10944
  2 C    -0.97178   -0.61836   -0.38420
  3 C    -1.16019    0.77156   -0.57244
  4 C    -0.86334   -0.21955    0.10688
  5 C     0.63987    2.31744    0.47088
  6 C     0.17691   -1.79626   -0.83002
  7 C     0.00714    0.38055   -0.07269
  8 C    -0.66708    0.77835    0.37282
  9 C     0.73546   -0.50565    0.01602
 10 C     0.64412   -0.14368    0.05933
 11 C     0.24619    0.41951    0.03259
 12 C    -0.31633    0.33195    1.53331
 13 C     0.76237    0.07485   -0.25867
 14 C    -0.23828    0.28843    0.69360
 15 C    -0.01337   -0.17553   -0.47899
 16 C     0.54773   -0.14596    0.47873
 17 C    -0.30409   -1.74664   -0.07461
 18 C     1.05034    0.00090    0.22726
 19 C     0.50873    0.19135   -0.02852
 20 C     0.56535   -0.11051    0.08508
 21 C     0.35159    0.09319   -0.60257
 22 C     0.08697   -0.57232   -0.15255
 23 C    -0.10398   -0.00996    0.23305

System changes: positions 

Initializing position-dependent things.

Density initialized from wave functions
           .--------------------------------------.  
          /|                                      |  
         / |                                      |  
        /  |                                      |  
       /   |                                      |  
      /    |                                      |  
     /     |                                      |  
    /      |                                      |  
   /       |      C  C C                          |  
  /        |     C       C C  C                   |  
 *         |                   C                  |  
 |         |    CC  C C     C    C                |  
 |         .-C-C--------C-----C-------------------.  
 |        /     C  C  CC  C  C                   /   
 |       /                                      /    
 |      /                                      /     
 |     /                                      /      
 |    /                                      /       
 |   /                                      /        
 |  /                                      /         
 | /                                      /          
 |/                                      /           
 *--------------------------------------*            

Positions:
   0 C      7.454241    9.904030    5.990407
   1 C     10.635064    5.296299    5.649661
   2 C      9.685755    8.562571    6.175401
   3 C      9.386977    6.241642    5.693707
   4 C     10.354700    7.364120    6.021523
   5 C      8.470559    9.033275    6.065449
   6 C      3.295938    6.195112    5.384789
   7 C     11.486641    6.474176    5.929590
   8 C     10.605955    3.922046    5.309586
   9 C      5.232249   11.297635    5.593842
  10 C      6.632760    6.991786    5.135285
  11 C      3.628744    9.318243    4.614760
  12 C      4.576765    5.660948    4.660187
  13 C      7.245211    4.959484    5.166079
  14 C      6.405645   10.645881    5.719912
  15 C      7.959652    3.759976    5.165881
  16 C      8.005569    6.222316    5.377153
  17 C      9.263132    3.761995    5.232019
  18 C      3.967623   11.829203    5.432666
  19 C      5.966381    5.623305    4.928133
  20 C      3.695855   10.545686    4.968515
  21 C      4.540625    8.263728    4.621195
  22 C      5.907674    8.141044    5.010793
  23 C      3.996080    6.926182    4.404888

Unit cell:
           periodic     x           y           z      points  spacing
  1. axis:    yes   16.000000    0.000000    0.000000    80     0.2000
  2. axis:    yes    0.000000   16.000000    0.000000    80     0.2000
  3. axis:    yes    0.000000    0.000000   10.000000    48     0.2083

Effective grid spacing dv^(1/3) = 0.2027

                     log10-error:    total        iterations:
           time      wfs    density  energy       fermi  poisson
iter:   1  09:20:04          +inf  -177.000978    3      5      
iter:   2  09:20:04         -1.99  -176.946583    3      2      
iter:   3  09:20:05         -2.17  -176.929996    3      2      
iter:   4  09:20:05         -2.30  -176.913184    3      2      
iter:   5  09:20:06         -2.51  -176.911199    2      2      
iter:   6  09:20:06         -2.67  -176.909592    3      2      
iter:   7  09:20:07         -2.80  -176.903080    2      1      
iter:   8  09:20:07         -2.96  -176.903464    2      1      
iter:   9  09:20:08         -3.09  -176.910376    2      2      
iter:  10  09:20:08         -3.31  -176.909495    2      1      
iter:  11  09:20:09         -3.42  -176.910094    2      1      
iter:  12  09:20:09         -3.63  -176.910782    2      1      
iter:  13  09:20:10         -3.73  -176.911400    2      1      
iter:  14  09:20:10         -3.79  -176.911718    2      1      
iter:  15  09:20:11         -3.77  -176.911938    2      1      
iter:  16  09:20:11         -3.97  -176.911877    2      1      
iter:  17  09:20:12         -4.17  -176.912210    2      1      

Converged after 17 iterations.

Dipole moment: (0.137207, 0.354344, -0.146706) |e|*Ang

Energy contributions relative to reference atoms: (reference = -24663.074771)

Kinetic:        +93.363383
Potential:     -104.355057
External:        +0.000000
XC:            -168.744395
Entropy (-ST):   -0.229832
Local:           +2.938775
--------------------------
Free energy:   -177.027126
Extrapolated:  -176.912210

Fermi level: -4.69777

 Band  Eigenvalues  Occupancy
    0    -23.16924    2.00000
    1    -22.56311    2.00000
    2    -22.03358    2.00000
    3    -21.83201    2.00000
    4    -20.77772    2.00000
    5    -20.35691    2.00000
    6    -20.24698    2.00000
    7    -19.50480    2.00000
    8    -18.86037    2.00000
    9    -18.23993    2.00000
   10    -17.79968    2.00000
   11    -17.57120    2.00000
   12    -16.77198    2.00000
   13    -16.12335    2.00000
   14    -15.85158    2.00000
   15    -14.95044    2.00000
   16    -14.20270    2.00000
   17    -13.35096    2.00000
   18    -13.21850    2.00000
   19    -13.14526    2.00000
   20    -12.52364    2.00000
   21    -11.58710    2.00000
   22    -11.35199    2.00000
   23    -11.21402    2.00000
   24    -10.75692    2.00000
   25    -10.31598    2.00000
   26    -10.14037    2.00000
   27     -9.94025    2.00000
   28     -9.89874    2.00000
   29     -9.78606    2.00000
   30     -9.40288    2.00000
   31     -9.24092    2.00000
   32     -8.90492    2.00000
   33     -8.74268    2.00000
   34     -8.61141    2.00000
   35     -8.31029    2.00000
   36     -8.02625    2.00000
   37     -7.46859    2.00000
   38     -7.30929    2.00000
   39     -7.26162    2.00000
   40     -6.55894    2.00000
   41     -6.13901    2.00000
   42     -5.72798    1.99993
   43     -5.68112    1.99989
   44     -5.57885    1.99970
   45     -5.17327    1.98293
   46     -5.11834    1.97062
   47     -4.84037    1.61255
   48     -4.56909    0.43280
   49     -3.93885    0.00101
   50     -3.85930    0.00046
   51     -3.71937    0.00011
   52     -2.89538    0.00000
   53     -2.08444    0.00000
   54     -1.99341    0.00000
   55     -1.82652    0.00000
   56     -1.49923    0.00000
   57     -1.42446    0.00000
   58     -1.08269    0.00000
   59     -0.03866    0.00000
   60      0.40602    0.00000
   61      0.66872    0.00000
   62      1.07710    0.00000
   63      2.48319    0.00000
   64      2.53476    0.00000
   65      2.61229    0.00000
   66      2.80649    0.00000
   67      2.96958    0.00000
   68      3.39703    0.00000
   69      3.62379    0.00000
   70      3.89347    0.00000
   71      3.96985    0.00000
   72      4.52252    0.00000
   73      5.42890    0.00000
   74      5.57370    0.00000
   75      5.78481    0.00000
   76      6.43318    0.00000
   77      6.71002    0.00000
   78      6.77002    0.00000
   79      6.96278    0.00000
   80      7.00087    0.00000
   81      7.60378    0.00000
   82      7.70644    0.00000
   83      8.06330    0.00000
   84      8.35605    0.00000
   85      8.45341    0.00000
   86      8.61523    0.00000
   87      8.71783    0.00000
   88      8.94501    0.00000
   89      9.01256    0.00000
   90      9.14995    0.00000
   91      9.25160    0.00000
   92      9.49308    0.00000
   93      9.64205    0.00000
   94      9.70646    0.00000
   95      9.83584    0.00000
   96      9.91519    0.00000
   97     10.15835    0.00000


Forces in eV/Ang:
  0 C    -0.42459   -0.30382   -0.62673
  1 C    -0.96888    0.69947   -0.10851
  2 C    -0.64253   -0.51602   -0.30386
  3 C    -0.30898    0.58105   -0.35442
  4 C    -0.85051   -0.01245    0.06654
  5 C     0.70105    1.77856    0.37686
  6 C     0.13756   -1.62117   -0.77170
  7 C    -0.16609    0.22901   -0.06683
  8 C    -0.51282    0.84421    0.39517
  9 C     0.54690   -0.30560    0.04031
 10 C     0.48509   -0.32082    0.03093
 11 C     0.30727    0.07058   -0.11478
 12 C    -0.08276    0.50286    1.28198
 13 C     0.54131   -0.11412   -0.25983
 14 C    -0.41540    0.48853    0.56510
 15 C    -0.01170   -0.21426   -0.43177
 16 C    -0.17044   -0.01598    0.25110
 17 C    -0.47134   -1.44796   -0.07627
 18 C     0.92975   -0.07632    0.17661
 19 C     0.39888    0.20485    0.02812
 20 C     0.53801    0.30323    0.17147
 21 C     0.11047   -0.14925   -0.55183
 22 C     0.26621   -0.36829   -0.08659
 23 C     0.09094   -0.26180    0.38457

System changes: positions 

Initializing position-dependent things.

Density initialized from wave functions
           .--------------------------------------.  
          /|                                      |  
         / |                                      |  
        /  |                                      |  
       /   |                                      |  
      /    |                                      |  
     /     |                                      |  
    /      |                                      |  
   /       |      C  C C                          |  
  /        |     C       C C  C                   |  
 *         |                   C                  |  
 |         |    CC  C C     C    C                |  
 |         .-C-C--------C-----C-------------------.  
 |        /     C  C  CC  C  C                   /   
 |       /                                      /    
 |      /                                      /     
 |     /                                      /      
 |    /                                      /       
 |   /                                      /        
 |  /                                      /         
 | /                                      /          
 |/                                      /           
 *--------------------------------------*            

Positions:
   0 C      7.442857    9.898262    5.976533
   1 C     10.616822    5.309978    5.648214
   2 C      9.669853    8.554927    6.169684
   3 C      9.374677    6.254027    5.686090
   4 C     10.341722    7.360287    6.022985
   5 C      8.483252    9.070420    6.073140
   6 C      3.297964    6.164495    5.371213
   7 C     11.485332    6.480806    5.928340
   8 C     10.592419    3.934532    5.315707
   9 C      5.240546   11.293220    5.594438
  10 C      6.642035    6.990124    5.136248
  11 C      3.634169    9.318909    4.613349
  12 C      4.576816    5.661046    4.685331
  13 C      7.255663    4.960041    5.161811
  14 C      6.407613   10.648426    5.732575
  15 C      7.959445    3.756243    5.158005
  16 C      8.008306    6.219665    5.382996
  17 C      9.259738    3.733277    5.230696
  18 C      3.983550   11.827870    5.435511
  19 C      5.974247    5.625051    4.928025
  20 C      3.705234   10.550136    4.971375
  21 C      4.546768    8.266654    4.611735
  22 C      5.908728    8.132411    5.008255
  23 C      3.992349    6.929474    4.409306

Unit cell:
           periodic     x           y           z      points  spacing
  1. axis:    yes   16.000000    0.000000    0.000000    80     0.2000
  2. axis:    yes    0.000000   16.000000    0.000000    80     0.2000
  3. axis:    yes    0.000000    0.000000   10.000000    48     0.2083

Effective grid spacing dv^(1/3) = 0.2027

                     log10-error:    total        iterations:
           time      wfs    density  energy       fermi  poisson
iter:   1  09:20:13          +inf  -177.317126    3      5      
iter:   2  09:20:14         -2.03  -177.275429    3      2      
iter:   3  09:20:15         -2.21  -177.261655    3      2      
iter:   4  09:20:15         -2.35  -177.250936    3      2      
iter:   5  09:20:16         -2.55  -177.249011    3      2      
iter:   6  09:20:16         -2.69  -177.247268    3      2      
iter:   7  09:20:17         -2.84  -177.244620    2      1      
iter:   8  09:20:17         -2.99  -177.241241    2      1      
iter:   9  09:20:18         -3.15  -177.248345    2      2      
iter:  10  09:20:18         -3.36  -177.248407    2      1      
iter:  11  09:20:19         -3.46  -177.247470    2      1      
iter:  12  09:20:19         -3.73  -177.249036    2      1      
iter:  13  09:20:20         -3.78  -177.249828    2      1      
iter:  14  09:20:20         -3.86  -177.248812    2      1      
iter:  15  09:20:21         -3.61  -177.249336    2      1      
iter:  16  09:20:21         -3.66  -177.250776    2      1      
iter:  17  09:20:22         -3.91  -177.249533    2      1      
iter:  18  09:20:22         -4.46  -177.249225    2      1      

Converged after 18 iterations.

Dipole moment: (0.124454, 0.314047, -0.147243) |e|*Ang

Energy contributions relative to reference atoms: (reference = -24663.074771)

Kinetic:        +97.432242
Potential:     -107.518577
External:        +0.000000
XC:            -169.996118
Entropy (-ST):   -0.234229
Local:           +2.950342
--------------------------
Free energy:   -177.366339
Extrapolated:  -177.249225

Fermi level: -4.68210

 Band  Eigenvalues  Occupancy
    0    -23.18694    2.00000
    1    -22.58321    2.00000
    2    -22.07319    2.00000
    3    -21.85719    2.00000
    4    -20.79303    2.00000
    5    -20.39089    2.00000
    6    -20.26454    2.00000
    7    -19.52096    2.00000
    8    -18.86559    2.00000
    9    -18.23322    2.00000
   10    -17.85943    2.00000
   11    -17.58179    2.00000
   12    -16.78434    2.00000
   13    -16.14444    2.00000
   14    -15.89350    2.00000
   15    -14.99528    2.00000
   16    -14.28663    2.00000
   17    -13.39505    2.00000
   18    -13.23454    2.00000
   19    -13.14594    2.00000
   20    -12.58058    2.00000
   21    -11.57625    2.00000
   22    -11.31025    2.00000
   23    -11.22824    2.00000
   24    -10.76050    2.00000
   25    -10.32501    2.00000
   26    -10.13435    2.00000
   27     -9.94390    2.00000
   28     -9.90123    2.00000
   29     -9.81811    2.00000
   30     -9.37800    2.00000
   31     -9.23628    2.00000
   32     -8.92715    2.00000
   33     -8.77048    2.00000
   34     -8.62782    2.00000
   35     -8.38820    2.00000
   36     -8.06614    2.00000
   37     -7.50468    2.00000
   38     -7.36430    2.00000
   39     -7.26853    2.00000
   40     -6.59100    2.00000
   41     -6.16120    2.00000
   42     -5.70971    1.99993
   43     -5.65699    1.99988
   44     -5.55954    1.99969
   45     -5.15118    1.98181
   46     -5.06225    1.95630
   47     -4.82896    1.62569
   48     -4.55422    0.43552
   49     -3.87865    0.00065
   50     -3.83568    0.00042
   51     -3.70227    0.00011
   52     -2.83427    0.00000
   53     -1.98222    0.00000
   54     -1.93931    0.00000
   55     -1.79517    0.00000
   56     -1.52223    0.00000
   57     -1.41226    0.00000
   58     -1.11819    0.00000
   59      0.09232    0.00000
   60      0.46289    0.00000
   61      0.71535    0.00000
   62      1.16282    0.00000
   63      2.54057    0.00000
   64      2.67272    0.00000
   65      2.76166    0.00000
   66      2.92516    0.00000
   67      3.09892    0.00000
   68      3.42448    0.00000
   69      3.76753    0.00000
   70      3.98974    0.00000
   71      4.10564    0.00000
   72      4.57136    0.00000
   73      5.50390    0.00000
   74      5.64138    0.00000
   75      5.83704    0.00000
   76      6.49680    0.00000
   77      6.76837    0.00000
   78      6.84316    0.00000
   79      7.01508    0.00000
   80      7.11464    0.00000
   81      7.53368    0.00000
   82      7.80839    0.00000
   83      8.03959    0.00000
   84      8.35648    0.00000
   85      8.43541    0.00000
   86      8.65809    0.00000
   87      8.74417    0.00000
   88      8.98263    0.00000
   89      9.05002    0.00000
   90      9.14871    0.00000
   91      9.25208    0.00000
   92      9.51437    0.00000
   93      9.64515    0.00000
   94      9.73440    0.00000
   95      9.84835    0.00000
   96      9.93843    0.00000
   97     10.20063    0.00000


Forces in eV/Ang:
  0 C    -0.13008   -0.36623   -0.45725
  1 C    -0.70013    0.49673   -0.11906
  2 C    -0.33510   -0.35617   -0.20844
  3 C     0.10303    0.36043   -0.21749
  4 C    -0.71860    0.13732    0.04601
  5 C     0.54877    1.44024    0.27571
  6 C     0.04992   -1.42580   -0.65868
  7 C    -0.34346    0.14646   -0.07145
  8 C    -0.42650    0.82100    0.37682
  9 C     0.50685   -0.19574    0.07784
 10 C     0.30355   -0.40659    0.01647
 11 C     0.28479    0.44302   -0.09286
 12 C     0.14693    0.57902    0.98600
 13 C     0.28766   -0.22730   -0.27046
 14 C    -0.66276    0.72566    0.39178
 15 C    -0.08093   -0.26926   -0.41473
 16 C    -0.49484    0.09141    0.08681
 17 C    -0.45247   -1.14443   -0.06911
 18 C     0.67878    0.12496    0.21137
 19 C     0.29187    0.14411    0.07030
 20 C     0.49166   -0.12999    0.02207
 21 C     0.00809   -0.36752   -0.47535
 22 C     0.45485   -0.20574   -0.02137
 23 C     0.21027   -0.42578    0.49553

System changes: positions 

Initializing position-dependent things.

Density initialized from wave functions
           .--------------------------------------.  
          /|                                      |  
         / |                                      |  
        /  |                                      |  
       /   |                                      |  
      /    |                                      |  
     /     |                                      |  
    /      |                                      |  
   /       |      C  C C                          |  
  /        |     C       C C  C                   |  
 *         |                   C                  |  
 |         |    CC  C C     C    C                |  
 |         .-C-C--------C-----C-------------------.  
 |        /     C  C  CC  C  C                   /   
 |       /                                      /    
 |      /                                      /     
 |     /                                      /      
 |    /                                      /       
 |   /                                      /        
 |  /                                      /         
 | /                                      /          
 |/                                      /           
 *--------------------------------------*            

Positions:
   0 C      7.433705    9.890978    5.963014
   1 C     10.600262    5.322363    5.646513
   2 C      9.655973    8.548887    6.164626
   3 C      9.365856    6.264802    5.679341
   4 C     10.329411    7.358043    6.024430
   5 C      8.495409    9.107826    6.080418
   6 C      3.298801    6.132791    5.357738
   7 C     11.481568    6.487392    5.926858
   8 C     10.578022    3.947910    5.322204
   9 C      5.249228   11.289969    5.595654
  10 C      6.649880    6.987380    5.137189
  11 C      3.640012    9.324551    4.612015
  12 C      4.580587    5.661284    4.709401
  13 C      7.263873    4.959188    5.156926
  14 C      6.407369   10.654018    5.744661
  15 C      7.958485    3.751272    5.149422
  16 C      8.007457    6.218048    5.387330
  17 C      9.256366    3.705151    5.229285
  18 C      3.997666   11.829159    5.439111
  19 C      5.981355    5.625861    4.928433
  20 C      3.715068   10.549324    4.972538
  21 C      4.552831    8.267174    4.602345
  22 C      5.911927    8.125039    5.006176
  23 C      3.989373    6.931708    4.415654

Unit cell:
           periodic     x           y           z      points  spacing
  1. axis:    yes   16.000000    0.000000    0.000000    80     0.2000
  2. axis:    yes    0.000000   16.000000    0.000000    80     0.2000
  3. axis:    yes    0.000000    0.000000   10.000000    48     0.2083

Effective grid spacing dv^(1/3) = 0.2027

                     log10-error:    total        iterations:
           time      wfs    density  energy       fermi  poisson
iter:   1  09:20:24          +inf  -177.547873    3      5      
iter:   2  09:20:24         -2.16  -177.527700    3      2      
iter:   3  09:20:25         -2.31  -177.517740    3      2      
iter:   4  09:20:25         -2.48  -177.513664    3      2      
iter:   5  09:20:26         -2.61  -177.512336    3      2      
iter:   6  09:20:26         -2.74  -177.511112    2      2      
iter:   7  09:20:27         -2.96  -177.509554    2      1      
iter:   8  09:20:27         -3.09  -177.505458    2      1      
iter:   9  09:20:28         -3.32  -177.508403    2      1      
iter:  10  09:20:28         -3.47  -177.511565    2      1      
iter:  11  09:20:29         -3.66  -177.511706    2      1      
iter:  12  09:20:29         -3.80  -177.513022    2      1      
iter:  13  09:20:30         -3.86  -177.513383    2      1      
iter:  14  09:20:30         -4.03  -177.512924    2      1      

Converged after 14 iterations.

Dipole moment: (0.129489, 0.246795, -0.147979) |e|*Ang

Energy contributions relative to reference atoms: (reference = -24663.074771)

Kinetic:       +101.266380
Potential:     -110.513559
External:        +0.000000
XC:            -171.113303
Entropy (-ST):   -0.241727
Local:           +2.968421
--------------------------
Free energy:   -177.633787
Extrapolated:  -177.512924

Fermi level: -4.67296

 Band  Eigenvalues  Occupancy
    0    -23.20646    2.00000
    1    -22.61783    2.00000
    2    -22.05875    2.00000
    3    -21.89077    2.00000
    4    -20.79906    2.00000
    5    -20.41108    2.00000
    6    -20.26698    2.00000
    7    -19.52621    2.00000
    8    -18.85819    2.00000
    9    -18.24585    2.00000
   10    -17.90502    2.00000
   11    -17.58919    2.00000
   12    -16.80982    2.00000
   13    -16.17504    2.00000
   14    -15.91693    2.00000
   15    -15.03854    2.00000
   16    -14.34701    2.00000
   17    -13.42927    2.00000
   18    -13.24082    2.00000
   19    -13.15954    2.00000
   20    -12.64055    2.00000
   21    -11.55418    2.00000
   22    -11.26885    2.00000
   23    -11.21938    2.00000
   24    -10.77301    2.00000
   25    -10.33733    2.00000
   26    -10.13274    2.00000
   27     -9.96359    2.00000
   28     -9.88913    2.00000
   29     -9.82514    2.00000
   30     -9.36156    2.00000
   31     -9.24215    2.00000
   32     -8.94449    2.00000
   33     -8.78691    2.00000
   34     -8.63941    2.00000
   35     -8.45975    2.00000
   36     -8.10025    2.00000
   37     -7.54533    2.00000
   38     -7.39778    2.00000
   39     -7.27197    2.00000
   40     -6.61305    2.00000
   41     -6.16762    2.00000
   42     -5.70924    1.99994
   43     -5.64005    1.99987
   44     -5.54557    1.99968
   45     -5.14156    1.98172
   46     -5.01243    1.93508
   47     -4.82303    1.63537
   48     -4.54855    0.44744
   49     -3.83011    0.00044
   50     -3.81212    0.00037
   51     -3.68150    0.00010
   52     -2.79361    0.00000
   53     -1.94739    0.00000
   54     -1.86016    0.00000
   55     -1.73290    0.00000
   56     -1.57595    0.00000
   57     -1.38751    0.00000
   58     -1.15050    0.00000
   59      0.22656    0.00000
   60      0.50805    0.00000
   61      0.78341    0.00000
   62      1.26549    0.00000
   63      2.58404    0.00000
   64      2.75941    0.00000
   65      2.89322    0.00000
   66      3.03839    0.00000
   67      3.24208    0.00000
   68      3.44695    0.00000
   69      3.88444    0.00000
   70      4.07583    0.00000
   71      4.25864    0.00000
   72      4.62597    0.00000
   73      5.55424    0.00000
   74      5.70426    0.00000
   75      5.86369    0.00000
   76      6.50964    0.00000
   77      6.75980    0.00000
   78      6.92496    0.00000
   79      7.09779    0.00000
   80      7.23785    0.00000
   81      7.48060    0.00000
   82      7.91212    0.00000
   83      8.03670    0.00000
   84      8.36328    0.00000
   85      8.42441    0.00000
   86      8.66843    0.00000
   87      8.79725    0.00000
   88      9.01296    0.00000
   89      9.08638    0.00000
   90      9.14560    0.00000
   91      9.25734    0.00000
   92      9.53944    0.00000
   93      9.64030    0.00000
   94      9.76010    0.00000
   95      9.85836    0.00000
   96      9.97018    0.00000
   97     10.22314    0.00000


Forces in eV/Ang:
  0 C    -0.19916   -0.24515   -0.38181
  1 C    -0.47800    0.34400   -0.10178
  2 C    -0.15544   -0.14474   -0.13612
  3 C     0.29809    0.21118   -0.13961
  4 C    -0.63005    0.30115    0.02156
  5 C     0.62442    1.01520    0.22520
  6 C    -0.05085   -1.18258   -0.61172
  7 C    -0.46650    0.06064   -0.07613
  8 C    -0.40239    0.71912    0.38435
  9 C     0.30599    0.01007    0.10333
 10 C     0.15793   -0.49760   -0.00684
 11 C     0.39326    0.02967   -0.23728
 12 C     0.29507    0.58227    0.68112
 13 C     0.11698   -0.32568   -0.28585
 14 C    -0.44493    0.71099    0.33883
 15 C    -0.12065   -0.29433   -0.42314
 16 C    -0.59633    0.15046   -0.02261
 17 C    -0.44017   -0.82364   -0.05752
 18 C     0.48205    0.05265    0.16912
 19 C     0.22023    0.10270    0.10033
 20 C     0.46554    0.31914    0.13681
 21 C    -0.15778   -0.46055   -0.39106
 22 C     0.52200   -0.02093    0.02370
 23 C     0.28260   -0.56041    0.63581

System changes: positions 

Initializing position-dependent things.

Density initialized from wave functions
           .--------------------------------------.  
[...]
    3    -21.71800    2.00000
    4    -20.97964    2.00000
    5    -20.51438    2.00000
    6    -20.12406    2.00000
    7    -19.32282    2.00000
    8    -18.60205    2.00000
    9    -18.22185    2.00000
   10    -17.89174    2.00000
   11    -17.48707    2.00000
   12    -16.67785    2.00000
   13    -16.33933    2.00000
   14    -15.56780    2.00000
   15    -15.25564    2.00000
   16    -13.97589    2.00000
   17    -13.45414    2.00000
   18    -13.34412    2.00000
   19    -12.88597    2.00000
   20    -12.09966    2.00000
   21    -11.87859    2.00000
   22    -11.34439    2.00000
   23    -11.03481    2.00000
   24    -10.95637    2.00000
   25    -10.88490    2.00000
   26    -10.71830    2.00000
   27    -10.25919    2.00000
   28    -10.10240    2.00000
   29     -9.55634    2.00000
   30     -9.39434    2.00000
   31     -9.22840    2.00000
   32     -9.03558    2.00000
   33     -8.93052    2.00000
   34     -8.78160    2.00000
   35     -8.54392    2.00000
   36     -8.18399    2.00000
   37     -7.85675    2.00000
   38     -7.75520    2.00000
   39     -7.21259    2.00000
   40     -6.65602    2.00000
   41     -6.01235    2.00000
   42     -5.56087    1.99959
   43     -5.41726    1.99829
   44     -5.29491    1.99419
   45     -5.22349    1.98816
   46     -5.05043    1.93496
   47     -4.96222    1.84979
   48     -4.50778    0.23144
   49     -4.07387    0.00341
   50     -3.78508    0.00019
   51     -2.79491    0.00000
   52     -2.24406    0.00000
   53     -1.93667    0.00000
   54     -1.81633    0.00000
   55     -1.76711    0.00000
   56     -1.41915    0.00000
   57     -0.76263    0.00000
   58     -0.14741    0.00000
   59      0.61058    0.00000
   60      1.16682    0.00000
   61      1.26461    0.00000
   62      2.09023    0.00000
   63      2.31385    0.00000
   64      2.73758    0.00000
   65      2.85291    0.00000
   66      3.09685    0.00000
   67      3.54946    0.00000
   68      3.72076    0.00000
   69      3.95173    0.00000
   70      4.81726    0.00000
   71      4.94021    0.00000
   72      5.38322    0.00000
   73      5.69538    0.00000
   74      6.11990    0.00000
   75      6.31616    0.00000
   76      6.55718    0.00000
   77      7.01994    0.00000
   78      7.33552    0.00000
   79      7.53711    0.00000
   80      7.77240    0.00000
   81      8.02386    0.00000
   82      8.39013    0.00000
   83      8.49313    0.00000
   84      8.74009    0.00000
   85      8.82635    0.00000
   86      8.91685    0.00000
   87      9.19582    0.00000
   88      9.33028    0.00000
   89      9.35529    0.00000
   90      9.41920    0.00000
   91      9.54358    0.00000
   92      9.76990    0.00000
   93      9.78642    0.00000
   94      9.92119    0.00000
   95      9.96321    0.00000
   96     10.16932    0.00000
   97     10.26977    0.00000


Forces in eV/Ang:
  0 C    -0.03165   -0.01394    0.08249
  1 C     0.01086   -0.01028    0.00480
  2 C    -0.06893    0.00624   -0.01153
  3 C    -0.07767    0.02609   -0.00714
  4 C    -0.00406    0.00469   -0.00320
  5 C     0.02356    0.02931   -0.00449
  6 C    -0.01961   -0.04209    0.03708
  7 C    -0.08010   -0.02831   -0.01111
  8 C     0.03673   -0.00448    0.00108
  9 C     0.02214   -0.00260    0.00406
 10 C    -0.02237    0.05271    0.02062
 11 C     0.00130   -0.00614    0.00669
 12 C     0.00989   -0.11492   -0.03308
 13 C    -0.04020   -0.00559   -0.02894
 14 C    -0.00189   -0.02208   -0.01634
 15 C    -0.01229    0.00124   -0.00234
 16 C     0.01330   -0.00495   -0.02540
 17 C     0.01170    0.02102   -0.00511
 18 C     0.04767   -0.01478   -0.03085
 19 C    -0.02623    0.02721   -0.02302
 20 C     0.03057   -0.00329   -0.04017
 21 C     0.02881   -0.00615    0.01762
 22 C    -0.01482    0.00735    0.02182
 23 C     0.00515    0.01112    0.01367

System changes: positions 

Initializing position-dependent things.

Density initialized from wave functions
           .--------------------------------------.  
          /|                                      |  
         / |                                      |  
        /  |                                      |  
       /   |                                      |  
      /    |                                      |  
     /     |                                      |  
    /      |                                      |  
   /       |       C C C                          |  
  /        |            C  C  C                   |  
 *         |     C            C                   |  
 |         |    C C  CC     C    C                |  
 |         .-C-C--------C-----C-------------------.  
 |        /     C  C  C      C                   /   
 |       /             C  C                     /    
 |      /                                      /     
 |     /                                      /      
 |    /                                      /       
 |   /                                      /        
 |  /                                      /         
 | /                                      /          
 |/                                      /           
 *--------------------------------------*            

Positions:
   0 C      6.974596    9.438000    5.685788
   1 C     10.523726    5.401382    5.718549
   2 C      9.498361    8.722380    6.034346
   3 C      9.345361    6.353591    5.634208
   4 C     10.156284    7.511650    5.981354
   5 C      8.326440    9.178570    5.902584
   6 C      3.241148    5.790332    5.038759
   7 C     11.296077    6.626755    5.949626
   8 C     10.383656    4.057366    5.513703
   9 C      5.361420   11.367196    5.763949
  10 C      6.739503    6.916154    5.218965
  11 C      3.927152    9.361364    4.568523
  12 C      4.671672    5.665716    4.846611
  13 C      7.308070    4.887701    4.977978
  14 C      6.455554   10.705891    5.949715
  15 C      7.910658    3.624674    4.939336
  16 C      8.037567    6.148490    5.313729
  17 C      9.193399    3.585502    5.173637
  18 C      4.189019   11.912917    5.293796
  19 C      6.067259    5.640908    4.914498
  20 C      3.931854   10.609650    4.864208
  21 C      4.703856    8.229847    4.886836
  22 C      6.146630    8.202798    5.250005
  23 C      4.055270    6.947233    4.851705

Unit cell:
           periodic     x           y           z      points  spacing
  1. axis:    yes   16.000000    0.000000    0.000000    80     0.2000
  2. axis:    yes    0.000000   16.000000    0.000000    80     0.2000
  3. axis:    yes    0.000000    0.000000   10.000000    48     0.2083

Effective grid spacing dv^(1/3) = 0.2027

                     log10-error:    total        iterations:
           time      wfs    density  energy       fermi  poisson
iter:   1  09:25:25          +inf  -180.732700    3      5      
iter:   2  09:25:25         -2.56  -180.724335    3      1      
iter:   3  09:25:26         -2.95  -180.722490    2      1      
iter:   4  09:25:26         -3.03  -180.723247    2      1      
iter:   5  09:25:27         -3.11  -180.722029    2      1      
iter:   6  09:25:27         -3.11  -180.723548    2      1      
iter:   7  09:25:28         -3.40  -180.725576    2      1      
iter:   8  09:25:28         -3.05  -180.722931    2      1      
iter:   9  09:25:29         -3.84  -180.722580    2      1      
iter:  10  09:25:29         -3.83  -180.722969    2      1      
iter:  11  09:25:30         -3.86  -180.722271    2      1      
iter:  12  09:25:30         -3.63  -180.722791    2      1      
iter:  13  09:25:31         -3.87  -180.722921    2      1      
iter:  14  09:25:31         -3.89  -180.722592    2      1      
iter:  15  09:25:32         -4.31  -180.722768    2      1      

Converged after 15 iterations.

Dipole moment: (0.528798, -0.427327, -0.061744) |e|*Ang

Energy contributions relative to reference atoms: (reference = -24663.074771)

Kinetic:       +111.105163
Potential:     -118.269217
External:        +0.000000
XC:            -176.443839
Entropy (-ST):   -0.166769
Local:           +2.968510
--------------------------
Free energy:   -180.806153
Extrapolated:  -180.722768

Fermi level: -4.70980

 Band  Eigenvalues  Occupancy
    0    -23.41000    2.00000
    1    -23.04848    2.00000
    2    -22.19445    2.00000
    3    -21.70537    2.00000
    4    -20.97318    2.00000
    5    -20.51020    2.00000
    6    -20.12828    2.00000
    7    -19.31976    2.00000
    8    -18.60058    2.00000
    9    -18.21971    2.00000
   10    -17.89212    2.00000
   11    -17.48537    2.00000
   12    -16.67573    2.00000
   13    -16.33816    2.00000
   14    -15.56791    2.00000
   15    -15.25732    2.00000
   16    -13.98813    2.00000
   17    -13.45927    2.00000
   18    -13.33163    2.00000
   19    -12.87381    2.00000
   20    -12.10903    2.00000
   21    -11.88072    2.00000
   22    -11.33797    2.00000
   23    -11.03821    2.00000
   24    -10.97252    2.00000
   25    -10.87938    2.00000
   26    -10.72629    2.00000
   27    -10.25347    2.00000
   28    -10.10151    2.00000
   29     -9.55383    2.00000
   30     -9.38602    2.00000
   31     -9.21923    2.00000
   32     -9.02605    2.00000
   33     -8.93119    2.00000
   34     -8.77641    2.00000
   35     -8.54549    2.00000
   36     -8.18184    2.00000
   37     -7.86083    2.00000
   38     -7.75096    2.00000
   39     -7.21189    2.00000
   40     -6.65178    2.00000
   41     -6.01002    2.00000
   42     -5.56078    1.99960
   43     -5.42494    1.99843
   44     -5.29167    1.99407
   45     -5.22384    1.98836
   46     -5.04600    1.93300
   47     -4.96654    1.85748
   48     -4.50344    0.22537
   49     -4.07527    0.00350
   50     -3.78455    0.00019
   51     -2.78975    0.00000
   52     -2.23398    0.00000
   53     -1.94249    0.00000
   54     -1.81544    0.00000
   55     -1.76333    0.00000
   56     -1.40880    0.00000
   57     -0.76171    0.00000
   58     -0.13148    0.00000
   59      0.58888    0.00000
   60      1.16214    0.00000
   61      1.26493    0.00000
   62      2.08001    0.00000
   63      2.30952    0.00000
   64      2.73806    0.00000
   65      2.83699    0.00000
   66      3.08957    0.00000
   67      3.51231    0.00000
   68      3.71369    0.00000
   69      3.95017    0.00000
   70      4.80240    0.00000
   71      4.94771    0.00000
   72      5.38298    0.00000
   73      5.69202    0.00000
   74      6.12577    0.00000
   75      6.35415    0.00000
   76      6.54404    0.00000
   77      7.00489    0.00000
   78      7.32142    0.00000
   79      7.53270    0.00000
   80      7.75517    0.00000
   81      8.03201    0.00000
   82      8.38527    0.00000
   83      8.48018    0.00000
   84      8.74351    0.00000
   85      8.83264    0.00000
   86      8.91195    0.00000
   87      9.19549    0.00000
   88      9.33396    0.00000
   89      9.35867    0.00000
   90      9.42023    0.00000
   91      9.54689    0.00000
   92      9.77582    0.00000
   93      9.78894    0.00000
   94      9.91637    0.00000
   95      9.97059    0.00000
   96     10.17378    0.00000
   97     10.27132    0.00000


Forces in eV/Ang:
  0 C    -0.04196   -0.07001    0.03682
  1 C     0.01759    0.00611   -0.00808
  2 C    -0.03405    0.03192    0.00289
  3 C     0.00251    0.03269    0.02547
  4 C    -0.03574   -0.06240   -0.01281
  5 C     0.08976   -0.02671    0.02330
  6 C     0.03287    0.03542    0.04994
  7 C     0.00571    0.04322    0.01939
  8 C     0.01211   -0.00080   -0.01121
  9 C     0.01367   -0.00531   -0.02073
 10 C     0.04953    0.01234    0.02330
 11 C    -0.00940    0.01750   -0.00801
 12 C    -0.01310   -0.08946   -0.08113
 13 C    -0.00721    0.05083   -0.05162
 14 C    -0.03324    0.00846    0.00706
 15 C    -0.04387    0.03908    0.02057
 16 C     0.00714    0.00458   -0.02623
 17 C     0.03790    0.01605    0.00314
 18 C     0.01756   -0.03482   -0.05737
 19 C     0.01637    0.05996    0.02141
 20 C     0.01129   -0.03165    0.02165
 21 C    -0.00703    0.03339    0.02375
 22 C    -0.04886   -0.07514    0.00621
 23 C     0.02660    0.03300    0.04639

System changes: positions 

Initializing position-dependent things.

Density initialized from wave functions
           .--------------------------------------.  
          /|                                      |  
         / |                                      |  
        /  |                                      |  
       /   |                                      |  
      /    |                                      |  
     /     |                                      |  
    /      |                                      |  
   /       |       C C C                          |  
  /        |            C  C  C                   |  
 *         |     C            C                   |  
 |         |    C C  CC     C    C                |  
 |         .-C-C--------C-----C-------------------.  
 |        /     C  C  C      C                   /   
 |       /             C  C                     /    
 |      /                                      /     
 |     /                                      /      
 |    /                                      /       
 |   /                                      /        
 |  /                                      /         
 | /                                      /          
 |/                                      /           
 *--------------------------------------*            

Positions:
   0 C      6.972928    9.434861    5.686650
   1 C     10.525131    5.401241    5.719420
   2 C      9.498079    8.721323    6.032765
   3 C      9.346281    6.352899    5.635152
   4 C     10.156773    7.510551    5.981256
   5 C      8.325393    9.174334    5.901269
   6 C      3.241761    5.792516    5.039885
   7 C     11.297841    6.627497    5.949974
   8 C     10.385400    4.057002    5.514810
   9 C      5.361140   11.366001    5.763500
  10 C      6.739732    6.916435    5.219948
  11 C      3.925624    9.362542    4.569150
  12 C      4.671509    5.666317    4.844856
  13 C      7.308634    4.889144    4.976643
  14 C      6.453435   10.702787    5.950262
  15 C      7.911820    3.626529    4.939020
  16 C      8.038165    6.149038    5.313743
  17 C      9.194978    3.586580    5.173353
  18 C      4.190644   11.914607    5.290437
  19 C      6.067391    5.642150    4.914339
  20 C      3.931345   10.610685    4.864402
  21 C      4.702280    8.231302    4.888430
  22 C      6.144366    8.201451    5.251266
  23 C      4.055003    6.948842    4.852703

Unit cell:
           periodic     x           y           z      points  spacing
  1. axis:    yes   16.000000    0.000000    0.000000    80     0.2000
  2. axis:    yes    0.000000   16.000000    0.000000    80     0.2000
  3. axis:    yes    0.000000    0.000000   10.000000    48     0.2083

Effective grid spacing dv^(1/3) = 0.2027

                     log10-error:    total        iterations:
           time      wfs    density  energy       fermi  poisson
iter:   1  09:25:33          +inf  -180.719813    3      4      
iter:   2  09:25:34         -2.67  -180.721600    3      1      
iter:   3  09:25:34         -3.32  -180.723448    2      1      
iter:   4  09:25:35         -3.45  -180.722872    2      1      
iter:   5  09:25:35         -3.49  -180.724649    2      1      
iter:   6  09:25:36         -3.18  -180.723489    2      1      
iter:   7  09:25:36         -3.82  -180.722155    2      1      
iter:   8  09:25:37         -3.37  -180.723026    2      1      
iter:   9  09:25:37         -4.22  -180.723347    2      1      

Converged after 9 iterations.

Dipole moment: (0.525554, -0.428840, -0.061534) |e|*Ang

Energy contributions relative to reference atoms: (reference = -24663.074771)

Kinetic:       +111.279289
Potential:     -118.409471
External:        +0.000000
XC:            -176.482630
Entropy (-ST):   -0.167741
Local:           +2.973335
--------------------------
Free energy:   -180.807218
Extrapolated:  -180.723347

Fermi level: -4.71084

 Band  Eigenvalues  Occupancy
    0    -23.41338    2.00000
    1    -23.04848    2.00000
    2    -22.19747    2.00000
    3    -21.70894    2.00000
    4    -20.97561    2.00000
    5    -20.51151    2.00000
    6    -20.12864    2.00000
    7    -19.32100    2.00000
    8    -18.60218    2.00000
    9    -18.21840    2.00000
   10    -17.89184    2.00000
   11    -17.48840    2.00000
   12    -16.67729    2.00000
   13    -16.33812    2.00000
   14    -15.56702    2.00000
   15    -15.25718    2.00000
   16    -13.98532    2.00000
   17    -13.45887    2.00000
   18    -13.33863    2.00000
   19    -12.87834    2.00000
   20    -12.10837    2.00000
   21    -11.88028    2.00000
   22    -11.33972    2.00000
   23    -11.03621    2.00000
   24    -10.96731    2.00000
   25    -10.88119    2.00000
   26    -10.72355    2.00000
   27    -10.25477    2.00000
   28    -10.10491    2.00000
   29     -9.55490    2.00000
   30     -9.38887    2.00000
   31     -9.22282    2.00000
   32     -9.02860    2.00000
   33     -8.93095    2.00000
   34     -8.77731    2.00000
   35     -8.54879    2.00000
   36     -8.18134    2.00000
   37     -7.86158    2.00000
   38     -7.75113    2.00000
   39     -7.21170    2.00000
   40     -6.65207    2.00000
   41     -6.01272    2.00000
   42     -5.56088    1.99959
   43     -5.42324    1.99839
   44     -5.29163    1.99401
   45     -5.22374    1.98822
   46     -5.04754    1.93331
   47     -4.96599    1.85534
   48     -4.50555    0.22752
   49     -4.07398    0.00342
   50     -3.78594    0.00019
   51     -2.79196    0.00000
   52     -2.23420    0.00000
   53     -1.94041    0.00000
   54     -1.81270    0.00000
   55     -1.76308    0.00000
   56     -1.40492    0.00000
   57     -0.76328    0.00000
   58     -0.13455    0.00000
   59      0.59083    0.00000
   60      1.16594    0.00000
   61      1.26326    0.00000
   62      2.08230    0.00000
   63      2.30798    0.00000
   64      2.73542    0.00000
   65      2.83904    0.00000
   66      3.09319    0.00000
   67      3.52312    0.00000
   68      3.71438    0.00000
   69      3.94939    0.00000
   70      4.80289    0.00000
   71      4.94812    0.00000
   72      5.38259    0.00000
   73      5.69616    0.00000
   74      6.12161    0.00000
   75      6.35518    0.00000
   76      6.55762    0.00000
   77      7.00774    0.00000
   78      7.32443    0.00000
   79      7.53659    0.00000
   80      7.75443    0.00000
   81      8.02741    0.00000
   82      8.38627    0.00000
   83      8.48452    0.00000
   84      8.74291    0.00000
   85      8.83119    0.00000
   86      8.91266    0.00000
   87      9.19538    0.00000
   88      9.33432    0.00000
   89      9.35859    0.00000
   90      9.42115    0.00000
   91      9.54668    0.00000
   92      9.77406    0.00000
   93      9.78437    0.00000
   94      9.91885    0.00000
   95      9.96860    0.00000
   96     10.17317    0.00000
   97     10.27009    0.00000


Forces in eV/Ang:
  0 C    -0.03117   -0.04684    0.03397
  1 C     0.01230    0.01535   -0.00505
  2 C    -0.00222    0.01353    0.00808
  3 C    -0.02106    0.01154    0.01184
  4 C    -0.02975   -0.03660   -0.00736
  5 C     0.04562    0.01058    0.01432
  6 C     0.00896    0.01283    0.05358
  7 C    -0.03363    0.02150    0.00818
  8 C     0.02224   -0.00075   -0.00738
  9 C    -0.00395    0.01620   -0.02392
 10 C     0.01817    0.00370    0.01630
 11 C    -0.01359   -0.00827   -0.01596
 12 C     0.00156   -0.07064   -0.06298
 13 C    -0.00520    0.03646   -0.04816
 14 C    -0.00200   -0.00794    0.00211
 15 C    -0.02047    0.02646    0.02171
 16 C     0.00718    0.00452   -0.02545
 17 C     0.00181    0.01006   -0.00649
 18 C     0.02496   -0.03319   -0.05605
 19 C     0.00551    0.03717    0.00841
 20 C     0.01221   -0.00995    0.01745
 21 C    -0.00073    0.00880    0.02184
 22 C    -0.01214   -0.03005    0.01845
 23 C     0.01719    0.01177    0.03509

