
  ___ ___ ___ _ _ _  
 |   |   |_  | | | | 
 | | | | | . | | | | 
 |__ |  _|___|_____|  1.3.0b1
 |___|_|             

User:   esb@s65n14.grendel.cscaa.dk
Date:   Thu Nov  9 09:19:02 2017
Arch:   x86_64
Pid:    29021
Python: 2.7.13
gpaw:   /home/esb/DFT/gpaw_git/gpaw
_gpaw:  /home/esb/DFT/gpaw_git/build/bin.linux-x86_64-2.7/gpaw-python
ase:    /home/esb/DFT/ase_git/ase (version 3.15.0b1)
numpy:  /comm/swstack/core/python/2.7.13/lib/python2.7/site-packages/numpy (version 1.13.3)
scipy:  /comm/swstack/core/python/2.7.13/lib/python2.7/site-packages/scipy (version 0.19.1)
units:  Angstrom and eV
cores:  16
Extra parameters: {'blacs': True}

Input parameters:
  basis: dzp
  gpts: [80 80 48]
  kpts: [1 1 1]
  maxiter: 99
  mixer: {backend: pulay,
          beta: 0.05,
          method: separate,
          nmaxold: 5,
          weight: 75}
  mode: lcao
  nbands: -50
  occupations: {name: fermi-dirac,
                width: 0.1}
  poissonsolver: {eps: 1e-07,
                  name: fd,
                  nn: 3,
                  relax: GS}
  xc: PBE

System changes: positions, numbers, cell, pbc, initial_charges, initial_magmoms 

Initialize ...

C-setup:
  name: Carbon
  id: 4aa54d4b901d75f77cc0ea3eec22967b
  Z: 6
  valence: 4
  core: 2
  charge: 0.0
  file: /home/esb/DFT/gpaw-setups-0.8.7929/C.PBE.gz
  cutoffs: 0.64(comp), 1.14(filt), 1.14(core), lmax=2
  valence states:
                energy  radius
    2s(2.00)   -13.751   0.635
    2p(2.00)    -5.284   0.635
    *s          13.461   0.635
    *p          21.927   0.635
    *d           0.000   0.635

  LCAO basis set for C:
    Name: dzp
    File: /home/esb/DFT/gpaw-setups-0.8.7929/C.dzp.basis.gz
    Number of radial functions: 5
    Number of spherical harmonics: 13
      l=0, rc=5.5469 Bohr: 2s-sz confined orbital
      l=1, rc=6.6719 Bohr: 2p-sz confined orbital
      l=0, rc=3.0312 Bohr: 2s-dz split-valence wave
      l=1, rc=3.7500 Bohr: 2p-dz split-valence wave
      l=2, rc=6.6719 Bohr: d-type Gaussian polarization

Reference energy: -24663.074771

Spin-paired calculation

Occupation numbers:
  Fermi-Dirac: width=0.1000 eV

Convergence criteria:
  Maximum total energy change: 0.0005 eV / electron
  Maximum integral of absolute density change: 0.0001 electrons
  Maximum integral of absolute eigenstate change: 4e-08 eV^2
  Maximum number of iterations: 99

Symmetries present (total): 1

  ( 1  0  0)
  ( 0  1  0)
  ( 0  0  1)

1 k-point (Gamma)
1 k-point in the irreducible part of the Brillouin zone
       k-points in crystal coordinates                weights
   0:     0.00000000    0.00000000    0.00000000          1/1

Wave functions: LCAO
  Diagonalizer: Serial LAPACK
  Atomic Correction: dense with blas
  Datatype: float
  Eigensolver: None 

LCAO using direct dense diagonalizer 

Densities:
  Coarse grid: 80*80*48 grid
  Fine grid: 160*160*96 grid
  Total Charge: 0.000000 

Density mixing:
  Method: separate
  Backend: pulay
  Linear mixing parameter: 0.05
  Mixing with 5 old densities
  Damping of long wave oscillations: 75 

Hamiltonian:
  XC and Coulomb potentials evaluated on a 160*160*96 grid
  Using the PBE Exchange-Correlation functional
  Interpolation: tri-quintic (5. degree polynomial)
  Poisson solver: Gauss-Seidel solver with 6 multi-grid levels
    Coarsest grid: 5 x 5 x 3 points
    Stencil: 6*3+1=19 point O(h^6) finite-difference Laplacian
    Max iterations: 1000
    Tolerance: 1.000000e-07 

Memory estimate:
  Process memory now: 77.57 MiB
  Calculator: 15.59 MiB
    Density: 6.13 MiB
      Arrays: 3.81 MiB
      Localized functions: 0.86 MiB
      Mixer: 1.46 MiB
    Hamiltonian: 5.40 MiB
      Arrays: 2.49 MiB
      XC: 0.00 MiB
      Poisson: 2.85 MiB
      vbar: 0.07 MiB
    Wavefunctions: 4.05 MiB
      C [qnM]: 0.23 MiB
      S, T [2 x qmm]: 1.49 MiB
      P [aqMi]: 0.01 MiB
      TCI: 0.00 MiB
      BasisFunctions: 2.33 MiB
      Eigensolver: 0.00 MiB

Total number of cores used: 16
Domain decomposition: 2 x 4 x 2

Number of atoms: 24
Number of atomic orbitals: 312
Number of bands in calculation: 98
Bands to converge: occupied states only
Number of valence electrons: 96

... initialized

Initializing position-dependent things.

Density initialized from atomic densities
           .--------------------------------------.  
          /|                                      |  
         / |                                      |  
        /  |                                      |  
       /   |                                      |  
      /    |                                      |  
     /     |                                      |  
    /      |                                      |  
   /       |                                      |  
  /        |            C                         |  
 *         |   C C   C     C C                    |  
 |         |  C C       C  C     C                |  
 |         .------C--C--CC--C-C--C----------------.  
 |        /             C   C                    /   
 |       /                   C                  /    
 |      /                                      /     
 |     /                                      /      
 |    /                                      /       
 |   /                                      /        
 |  /                                      /         
 | /                                      /          
 |/                                      /           
 *--------------------------------------*            

Positions:
   0 C      8.429532    5.376545    5.252974
   1 C      6.118183    8.265193    5.322122
   2 C     10.334750    4.483668    4.384499
   3 C      9.540594    5.382812    5.854151
   4 C      7.416336    7.588807    5.330246
   5 C      8.742426    8.055700    5.031690
   6 C      6.926071   10.479970    5.018803
   7 C     10.599348    9.365001    4.436524
   8 C     10.914834    8.132074    4.308480
   9 C      9.900048    7.178060    4.739915
  10 C      9.743938    5.767010    4.798098
  11 C      5.778881    9.686244    5.126591
  12 C      8.179097   10.388685    4.888688
  13 C      9.208450    9.466950    4.782842
  14 C      4.075351    9.228465    5.358003
  15 C      3.567884    8.089061    5.595037
  16 C      3.509808    6.783443    5.873978
  17 C      7.401878    7.872845    4.010417
  18 C      8.562908    4.459614    6.259982
  19 C      7.353857    4.115191    6.367381
  20 C      6.013438    4.129071    6.449256
  21 C      4.869990    4.668988    6.329971
  22 C      3.951991    5.618181    6.124947
  23 C      7.846957    6.713280    4.256454

Unit cell:
           periodic     x           y           z      points  spacing
  1. axis:    yes   16.000000    0.000000    0.000000    80     0.2000
  2. axis:    yes    0.000000   16.000000    0.000000    80     0.2000
  3. axis:    yes    0.000000    0.000000   10.000000    48     0.2083

Effective grid spacing dv^(1/3) = 0.2027

                     log10-error:    total        iterations:
           time      wfs    density  energy       fermi  poisson
iter:   1  09:19:04          +inf  -161.539614    2      6      
iter:   2  09:19:04         -0.90  -160.325087    4      3      
iter:   3  09:19:05         -0.94  -158.791186    33     3      
iter:   4  09:19:06         -1.01  -157.269299    33     3      
iter:   5  09:19:06         -1.18  -157.016269    3      3      
iter:   6  09:19:07         -1.27  -156.827090    34     3      
iter:   7  09:19:07         -1.47  -156.741653    4      3      
iter:   8  09:19:08         -1.68  -156.745220    3      3      
iter:   9  09:19:09         -1.79  -156.704212    3      3      
iter:  10  09:19:09         -1.94  -156.683582    3      2      
iter:  11  09:19:10         -2.11  -156.664300    3      3      
iter:  12  09:19:10         -2.46  -156.663657    2      2      
iter:  13  09:19:11         -2.56  -156.664755    3      2      
iter:  14  09:19:11         -2.88  -156.673637    2      1      
iter:  15  09:19:12         -2.99  -156.659423    2      1      
iter:  16  09:19:13         -3.10  -156.657783    2      2      
iter:  17  09:19:13         -3.40  -156.662787    2      1      
iter:  18  09:19:14         -3.51  -156.655966    2      1      
iter:  19  09:19:14         -3.63  -156.658010    2      1      
iter:  20  09:19:15         -3.66  -156.660196    2      1      
iter:  21  09:19:15         -3.76  -156.659320    2      1      
iter:  22  09:19:16         -3.86  -156.662038    2      1      
iter:  23  09:19:16         -4.14  -156.660159    2      1      

Converged after 23 iterations.

Dipole moment: (-0.148515, -0.247626, 0.355571) |e|*Ang

Energy contributions relative to reference atoms: (reference = -24663.074771)

Kinetic:       +185.060511
Potential:     -158.237848
External:        +0.000000
XC:            -186.393164
Entropy (-ST):   -0.282490
Local:           +3.051588
--------------------------
Free energy:   -156.801405
Extrapolated:  -156.660159

Fermi level: -4.01642

 Band  Eigenvalues  Occupancy
    0    -29.38054    2.00000
    1    -27.58269    2.00000
    2    -22.99577    2.00000
    3    -21.95478    2.00000
    4    -20.92558    2.00000
    5    -20.35419    2.00000
    6    -19.65193    2.00000
    7    -19.34025    2.00000
    8    -18.96070    2.00000
    9    -18.45695    2.00000
   10    -17.92895    2.00000
   11    -17.47421    2.00000
   12    -17.12135    2.00000
   13    -16.33886    2.00000
   14    -16.22321    2.00000
   15    -15.32232    2.00000
   16    -15.17143    2.00000
   17    -14.59277    2.00000
   18    -14.04859    2.00000
   19    -13.45358    2.00000
   20    -13.27663    2.00000
   21    -13.01200    2.00000
   22    -12.74776    2.00000
   23    -11.89856    2.00000
   24    -11.70241    2.00000
   25    -10.92647    2.00000
   26    -10.67596    2.00000
   27    -10.42649    2.00000
   28    -10.10487    2.00000
   29     -9.85640    2.00000
   30     -9.18336    2.00000
   31     -8.98675    2.00000
   32     -8.93221    2.00000
   33     -8.48303    2.00000
   34     -8.24606    2.00000
   35     -7.82921    2.00000
   36     -7.44888    2.00000
   37     -7.21578    2.00000
   38     -6.88002    2.00000
   39     -6.81185    2.00000
   40     -6.33924    2.00000
   41     -6.13413    2.00000
   42     -5.90001    2.00000
   43     -5.74071    2.00000
   44     -4.97094    1.99986
   45     -4.91667    1.99975
   46     -4.45558    1.97554
   47     -4.09542    1.37563
   48     -3.93449    0.61182
   49     -3.57591    0.02413
   50     -3.50150    0.01154
   51     -3.30927    0.00170
   52     -2.90247    0.00003
   53     -2.56580    0.00000
   54     -2.40724    0.00000
   55     -2.04779    0.00000
   56     -1.80501    0.00000
   57     -1.66687    0.00000
   58     -0.91931    0.00000
   59     -0.28698    0.00000
   60     -0.10970    0.00000
   61      0.24385    0.00000
   62      0.65746    0.00000
   63      1.00704    0.00000
   64      1.54052    0.00000
   65      2.09414    0.00000
   66      2.40061    0.00000
   67      2.48804    0.00000
   68      3.30561    0.00000
   69      3.41977    0.00000
   70      4.17386    0.00000
   71      4.40137    0.00000
   72      5.04752    0.00000
   73      5.22486    0.00000
   74      5.70461    0.00000
   75      5.90728    0.00000
   76      6.25959    0.00000
   77      6.71516    0.00000
   78      7.03021    0.00000
   79      7.41099    0.00000
   80      7.62503    0.00000
   81      7.98539    0.00000
   82      8.27055    0.00000
   83      8.31188    0.00000
   84      8.41168    0.00000
   85      8.65765    0.00000
   86      8.80756    0.00000
   87      8.93527    0.00000
   88      9.10269    0.00000
   89      9.26319    0.00000
   90      9.28357    0.00000
   91      9.38692    0.00000
   92      9.48654    0.00000
   93      9.63580    0.00000
   94      9.84509    0.00000
   95      9.92683    0.00000
   96     10.06324    0.00000
   97     10.17317    0.00000


Forces in eV/Ang:
  0 C   -11.49334    2.51863  -12.49820
  1 C     1.05002    1.04756   -1.51000
  2 C    -1.16178    1.14727   -0.56774
  3 C     3.98441   -8.19761   32.76821
  4 C    -2.52980    0.12008   10.76592
  5 C     1.35196    1.56309    0.42114
  6 C    -1.97143    0.07706    0.24654
  7 C    -1.67952    2.67969    0.51905
  8 C     0.05810   -4.08921    0.16933
  9 C     2.93258    2.61182   -1.78235
 10 C    11.69857    7.11836  -25.23785
 11 C    -2.90137   -3.62484    1.80906
 12 C     0.38618    0.71443   -0.23258
 13 C     0.74269    1.00820   -0.32638
 14 C     3.92491    2.79711   -0.56866
 15 C    -0.10296   -0.38619    0.16629
 16 C    -0.49000    0.18826   -0.06157
 17 C    -3.29850    9.00825  -10.60676
 18 C     2.00186   -1.43205    1.72965
 19 C    -6.02136   -2.55394    2.48452
 20 C     2.37125   -0.41679    0.14714
 21 C    -1.08680    0.74230   -0.24624
 22 C     0.33545   -0.51656    0.16546
 23 C     1.82930  -12.11774    2.34121

System changes: positions 

Initializing position-dependent things.

Density initialized from wave functions
           .--------------------------------------.  
          /|                                      |  
         / |                                      |  
        /  |                                      |  
       /   |                                      |  
      /    |                                      |  
     /     |                                      |  
    /      |                                      |  
   /       |                                      |  
  /        |            C                         |  
 *         |   C C   C     C C                    |  
 |         |  C C       C  C     C                |  
 |         .------C--C--CC--C-C--C----------------.  
 |        /             C   C                    /   
 |       /                   C                  /    
 |      /                                      /     
 |     /                                      /      
 |    /                                      /       
 |   /                                      /        
 |  /                                      /         
 | /                                      /          
 |/                                      /           
 *--------------------------------------*            

Positions:
   0 C      8.416015    5.379507    5.238276
   1 C      6.119418    8.266425    5.320346
   2 C     10.333383    4.485017    4.383831
   3 C      9.545280    5.373172    5.892688
   4 C      7.413361    7.588949    5.342907
   5 C      8.744016    8.057538    5.032185
   6 C      6.923753   10.480061    5.019093
   7 C     10.597372    9.368153    4.437135
   8 C     10.914903    8.127264    4.308680
   9 C      9.903497    7.181132    4.737819
  10 C      9.757696    5.775381    4.768417
  11 C      5.775469    9.681981    5.128718
  12 C      8.179551   10.389525    4.888415
  13 C      9.209323    9.468135    4.782458
  14 C      4.079967    9.231754    5.357334
  15 C      3.567763    8.088606    5.595232
  16 C      3.509232    6.783664    5.873906
  17 C      7.397999    7.883439    3.997943
  18 C      8.565262    4.457930    6.262016
  19 C      7.346775    4.112187    6.370303
  20 C      6.016227    4.128581    6.449429
  21 C      4.868712    4.669861    6.329681
  22 C      3.952386    5.617574    6.125142
  23 C      7.849108    6.699029    4.259208

Unit cell:
           periodic     x           y           z      points  spacing
  1. axis:    yes   16.000000    0.000000    0.000000    80     0.2000
  2. axis:    yes    0.000000   16.000000    0.000000    80     0.2000
  3. axis:    yes    0.000000    0.000000   10.000000    48     0.2083

Effective grid spacing dv^(1/3) = 0.2027

                     log10-error:    total        iterations:
           time      wfs    density  energy       fermi  poisson
iter:   1  09:19:18          +inf  -159.668272    3      5      
iter:   2  09:19:19         -2.18  -159.658514    2      2      
iter:   3  09:19:19         -2.25  -159.643654    2      2      
iter:   4  09:19:20         -2.44  -159.638188    2      2      
iter:   5  09:19:20         -2.63  -159.636461    2      2      
iter:   6  09:19:21         -2.73  -159.635779    2      2      
iter:   7  09:19:22         -3.01  -159.637551    2      1      
iter:   8  09:19:22         -3.12  -159.634141    2      2      
iter:   9  09:19:23         -3.40  -159.633194    2      1      
iter:  10  09:19:23         -3.56  -159.634345    2      1      
iter:  11  09:19:24         -3.74  -159.633227    2      1      
iter:  12  09:19:24         -3.87  -159.633523    2      1      
iter:  13  09:19:25         -3.95  -159.634970    2      1      
iter:  14  09:19:25         -4.28  -159.633795    1      1      

Converged after 14 iterations.

Dipole moment: (-0.177386, -0.233715, 0.338573) |e|*Ang

Energy contributions relative to reference atoms: (reference = -24663.074771)

Kinetic:       +167.314335
Potential:     -146.296389
External:        +0.000000
XC:            -183.475675
Entropy (-ST):   -0.271101
Local:           +2.959484
--------------------------
Free energy:   -159.769346
Extrapolated:  -159.633795

Fermi level: -4.05334

 Band  Eigenvalues  Occupancy
    0    -28.72382    2.00000
    1    -27.23145    2.00000
    2    -22.75753    2.00000
    3    -21.89456    2.00000
    4    -20.92056    2.00000
    5    -20.35828    2.00000
    6    -19.63794    2.00000
    7    -19.31771    2.00000
    8    -18.89395    2.00000
    9    -18.37113    2.00000
   10    -17.85561    2.00000
   11    -17.41199    2.00000
   12    -16.97967    2.00000
   13    -16.36877    2.00000
   14    -16.20054    2.00000
   15    -15.26993    2.00000
   16    -15.02011    2.00000
   17    -14.54984    2.00000
   18    -13.91574    2.00000
   19    -13.42275    2.00000
   20    -13.23400    2.00000
   21    -13.00571    2.00000
   22    -12.74933    2.00000
   23    -11.86458    2.00000
   24    -11.68172    2.00000
   25    -10.87188    2.00000
   26    -10.63748    2.00000
   27    -10.42900    2.00000
   28    -10.06910    2.00000
   29     -9.83834    2.00000
   30     -9.17888    2.00000
   31     -8.99941    2.00000
   32     -8.93071    2.00000
   33     -8.46490    2.00000
   34     -8.18684    2.00000
   35     -7.81708    2.00000
   36     -7.41514    2.00000
   37     -7.20511    2.00000
   38     -6.88875    2.00000
   39     -6.82258    2.00000
   40     -6.36144    2.00000
   41     -6.15978    2.00000
   42     -5.92941    2.00000
   43     -5.77559    2.00000
   44     -4.96821    1.99979
   45     -4.92410    1.99967
   46     -4.50855    1.97913
   47     -4.13621    1.39214
   48     -3.97061    0.60843
   49     -3.55100    0.01308
   50     -3.48586    0.00684
   51     -3.28318    0.00090
   52     -2.88109    0.00002
   53     -2.54229    0.00000
   54     -2.42429    0.00000
   55     -2.04413    0.00000
   56     -1.77674    0.00000
   57     -1.65047    0.00000
   58     -0.92917    0.00000
   59     -0.32893    0.00000
   60     -0.13690    0.00000
   61      0.25873    0.00000
   62      0.51585    0.00000
   63      0.98141    0.00000
   64      1.51947    0.00000
   65      2.08067    0.00000
   66      2.29956    0.00000
   67      2.41315    0.00000
   68      3.25705    0.00000
   69      3.35369    0.00000
   70      4.02244    0.00000
   71      4.44019    0.00000
   72      4.97335    0.00000
   73      5.17617    0.00000
   74      5.63810    0.00000
   75      5.94671    0.00000
   76      6.20761    0.00000
   77      6.67009    0.00000
   78      7.03178    0.00000
   79      7.42081    0.00000
   80      7.62982    0.00000
   81      7.94331    0.00000
   82      8.25157    0.00000
   83      8.29774    0.00000
   84      8.42797    0.00000
   85      8.61462    0.00000
   86      8.78901    0.00000
   87      8.89640    0.00000
   88      9.09028    0.00000
   89      9.24434    0.00000
   90      9.26509    0.00000
   91      9.36659    0.00000
   92      9.45789    0.00000
   93      9.59410    0.00000
   94      9.79363    0.00000
   95      9.88808    0.00000
   96     10.03504    0.00000
   97     10.15596    0.00000


Forces in eV/Ang:
  0 C    -8.47315    2.63139  -11.35248
  1 C     1.15246    0.99062   -1.55149
  2 C    -1.26625    1.33945   -0.40691
  3 C     3.95939   -4.76892   22.64375
  4 C    -2.20439    0.18885    9.10342
  5 C     0.96095    1.31460    0.35558
  6 C    -1.78524   -0.00409    0.21736
  7 C    -1.52258    2.26028    0.47438
  8 C     0.05159   -3.46271    0.13811
  9 C     2.91451    2.63941   -1.73078
 10 C     9.16599    3.44297  -16.37460
 11 C    -2.89847   -3.43452    1.80963
 12 C     0.10289    0.73945   -0.21340
 13 C     0.81240    1.07633   -0.29166
 14 C     3.80488    2.48086   -0.50751
 15 C     0.05387   -0.12938    0.13735
 16 C    -0.50457    0.22282   -0.08567
 17 C    -2.53603    6.94394   -8.99049
 18 C     0.77696   -1.61299    1.53202
 19 C    -4.82029   -2.33631    2.30792
 20 C     1.69158   -0.29958    0.15976
 21 C    -0.86077    0.58734   -0.22814
 22 C     0.31908   -0.46680    0.16896
 23 C     1.05108  -10.24506    2.71396

System changes: positions 

Initializing position-dependent things.

Density initialized from wave functions
           .--------------------------------------.  
          /|                                      |  
         / |                                      |  
        /  |                                      |  
       /   |                                      |  
      /    |                                      |  
     /     |                                      |  
    /      |                                      |  
   /       |                                      |  
  /        |            C                         |  
 *         |   C C   C     C C                    |  
 |         |  C C       C  C     C                |  
 |         .------C--C--CC--C-C--C----------------.  
 |        /             C   C                    /   
 |       /                   C                  /    
 |      /                                      /     
 |     /                                      /      
 |    /                                      /       
 |   /                                      /        
 |  /                                      /         
 | /                                      /          
 |/                                      /           
 *--------------------------------------*            

Positions:
   0 C      8.403294    5.390437    5.201962
   1 C      6.124558    8.269880    5.314067
   2 C     10.327790    4.491477    4.383325
   3 C      9.560433    5.377497    5.913044
   4 C      7.406993    7.590136    5.367086
   5 C      8.745137    8.060974    5.033125
   6 C      6.918082   10.479506    5.019740
   7 C     10.592524    9.374112    4.438673
   8 C     10.915059    8.118028    4.309007
   9 C      9.914654    7.191527    4.731465
  10 C      9.776337    5.764287    4.763940
  11 C      5.764273    9.669957    5.135724
  12 C      8.178068   10.392552    4.887716
  13 C      9.212929    9.472753    4.781560
  14 C      4.093892    9.239252    5.355777
  15 C      3.569014    8.089812    5.595571
  16 C      3.507183    6.784756    5.873414
  17 C      7.393252    7.896594    3.973894
  18 C      8.560131    4.450487    6.266631
  19 C      7.336103    4.104593    6.378060
  20 C      6.018257    4.128201    6.450131
  21 C      4.866883    4.671104    6.328919
  22 C      3.953512    5.616098    6.125819
  23 C      7.848005    6.671829    4.272185

Unit cell:
           periodic     x           y           z      points  spacing
  1. axis:    yes   16.000000    0.000000    0.000000    80     0.2000
  2. axis:    yes    0.000000   16.000000    0.000000    80     0.2000
  3. axis:    yes    0.000000    0.000000   10.000000    48     0.2083

Effective grid spacing dv^(1/3) = 0.2027

                     log10-error:    total        iterations:
           time      wfs    density  energy       fermi  poisson
iter:   1  09:19:27          +inf  -162.047758    3      5      
iter:   2  09:19:28         -1.92  -162.009161    2      2      
iter:   3  09:19:28         -2.04  -161.980673    2      2      
iter:   4  09:19:29         -2.18  -161.962757    2      2      
iter:   5  09:19:29         -2.36  -161.959336    3      2      
iter:   6  09:19:30         -2.58  -161.956465    2      2      
iter:   7  09:19:31         -2.81  -161.955787    2      2      
iter:   8  09:19:31         -3.01  -161.957138    2      1      
iter:   9  09:19:32         -3.10  -161.955360    2      2      
iter:  10  09:19:32         -3.36  -161.955977    2      1      
iter:  11  09:19:33         -3.47  -161.958100    2      1      
iter:  12  09:19:33         -3.47  -161.954268    2      1      
iter:  13  09:19:34         -3.73  -161.955088    2      1      
iter:  14  09:19:34         -3.93  -161.955323    2      1      
iter:  15  09:19:35         -4.15  -161.954885    2      1      

Converged after 15 iterations.

Dipole moment: (-0.221182, -0.196583, 0.321164) |e|*Ang

Energy contributions relative to reference atoms: (reference = -24663.074771)

Kinetic:       +151.408288
Potential:     -135.555415
External:        +0.000000
XC:            -180.614812
Entropy (-ST):   -0.253162
Local:           +2.933635
--------------------------
Free energy:   -162.081466
Extrapolated:  -161.954885

Fermi level: -4.11678

 Band  Eigenvalues  Occupancy
    0    -28.13161    2.00000
    1    -26.64438    2.00000
    2    -22.43995    2.00000
    3    -21.79747    2.00000
    4    -20.93232    2.00000
    5    -20.35401    2.00000
    6    -19.61019    2.00000
    7    -19.29123    2.00000
    8    -18.85118    2.00000
    9    -18.34043    2.00000
   10    -17.79313    2.00000
   11    -17.31711    2.00000
   12    -16.89356    2.00000
   13    -16.42402    2.00000
   14    -16.14780    2.00000
   15    -15.23746    2.00000
   16    -14.93999    2.00000
   17    -14.53054    2.00000
   18    -13.80742    2.00000
   19    -13.38208    2.00000
   20    -13.18624    2.00000
   21    -12.97751    2.00000
   22    -12.73205    2.00000
   23    -11.77773    2.00000
   24    -11.61582    2.00000
   25    -10.85999    2.00000
   26    -10.52460    2.00000
   27    -10.45324    2.00000
   28    -10.05140    2.00000
   29     -9.84696    2.00000
   30     -9.15793    2.00000
   31     -9.01413    2.00000
   32     -8.92818    2.00000
   33     -8.41356    2.00000
   34     -8.13976    2.00000
   35     -7.81393    2.00000
   36     -7.35467    2.00000
   37     -7.19590    2.00000
   38     -6.90891    2.00000
   39     -6.83657    2.00000
   40     -6.37981    2.00000
   41     -6.18928    2.00000
   42     -5.97177    2.00000
   43     -5.79680    2.00000
   44     -4.97873    1.99964
   45     -4.89560    1.99917
   46     -4.56097    1.97673
   47     -4.21874    1.46979
   48     -4.01869    0.54544
   49     -3.54629    0.00664
   50     -3.43554    0.00220
   51     -3.26333    0.00039
   52     -2.85715    0.00001
   53     -2.58488    0.00000
   54     -2.30707    0.00000
   55     -1.99506    0.00000
   56     -1.81144    0.00000
   57     -1.60086    0.00000
   58     -0.93979    0.00000
   59     -0.40354    0.00000
   60     -0.16427    0.00000
   61      0.28126    0.00000
   62      0.41460    0.00000
   63      0.95109    0.00000
   64      1.47621    0.00000
   65      2.08855    0.00000
   66      2.13773    0.00000
   67      2.36679    0.00000
   68      3.24083    0.00000
   69      3.35274    0.00000
   70      3.89666    0.00000
   71      4.44618    0.00000
   72      4.81251    0.00000
   73      5.11039    0.00000
   74      5.50293    0.00000
   75      5.87172    0.00000
   76      6.21303    0.00000
   77      6.63395    0.00000
   78      7.01785    0.00000
   79      7.41340    0.00000
   80      7.58959    0.00000
   81      7.80629    0.00000
   82      8.18816    0.00000
   83      8.35386    0.00000
   84      8.44108    0.00000
   85      8.57279    0.00000
   86      8.76289    0.00000
   87      8.86830    0.00000
   88      9.05211    0.00000
   89      9.21412    0.00000
   90      9.24738    0.00000
   91      9.33314    0.00000
   92      9.43987    0.00000
   93      9.51853    0.00000
   94      9.72503    0.00000
   95      9.84001    0.00000
   96     10.02880    0.00000
   97     10.10727    0.00000


Forces in eV/Ang:
  0 C    -5.95547    2.04052   -9.58564
  1 C     1.25040    0.87657   -1.56649
  2 C    -1.18969    0.75327   -0.59353
  3 C     1.71230   -4.28645   19.92655
  4 C    -1.75599    0.16284    6.57521
  5 C     0.55774    0.96536    0.19056
  6 C    -1.55249   -0.18779    0.16633
  7 C    -1.24611    1.61139    0.39987
  8 C     0.13116   -2.39675    0.12923
  9 C     2.52335    1.79997   -1.64739
 10 C     8.26237    3.71391  -14.31171
 11 C    -2.82935   -2.98939    1.75233
 12 C    -0.33451    0.75034   -0.18576
 13 C     0.77185    1.19440   -0.20709
 14 C     3.62012    1.88155   -0.38308
 15 C     0.37199    0.22624    0.08646
 16 C    -0.51129    0.30418   -0.12182
 17 C    -1.32753    4.08592   -6.59622
 18 C     0.68176   -0.36857    0.23511
 19 C    -3.75364   -2.21517    2.24366
 20 C     0.94874   -0.20369    0.18396
 21 C    -0.70050    0.41365   -0.19692
 22 C     0.26321   -0.27481    0.13570
 23 C     0.06172   -7.82088    3.41445

System changes: positions 

Initializing position-dependent things.

Density initialized from wave functions
           .--------------------------------------.  
          /|                                      |  
         / |                                      |  
        /  |                                      |  
       /   |                                      |  
      /    |                                      |  
     /     |                                      |  
    /      |                                      |  
   /       |                                      |  
  /        |            C                         |  
 *         |   C C   C     C C                    |  
 |         |  C C       C  C     C                |  
 |         .------C--C--CC--C-C--C----------------.  
 |        /             C   C                    /   
 |       /                   C                  /    
 |      /                                      /     
 |     /                                      /      
 |    /                                      /       
 |   /                                      /        
 |  /                                      /         
 | /                                      /          
 |/                                      /           
 *--------------------------------------*            

Positions:
   0 C      8.402460    5.400261    5.163196
   1 C      6.132959    8.273991    5.304669
   2 C     10.320536    4.494475    4.380195
   3 C      9.559662    5.379753    5.942263
   4 C      7.401305    7.591449    5.381230
   5 C      8.743656    8.063121    5.032983
   6 C      6.911560   10.476983    5.020251
   7 C     10.587760    9.377356    4.440309
   8 C     10.916139    8.113692    4.309485
   9 C      9.927247    7.198193    4.722730
  10 C      9.801496    5.760459    4.754946
  11 C      5.748308    9.656171    5.145562
  12 C      8.172061   10.397108    4.886913
  13 C      9.217692    9.480678    4.781010
  14 C      4.113032    9.245028    5.354589
  15 C      3.573769    8.094623    5.595624
  16 C      3.504099    6.787137    5.872370
  17 C      7.396723    7.891958    3.958671
  18 C      8.554788    4.452851    6.260524
  19 C      7.328092    4.093958    6.389420
  20 C      6.015368    4.128318    6.451395
  21 C      4.865221    4.671563    6.328060
  22 C      3.954651    5.615767    6.126472
  23 C      7.838145    6.651536    4.297813

Unit cell:
           periodic     x           y           z      points  spacing
  1. axis:    yes   16.000000    0.000000    0.000000    80     0.2000
  2. axis:    yes    0.000000   16.000000    0.000000    80     0.2000
  3. axis:    yes    0.000000    0.000000   10.000000    48     0.2083

Effective grid spacing dv^(1/3) = 0.2027

                     log10-error:    total        iterations:
           time      wfs    density  energy       fermi  poisson
iter:   1  09:19:37          +inf  -164.050432    3      5      
iter:   2  09:19:37         -1.92  -164.007428    2      2      
iter:   3  09:19:38         -2.05  -163.981153    2      2      
iter:   4  09:19:38         -2.19  -163.962618    3      2      
iter:   5  09:19:39         -2.41  -163.959879    2      2      
iter:   6  09:19:40         -2.63  -163.958390    2      2      
iter:   7  09:19:40         -2.82  -163.957645    2      2      
iter:   8  09:19:41         -3.06  -163.957943    2      2      
iter:   9  09:19:41         -3.35  -163.958978    2      1      
iter:  10  09:19:42         -3.44  -163.959154    2      1      
iter:  11  09:19:42         -3.55  -163.958685    2      1      
iter:  12  09:19:43         -3.75  -163.959087    2      1      
iter:  13  09:19:43         -4.03  -163.957859    2      1      

Converged after 13 iterations.

Dipole moment: (-0.245236, -0.168092, 0.297018) |e|*Ang

Energy contributions relative to reference atoms: (reference = -24663.074771)

Kinetic:       +141.519734
Potential:     -129.173340
External:        +0.000000
XC:            -179.119117
Entropy (-ST):   -0.236443
Local:           +2.933086
--------------------------
Free energy:   -164.076080
Extrapolated:  -163.957859

Fermi level: -4.15730

 Band  Eigenvalues  Occupancy
    0    -27.66303    2.00000
    1    -26.34778    2.00000
    2    -22.24384    2.00000
    3    -21.64237    2.00000
    4    -20.95114    2.00000
    5    -20.34615    2.00000
    6    -19.59316    2.00000
    7    -19.27782    2.00000
    8    -18.81431    2.00000
    9    -18.30410    2.00000
   10    -17.75033    2.00000
   11    -17.28258    2.00000
   12    -16.83526    2.00000
   13    -16.48904    2.00000
   14    -16.09888    2.00000
   15    -15.23518    2.00000
   16    -14.87057    2.00000
   17    -14.47734    2.00000
   18    -13.74893    2.00000
   19    -13.34807    2.00000
   20    -13.16128    2.00000
   21    -12.94420    2.00000
   22    -12.68539    2.00000
   23    -11.76239    2.00000
   24    -11.53205    2.00000
   25    -10.89992    2.00000
   26    -10.61342    2.00000
   27    -10.34338    2.00000
   28    -10.03235    2.00000
   29     -9.83082    2.00000
   30     -9.18735    2.00000
   31     -9.02026    2.00000
   32     -8.92223    2.00000
   33     -8.37490    2.00000
   34     -8.10605    2.00000
   35     -7.81529    2.00000
   36     -7.31754    2.00000
   37     -7.18981    2.00000
   38     -6.92280    2.00000
   39     -6.84289    2.00000
   40     -6.38826    2.00000
   41     -6.23406    2.00000
   42     -5.98847    2.00000
   43     -5.80227    2.00000
   44     -5.02997    1.99968
   45     -4.88390    1.99860
   46     -4.61305    1.97924
   47     -4.27641    1.53389
   48     -4.04276    0.48267
   49     -3.56094    0.00513
   50     -3.35016    0.00062
   51     -3.21702    0.00016
   52     -2.82884    0.00000
   53     -2.60696    0.00000
   54     -2.19313    0.00000
   55     -1.89142    0.00000
   56     -1.81282    0.00000
   57     -1.40343    0.00000
   58     -0.94219    0.00000
   59     -0.41192    0.00000
   60     -0.16533    0.00000
   61      0.29203    0.00000
   62      0.39012    0.00000
   63      0.95665    0.00000
   64      1.54693    0.00000
   65      2.04042    0.00000
   66      2.16715    0.00000
   67      2.34051    0.00000
   68      3.22103    0.00000
   69      3.34881    0.00000
   70      3.90849    0.00000
   71      4.53522    0.00000
   72      4.69136    0.00000
   73      5.09052    0.00000
   74      5.44360    0.00000
   75      5.82307    0.00000
   76      6.24372    0.00000
   77      6.69116    0.00000
   78      7.01101    0.00000
   79      7.39340    0.00000
   80      7.51204    0.00000
   81      7.78826    0.00000
   82      8.16928    0.00000
   83      8.37796    0.00000
   84      8.43352    0.00000
   85      8.58918    0.00000
   86      8.76314    0.00000
   87      8.87551    0.00000
   88      9.04432    0.00000
   89      9.19384    0.00000
   90      9.25900    0.00000
   91      9.31744    0.00000
   92      9.43045    0.00000
   93      9.48728    0.00000
   94      9.71244    0.00000
   95      9.81250    0.00000
   96     10.01588    0.00000
   97     10.08570    0.00000


Forces in eV/Ang:
  0 C    -4.50693    1.79920   -8.64513
  1 C     1.23554    0.78835   -1.45142
  2 C    -1.05485    0.31320   -0.68264
  3 C     1.25938   -2.98643   15.92065
  4 C    -1.64535    0.09743    5.49593
  5 C     0.56117    0.76370   -0.04292
  6 C    -1.61247   -0.37012    0.13887
  7 C    -1.05228    1.32411    0.39293
  8 C     0.24930   -1.71927    0.07276
  9 C     2.19410    1.42335   -1.50168
 10 C     7.08004    3.18414  -10.72745
 11 C    -2.59330   -2.50207    1.56976
 12 C    -0.43394    0.64936   -0.19160
 13 C     0.55468    1.20849   -0.15719
 14 C     3.43423    1.52588   -0.28807
 15 C     0.56143    0.23329    0.09802
 16 C    -0.47093    0.40304   -0.15342
 17 C    -0.63061    2.92265   -5.67643
 18 C    -0.14847   -0.15726   -0.27537
 19 C    -2.83682   -2.00715    2.11031
 20 C     0.89772   -0.22314    0.19460
 21 C    -0.86111    0.40007   -0.19115
 22 C     0.19741   -0.03042    0.08639
 23 C    -0.37770   -6.96007    3.88715

System changes: positions 

Initializing position-dependent things.

Density initialized from wave functions
           .--------------------------------------.  
          /|                                      |  
         / |                                      |  
        /  |                                      |  
       /   |                                      |  
      /    |                                      |  
     /     |                                      |  
    /      |                                      |  
   /       |                                      |  
  /        |            C                         |  
 *         |   C C   C     C C                    |  
 |         |  C C       C  CC    C                |  
 |         .------C--C--CC----C--C----------------.  
 |        /             C    C                   /   
 |       /                   C                  /    
 |      /                                      /     
 |     /                                      /      
 |    /                                      /       
 |   /                                      /        
 |  /                                      /         
 | /                                      /          
 |/                                      /           
 *--------------------------------------*            

Positions:
   0 C      8.403802    5.409123    5.124447
   1 C      6.141493    8.277898    5.295812
   2 C     10.314254    4.493446    4.375668
   3 C      9.558134    5.385453    5.965248
   4 C      7.394498    7.592011    5.394499
   5 C      8.743989    8.064643    5.030764
   6 C      6.902781   10.472806    5.020689
   7 C     10.583699    9.380204    4.442293
   8 C     10.918487    8.112543    4.309497
   9 C      9.938181    7.202835    4.714473
  10 C      9.825198    5.760825    4.754399
  11 C      5.733312    9.645058    5.154415
  12 C      8.166062   10.400884    4.885861
  13 C      9.220381    9.489073    4.780697
  14 C      4.132615    9.249493    5.353920
  15 C      3.579989    8.098531    5.595990
  16 C      3.501228    6.790572    5.871020
  17 C      7.403651    7.885583    3.942860
  18 C      8.543625    4.455957    6.251257
  19 C      7.323853    4.083747    6.401016
  20 C      6.015056    4.127705    6.452811
  21 C      4.860668    4.672700    6.327072
  22 C      3.955326    5.617583    6.126695
  23 C      7.826698    6.628717    4.328607

Unit cell:
           periodic     x           y           z      points  spacing
  1. axis:    yes   16.000000    0.000000    0.000000    80     0.2000
  2. axis:    yes    0.000000   16.000000    0.000000    80     0.2000
  3. axis:    yes    0.000000    0.000000   10.000000    48     0.2083

Effective grid spacing dv^(1/3) = 0.2027

                     log10-error:    total        iterations:
           time      wfs    density  energy       fermi  poisson
iter:   1  09:19:45          +inf  -165.626294    2      5      
iter:   2  09:19:46         -1.97  -165.586898    2      2      
iter:   3  09:19:46         -2.10  -165.565174    2      2      
iter:   4  09:19:47         -2.23  -165.548333    3      2      
iter:   5  09:19:47         -2.46  -165.545941    2      2      
iter:   6  09:19:48         -2.68  -165.545019    2      2      
iter:   7  09:19:49         -2.83  -165.544188    2      2      
iter:   8  09:19:49         -3.14  -165.545904    2      1      
iter:   9  09:19:50         -3.30  -165.546740    2      1      
iter:  10  09:19:50         -3.49  -165.545750    2      1      
iter:  11  09:19:51         -3.62  -165.545535    2      1      
iter:  12  09:19:51         -3.76  -165.544910    2      1      
iter:  13  09:19:52         -3.87  -165.544963    2      1      
iter:  14  09:19:52         -4.04  -165.544953    2      1      

Converged after 14 iterations.

Dipole moment: (-0.257718, -0.138454, 0.279650) |e|*Ang

Energy contributions relative to reference atoms: (reference = -24663.074771)

Kinetic:       +134.380064
Potential:     -124.728174
External:        +0.000000
XC:            -178.037928
Entropy (-ST):   -0.211597
Local:           +2.946884
--------------------------
Free energy:   -165.650752
Extrapolated:  -165.544953

Fermi level: -4.19417

 Band  Eigenvalues  Occupancy
    0    -27.27720    2.00000
    1    -26.03505    2.00000
    2    -22.12194    2.00000
    3    -21.48268    2.00000
    4    -20.98309    2.00000
    5    -20.33325    2.00000
    6    -19.56906    2.00000
    7    -19.27864    2.00000
    8    -18.78698    2.00000
    9    -18.27506    2.00000
   10    -17.72831    2.00000
   11    -17.25763    2.00000
   12    -16.77889    2.00000
   13    -16.52996    2.00000
   14    -16.06795    2.00000
   15    -15.22023    2.00000
   16    -14.80419    2.00000
   17    -14.45012    2.00000
   18    -13.70614    2.00000
   19    -13.31013    2.00000
   20    -13.14519    2.00000
   21    -12.91470    2.00000
   22    -12.62540    2.00000
   23    -11.76305    2.00000
   24    -11.46048    2.00000
   25    -10.99310    2.00000
   26    -10.63981    2.00000
   27    -10.24935    2.00000
   28     -9.99667    2.00000
   29     -9.80675    2.00000
   30     -9.21324    2.00000
   31     -9.01934    2.00000
   32     -8.91149    2.00000
   33     -8.32399    2.00000
   34     -8.08211    2.00000
   35     -7.80495    2.00000
   36     -7.30006    2.00000
   37     -7.17143    2.00000
   38     -6.93809    2.00000
   39     -6.84517    2.00000
   40     -6.38798    2.00000
   41     -6.27616    2.00000
   42     -5.99837    2.00000
   43     -5.80498    2.00000
   44     -5.07704    1.99971
   45     -4.88047    1.99791
   46     -4.65404    1.98007
   47     -4.34127    1.62641
   48     -4.05284    0.39141
   49     -3.57782    0.00420
   50     -3.28144    0.00022
   51     -3.16774    0.00007
   52     -2.80584    0.00000
   53     -2.62583    0.00000
   54     -2.13760    0.00000
   55     -1.82035    0.00000
   56     -1.81531    0.00000
   57     -1.18057    0.00000
   58     -0.85826    0.00000
   59     -0.39808    0.00000
   60     -0.15607    0.00000
   61      0.29373    0.00000
   62      0.40372    0.00000
   63      0.98967    0.00000
   64      1.63299    0.00000
   65      1.92065    0.00000
   66      2.25440    0.00000
   67      2.33799    0.00000
   68      3.22216    0.00000
   69      3.33105    0.00000
   70      3.96939    0.00000
   71      4.58612    0.00000
   72      4.60755    0.00000
   73      5.08277    0.00000
   74      5.40178    0.00000
   75      5.80528    0.00000
   76      6.24661    0.00000
   77      6.78016    0.00000
   78      7.01550    0.00000
   79      7.34801    0.00000
   80      7.44300    0.00000
   81      7.82918    0.00000
   82      8.15930    0.00000
   83      8.34714    0.00000
   84      8.45387    0.00000
   85      8.62274    0.00000
   86      8.76219    0.00000
   87      8.88735    0.00000
   88      9.03116    0.00000
   89      9.18781    0.00000
   90      9.26704    0.00000
   91      9.31012    0.00000
   92      9.41647    0.00000
   93      9.45781    0.00000
   94      9.71231    0.00000
   95      9.79969    0.00000
   96      9.98321    0.00000
   97     10.08994    0.00000


Forces in eV/Ang:
  0 C    -3.42773    1.47458   -7.75765
  1 C     1.22029    0.69910   -1.36427
  2 C    -0.98279    0.10332   -0.67098
  3 C     0.71396   -2.51728   13.47445
  4 C    -1.46231    0.00888    4.66156
  5 C     0.45647    0.57292   -0.25172
  6 C    -1.47711   -0.47283    0.10652
  7 C    -0.89956    1.12559    0.36963
  8 C     0.32232   -1.19644    0.03583
  9 C     1.91318    1.28994   -1.36964
 10 C     6.24057    2.85209   -8.63949
 11 C    -2.45049   -2.10783    1.43503
 12 C    -0.63620    0.59776   -0.17903
 13 C     0.41457    1.20055   -0.08399
 14 C     3.21488    1.23353   -0.22558
 15 C     0.72554    0.26882    0.09739
 16 C    -0.46834    0.51095   -0.17854
 17 C     0.02254    1.87075   -4.76043
 18 C    -0.14183    0.24052   -0.75689
 19 C    -2.59296   -1.99684    2.09352
 20 C     0.54253   -0.07573    0.15892
 21 C    -0.64017    0.20386   -0.13721
 22 C     0.16252    0.10729    0.05272
 23 C    -0.84423   -5.92815    3.86696

System changes: positions 

Initializing position-dependent things.

Density initialized from wave functions
           .--------------------------------------.  
          /|                                      |  
         / |                                      |  
        /  |                                      |  
       /   |                                      |  
      /    |                                      |  
     /     |                                      |  
    /      |                                      |  
   /       |                                      |  
  /        |            C                         |  
 *         |   C C   C     C C                    |  
 |         |  C C       C  CC    C                |  
 |         .------C--C--CC----C--C----------------.  
 |        /             CC   C                   /   
 |       /                   C                  /    
 |      /                                      /     
 |     /                                      /      
 |    /                                      /       
 |   /                                      /        
 |  /                                      /         
 | /                                      /          
 |/                                      /           
 *--------------------------------------*            

Positions:
   0 C      8.407272    5.416187    5.086433
   1 C      6.150377    8.281527    5.287041
   2 C     10.308008    4.491336    4.371127
   3 C      9.554614    5.389523    5.986420
   4 C      7.387842    7.591610    5.407546
   5 C      8.744308    8.065297    5.026577
   6 C      6.894269   10.467739    5.020954
   7 C     10.580060    9.383144    4.444388
   8 C     10.921609    8.113711    4.309218
   9 C      9.948045    7.208442    4.706556
  10 C      9.848110    5.762650    4.757087
  11 C      5.718059    9.635769    5.162904
  12 C      8.158340   10.404523    4.884799
  13 C      9.221985    9.497851    4.780964
  14 C      4.152224    9.252948    5.353474
  15 C      3.587698    8.102258    5.596492
  16 C      3.498068    6.795292    5.869387
  17 C      7.414808    7.875698    3.928631
  18 C      8.534860    4.461905    6.238690
  19 C      7.316959    4.071775    6.414129
  20 C      6.012677    4.128558    6.453843
  21 C      4.858108    4.672072    6.326562
  22 C      3.955881    5.620406    6.126671
  23 C      7.812036    6.607941    4.359484

Unit cell:
           periodic     x           y           z      points  spacing
  1. axis:    yes   16.000000    0.000000    0.000000    80     0.2000
  2. axis:    yes    0.000000   16.000000    0.000000    80     0.2000
  3. axis:    yes    0.000000    0.000000   10.000000    48     0.2083

Effective grid spacing dv^(1/3) = 0.2027

                     log10-error:    total        iterations:
           time      wfs    density  energy       fermi  poisson
iter:   1  09:19:54          +inf  -166.971838    2      5      
iter:   2  09:19:55         -2.00  -166.934797    2      2      
iter:   3  09:19:55         -2.14  -166.916257    2      2      
iter:   4  09:19:56         -2.26  -166.902065    2      2      
iter:   5  09:19:56         -2.49  -166.900266    2      2      
iter:   6  09:19:57         -2.69  -166.899444    2      2      
iter:   7  09:19:57         -2.84  -166.898475    2      2      
iter:   8  09:19:58         -3.14  -166.900321    2      1      
iter:   9  09:19:59         -3.35  -166.900357    2      1      
iter:  10  09:19:59         -3.49  -166.900196    2      1      
iter:  11  09:20:00         -3.65  -166.900072    2      1      
iter:  12  09:20:00         -3.79  -166.899156    2      1      
iter:  13  09:20:01         -3.87  -166.899435    2      1      
iter:  14  09:20:01         -4.02  -166.899324    2      1      

Converged after 14 iterations.

Dipole moment: (-0.254704, -0.118856, 0.266322) |e|*Ang

Energy contributions relative to reference atoms: (reference = -24663.074771)

Kinetic:       +129.217373
Potential:     -121.668292
External:        +0.000000
XC:            -177.294296
Entropy (-ST):   -0.186288
Local:           +2.939035
--------------------------
Free energy:   -166.992468
Extrapolated:  -166.899324

Fermi level: -4.21823

 Band  Eigenvalues  Occupancy
    0    -26.96706    2.00000
    1    -25.76671    2.00000
    2    -22.03324    2.00000
    3    -21.32591    2.00000
    4    -21.00358    2.00000
    5    -20.31780    2.00000
    6    -19.55547    2.00000
    7    -19.27133    2.00000
    8    -18.76543    2.00000
    9    -18.24797    2.00000
   10    -17.71412    2.00000
   11    -17.24860    2.00000
   12    -16.72599    2.00000
   13    -16.54734    2.00000
   14    -16.02691    2.00000
   15    -15.20314    2.00000
   16    -14.74945    2.00000
   17    -14.41740    2.00000
   18    -13.67771    2.00000
   19    -13.28015    2.00000
   20    -13.12754    2.00000
   21    -12.87694    2.00000
   22    -12.55908    2.00000
   23    -11.79527    2.00000
   24    -11.39420    2.00000
   25    -11.10119    2.00000
   26    -10.62674    2.00000
   27    -10.17194    2.00000
   28     -9.95864    2.00000
   29     -9.78062    2.00000
   30     -9.23250    2.00000
   31     -9.01488    2.00000
   32     -8.89822    2.00000
   33     -8.27850    2.00000
   34     -8.06470    2.00000
   35     -7.79888    2.00000
   36     -7.29568    2.00000
   37     -7.15040    2.00000
   38     -6.95009    2.00000
   39     -6.85112    2.00000
   40     -6.37711    2.00000
   41     -6.31434    2.00000
   42     -6.00120    2.00000
   43     -5.80494    2.00000
   44     -5.13827    1.99980
   45     -4.88282    1.99740
   46     -4.68233    1.98089
   47     -4.39368    1.70504
   48     -4.04978    0.31299
   49     -3.59019    0.00374
   50     -3.23717    0.00011
   51     -3.11104    0.00003
   52     -2.79227    0.00000
   53     -2.62640    0.00000
   54     -2.12404    0.00000
   55     -1.80228    0.00000
   56     -1.77953    0.00000
   57     -1.09966    0.00000
   58     -0.62477    0.00000
   59     -0.36273    0.00000
   60     -0.16225    0.00000
   61      0.30118    0.00000
   62      0.44301    0.00000
   63      1.04508    0.00000
   64      1.73000    0.00000
   65      1.79994    0.00000
   66      2.30905    0.00000
   67      2.40077    0.00000
   68      3.25038    0.00000
   69      3.33267    0.00000
   70      4.06966    0.00000
   71      4.52501    0.00000
   72      4.64536    0.00000
   73      5.08975    0.00000
   74      5.38486    0.00000
   75      5.76945    0.00000
   76      6.23342    0.00000
   77      6.84680    0.00000
   78      7.02963    0.00000
   79      7.30785    0.00000
   80      7.41450    0.00000
   81      7.89447    0.00000
   82      8.16717    0.00000
   83      8.32119    0.00000
   84      8.46750    0.00000
   85      8.64224    0.00000
   86      8.75964    0.00000
   87      8.91822    0.00000
   88      9.01527    0.00000
   89      9.19725    0.00000
   90      9.26642    0.00000
   91      9.31575    0.00000
   92      9.40313    0.00000
   93      9.46364    0.00000
   94      9.71805    0.00000
   95      9.80183    0.00000
   96      9.94081    0.00000
   97     10.10283    0.00000


Forces in eV/Ang:
  0 C    -2.53007    1.00364   -6.77266
  1 C     1.18168    0.63609   -1.27775
  2 C    -0.95782   -0.01880   -0.64160
  3 C     0.49293   -2.13547   11.48824
  4 C    -1.27605   -0.08818    4.01429
  5 C     0.33749    0.46047   -0.45026
  6 C    -1.46305   -0.52825    0.08696
  7 C    -0.81806    0.98301    0.37083
  8 C     0.37502   -0.77867   -0.00400
  9 C     1.70376    1.14454   -1.26952
 10 C     5.45681    2.63733   -6.96675
 11 C    -2.15267   -1.76804    1.27025
 12 C    -0.65412    0.52245   -0.17506
 13 C     0.28125    1.18729   -0.02440
 14 C     2.95241    1.02026   -0.15515
 15 C     0.85929    0.30597    0.09264
 16 C    -0.44363    0.50679   -0.17486
 17 C     0.50529    1.10598   -3.97969
 18 C    -0.63539    0.27461   -0.98117
 19 C    -1.86831   -1.82023    1.95981
 20 C     0.52219   -0.06562    0.14754
 21 C    -0.89692    0.31549   -0.14833
 22 C     0.24045    0.13007    0.03946
 23 C    -1.23555   -5.01501    3.63375

System changes: positions 

Initializing position-dependent things.

Density initialized from wave functions
           .--------------------------------------.  
          /|                                      |  
         / |                                      |  
        /  |                                      |  
       /   |                                      |  
      /    |                                      |  
     /     |                                      |  
    /      |                                      |  
   /       |                                      |  
  /        |            C                         |  
 *         |   C C   C     C C                    |  
 |         |  C C       C  CC    C                |  
 |         .------C--C--CC----C--C----------------.  
 |        /             CC   C                   /   
 |       /                   C                  /    
 |      /                                      /     
 |     /                                      /      
 |    /                                      /       
 |   /                                      /        
 |  /                                      /         
 | /                                      /          
 |/                                      /           
 *--------------------------------------*            

Positions:
   0 C      8.413019    5.419482    5.050305
   1 C      6.159745    8.285280    5.277988
   2 C     10.300957    4.488879    4.366549
   3 C      9.551882    5.392299    6.008011
   4 C      7.381462    7.590112    5.421364
   5 C      8.744106    8.065849    5.020243
   6 C      6.884263   10.462048    5.021182
   7 C     10.575982    9.386518    4.446946
   8 C     10.925423    8.116715    4.308579
   9 C      9.957910    7.214577    4.698317
  10 C      9.870576    5.766672    4.761583
  11 C      5.704033    9.627576    5.170926
  12 C      8.150663   10.407864    4.883590
  13 C      9.222627    9.507385    4.781709
  14 C      4.171930    9.256105    5.353436
  15 C      3.597057    8.106247    5.597062
  16 C      3.494777    6.800087    5.867751
  17 C      7.429384    7.863370    3.915524
  18 C      8.521112    4.466850    6.224840
  19 C      7.314456    4.059884    6.427664
  20 C      6.011918    4.129195    6.454869
  21 C      4.851307    4.673549    6.325682
  22 C      3.957776    5.622993    6.126644
  23 C      7.793730    6.588780    4.389446

Unit cell:
           periodic     x           y           z      points  spacing
  1. axis:    yes   16.000000    0.000000    0.000000    80     0.2000
  2. axis:    yes    0.000000   16.000000    0.000000    80     0.2000
  3. axis:    yes    0.000000    0.000000   10.000000    48     0.2083

Effective grid spacing dv^(1/3) = 0.2027

                     log10-error:    total        iterations:
           time      wfs    density  energy       fermi  poisson
iter:   1  09:20:03          +inf  -168.149567    2      5      
iter:   2  09:20:04         -2.04  -168.118615    2      2      
iter:   3  09:20:04         -2.17  -168.102427    2      2      
iter:   4  09:20:05         -2.29  -168.091352    2      2      
iter:   5  09:20:05         -2.51  -168.089943    2      2      
iter:   6  09:20:06         -2.70  -168.089109    2      2      
iter:   7  09:20:06         -2.87  -168.088131    2      2      
iter:   8  09:20:07         -3.15  -168.089189    2      1      
iter:   9  09:20:07         -3.30  -168.090407    2      1      
iter:  10  09:20:08         -3.51  -168.089858    2      1      
iter:  11  09:20:09         -3.64  -168.089916    2      1      
iter:  12  09:20:09         -3.82  -168.088933    2      1      
iter:  13  09:20:10         -3.89  -168.088919    2      1      
iter:  14  09:20:10         -4.03  -168.088923    2      1      

Converged after 14 iterations.

Dipole moment: (-0.245824, -0.099534, 0.251865) |e|*Ang

Energy contributions relative to reference atoms: (reference = -24663.074771)

Kinetic:       +125.009265
Potential:     -119.281378
External:        +0.000000
XC:            -176.676304
Entropy (-ST):   -0.163435
Local:           +2.941213
--------------------------
Free energy:   -168.170640
Extrapolated:  -168.088923

Fermi level: -4.23663

 Band  Eigenvalues  Occupancy
    0    -26.67001    2.00000
    1    -25.51963    2.00000
    2    -21.96990    2.00000
    3    -21.22914    2.00000
    4    -21.00526    2.00000
    5    -20.29845    2.00000
    6    -19.53211    2.00000
    7    -19.26188    2.00000
    8    -18.73613    2.00000
    9    -18.22645    2.00000
   10    -17.71116    2.00000
   11    -17.23523    2.00000
   12    -16.66916    2.00000
   13    -16.55003    2.00000
   14    -16.00290    2.00000
   15    -15.17316    2.00000
   16    -14.69042    2.00000
   17    -14.39375    2.00000
   18    -13.65073    2.00000
   19    -13.24990    2.00000
   20    -13.11123    2.00000
   21    -12.84070    2.00000
   22    -12.48622    2.00000
   23    -11.83951    2.00000
   24    -11.34564    2.00000
   25    -11.19869    2.00000
   26    -10.60352    2.00000
   27    -10.11088    2.00000
   28     -9.92500    2.00000
   29     -9.75870    2.00000
   30     -9.24832    2.00000
   31     -9.00723    2.00000
   32     -8.88444    2.00000
   33     -8.23703    2.00000
   34     -8.03489    2.00000
   35     -7.78030    2.00000
   36     -7.29635    2.00000
   37     -7.13234    2.00000
   38     -6.96219    2.00000
   39     -6.85841    2.00000
   40     -6.38257    2.00000
   41     -6.33694    2.00000
   42     -6.00470    2.00000
   43     -5.80468    2.00000
   44     -5.20742    1.99988
   45     -4.89599    1.99727
   46     -4.70403    1.98150
   47     -4.43854    1.76557
   48     -4.04304    0.25220
   49     -3.60217    0.00351
   50     -3.20845    0.00007
   51     -3.05479    0.00001
   52     -2.79344    0.00000
   53     -2.61597    0.00000
   54     -2.12464    0.00000
   55     -1.79352    0.00000
   56     -1.75715    0.00000
   57     -1.08818    0.00000
   58     -0.46981    0.00000
   59     -0.22173    0.00000
   60     -0.15620    0.00000
   61      0.29730    0.00000
   62      0.49829    0.00000
   63      1.12396    0.00000
   64      1.63950    0.00000
   65      1.85949    0.00000
   66      2.33376    0.00000
   67      2.51056    0.00000
   68      3.28572    0.00000
   69      3.32588    0.00000
   70      4.19015    0.00000
   71      4.48894    0.00000
   72      4.68273    0.00000
   73      5.10539    0.00000
   74      5.37190    0.00000
   75      5.74716    0.00000
   76      6.21798    0.00000
   77      6.85322    0.00000
   78      7.04703    0.00000
   79      7.30447    0.00000
   80      7.41094    0.00000
   81      7.94999    0.00000
   82      8.18401    0.00000
   83      8.33225    0.00000
   84      8.47295    0.00000
   85      8.66538    0.00000
   86      8.75309    0.00000
   87      8.92538    0.00000
   88      8.99477    0.00000
   89      9.20224    0.00000
   90      9.27049    0.00000
   91      9.29413    0.00000
   92      9.38256    0.00000
   93      9.46691    0.00000
   94      9.72573    0.00000
   95      9.81138    0.00000
   96      9.89666    0.00000
   97     10.10466    0.00000


Forces in eV/Ang:
  0 C    -1.70923    0.51408   -5.83415
  1 C     1.15169    0.61847   -1.21431
  2 C    -0.96811   -0.03031   -0.55503
  3 C     0.29983   -1.90047    9.74594
  4 C    -1.05318   -0.17747    3.47003
  5 C     0.20359    0.37260   -0.63838
  6 C    -1.28496   -0.54543    0.04884
  7 C    -0.74357    0.85392    0.36397
  8 C     0.43367   -0.38996   -0.03380
  9 C     1.46808    0.96313   -1.11630
 10 C     4.67258    2.37968   -5.56757
 11 C    -1.87429   -1.48166    1.11481
 12 C    -0.76558    0.47007   -0.15634
 13 C     0.16401    1.13831    0.01168
 14 C     2.66021    0.89587   -0.06793
 15 C     0.92508    0.21429    0.10820
 16 C    -0.41319    0.53843   -0.16765
 17 C     0.83830    0.57328   -3.32041
 18 C    -0.41743    0.54182   -1.26697
 19 C    -1.93991   -1.79937    1.93520
 20 C     0.28280    0.09486    0.09049
 21 C    -0.52977    0.04394   -0.07183
 22 C     0.11618    0.36894   -0.02196
 23 C    -1.48057   -4.18134    3.17349

System changes: positions 

Initializing position-dependent things.

Density initialized from wave functions
           .--------------------------------------.  
          /|                                      |  
         / |                                      |  
        /  |                                      |  
       /   |                                      |  
      /    |                                      |  
     /     |                                      |  
    /      |                                      |  
   /       |                                      |  
  /        |            C                         |  
 *         |   C C   C     C C                    |  
 |         |  C C       C  CC    C                |  
 |         .------C--C--CC----C--C----------------.  
 |        /             CC   C                   /   
 |       /                   C                  /    
 |      /                                      /     
 |     /                                      /      
 |    /                                      /       
 |   /                                      /        
 |  /                                      /         
 | /                                      /          
 |/                                      /           
 *--------------------------------------*            

Positions:
   0 C      8.422079    5.418531    5.014485
   1 C      6.170281    8.289929    5.267877
   2 C     10.292263    4.487088    4.362382
   3 C      9.549671    5.393287    6.030336
   4 C      7.375681    7.587460    5.436928
   5 C      8.743050    8.066477    5.011282
   6 C      6.874347   10.455760    5.021105
   7 C     10.571289    9.390391    4.450007
   8 C     10.930341    8.122059    4.307624
   9 C      9.967719    7.220703    4.690109
  10 C      9.892620    5.771883    4.768219
  11 C      5.690436    9.619715    5.178907
  12 C      8.141214   10.411328    4.882360
  13 C      9.222384    9.517794    4.782709
  14 C      4.192282    9.260016    5.354144
  15 C      3.607909    8.109045    5.598010
  16 C      3.491277    6.805772    5.866046
  17 C      7.446952    7.849637    3.902271
  18 C      8.510240    4.474416    6.207542
  19 C      7.306539    4.045512    6.443739
  20 C      6.009697    4.131666    6.455346
  21 C      4.848061    4.672081    6.325557
  22 C      3.958358    5.628634    6.125914
  23 C      7.772114    6.570192    4.417504

Unit cell:
           periodic     x           y           z      points  spacing
  1. axis:    yes   16.000000    0.000000    0.000000    80     0.2000
  2. axis:    yes    0.000000   16.000000    0.000000    80     0.2000
  3. axis:    yes    0.000000    0.000000   10.000000    48     0.2083

Effective grid spacing dv^(1/3) = 0.2027

                     log10-error:    total        iterations:
           time      wfs    density  energy       fermi  poisson
iter:   1  09:20:12          +inf  -169.233086    2      5      
iter:   2  09:20:13         -2.05  -169.200781    2      2      
iter:   3  09:20:13         -2.18  -169.184414    2      2      
iter:   4  09:20:14         -2.31  -169.174590    2      2      
iter:   5  09:20:14         -2.51  -169.173458    2      2      
iter:   6  09:20:15         -2.67  -169.172911    2      2      
iter:   7  09:20:15         -2.86  -169.171469    1      2      
iter:   8  09:20:16         -3.10  -169.172051    2      1      
iter:   9  09:20:16         -3.20  -169.174196    2      1      
iter:  10  09:20:17         -3.51  -169.174001    2      1      
iter:  11  09:20:18         -3.73  -169.172326    2      1      
iter:  12  09:20:18         -3.82  -169.172130    2      1      
iter:  13  09:20:19         -3.93  -169.172508    2      1      
iter:  14  09:20:19         -4.11  -169.171882    2      1      

Converged after 14 iterations.

Dipole moment: (-0.227906, -0.086162, 0.238150) |e|*Ang

Energy contributions relative to reference atoms: (reference = -24663.074771)

Kinetic:       +121.362327
Potential:     -117.286734
External:        +0.000000
XC:            -176.115787
Entropy (-ST):   -0.144758
Local:           +2.940692
--------------------------
Free energy:   -169.244260
Extrapolated:  -169.171882

Fermi level: -4.24286

 Band  Eigenvalues  Occupancy
    0    -26.42218    2.00000
    1    -25.28721    2.00000
    2    -21.91381    2.00000
    3    -21.21014    2.00000
    4    -20.93476    2.00000
    5    -20.27692    2.00000
    6    -19.51551    2.00000
    7    -19.25871    2.00000
    8    -18.69866    2.00000
    9    -18.20239    2.00000
   10    -17.70640    2.00000
   11    -17.21998    2.00000
   12    -16.62417    2.00000
   13    -16.52558    2.00000
   14    -15.96003    2.00000
   15    -15.14705    2.00000
   16    -14.64455    2.00000
   17    -14.36052    2.00000
   18    -13.62777    2.00000
   19    -13.22159    2.00000
   20    -13.08938    2.00000
   21    -12.79960    2.00000
   22    -12.41608    2.00000
   23    -11.91215    2.00000
   24    -11.32618    2.00000
   25    -11.26120    2.00000
   26    -10.57025    2.00000
   27    -10.05907    2.00000
   28     -9.90274    2.00000
   29     -9.73501    2.00000
   30     -9.25287    2.00000
   31     -8.99882    2.00000
   32     -8.86951    2.00000
   33     -8.20232    2.00000
   34     -8.01465    2.00000
   35     -7.76836    2.00000
   36     -7.30293    2.00000
   37     -7.11947    2.00000
   38     -6.97397    2.00000
   39     -6.87472    2.00000
   40     -6.40241    2.00000
   41     -6.32966    2.00000
   42     -6.01313    2.00000
   43     -5.80650    2.00000
   44     -5.29483    1.99995
   45     -4.91398    1.99757
   46     -4.71692    1.98268
   47     -4.46688    1.80762
   48     -4.02782    0.20860
   49     -3.60889    0.00352
   50     -3.18613    0.00005
   51     -3.00355    0.00001
   52     -2.81102    0.00000
   53     -2.58404    0.00000
   54     -2.14819    0.00000
   55     -1.78720    0.00000
   56     -1.72692    0.00000
   57     -1.06438    0.00000
   58     -0.44541    0.00000
   59     -0.18362    0.00000
   60     -0.04229    0.00000
   61      0.29961    0.00000
   62      0.55484    0.00000
   63      1.21106    0.00000
   64      1.50204    0.00000
   65      1.96438    0.00000
   66      2.37624    0.00000
   67      2.63162    0.00000
   68      3.29599    0.00000
   69      3.34462    0.00000
   70      4.28398    0.00000
   71      4.47722    0.00000
   72      4.73349    0.00000
   73      5.14400    0.00000
   74      5.35320    0.00000
   75      5.70118    0.00000
   76      6.20230    0.00000
   77      6.82774    0.00000
   78      7.04999    0.00000
   79      7.34583    0.00000
   80      7.41889    0.00000
   81      7.98195    0.00000
   82      8.20515    0.00000
   83      8.33169    0.00000
   84      8.47565    0.00000
   85      8.66379    0.00000
   86      8.74486    0.00000
   87      8.95124    0.00000
   88      8.97156    0.00000
   89      9.19022    0.00000
   90      9.26308    0.00000
   91      9.29324    0.00000
   92      9.37877    0.00000
   93      9.49148    0.00000
   94      9.73197    0.00000
   95      9.82163    0.00000
   96      9.83887    0.00000
   97     10.08490    0.00000


Forces in eV/Ang:
  0 C    -1.05231   -0.00946   -4.90844
  1 C     1.13877    0.57534   -1.15081
  2 C    -0.97149   -0.02137   -0.45934
  3 C     0.31559   -1.63770    8.19690
  4 C    -0.80939   -0.30123    2.96372
  5 C     0.06180    0.28290   -0.78481
  6 C    -1.19978   -0.53765    0.03889
  7 C    -0.69053    0.77467    0.34185
  8 C     0.47305   -0.11412   -0.04296
  9 C     1.27675    0.84033   -0.97261
 10 C     3.87415    2.15694   -4.34134
 11 C    -1.48009   -1.19291    0.92996
 12 C    -0.74052    0.41708   -0.14676
 13 C     0.03673    1.07953    0.03699
 14 C     2.20510    0.64605    0.02068
 15 C     1.01634    0.30484    0.08260
 16 C    -0.41736    0.58602   -0.16220
 17 C     1.05109    0.13469   -2.64793
 18 C    -0.91462    0.43624   -1.36426
 19 C    -1.08998   -1.55790    1.76515
 20 C     0.26885    0.10057    0.06867
 21 C    -0.91389    0.29163   -0.10777
 22 C     0.33045    0.15124    0.01408
 23 C    -1.65802   -3.36318    2.70868

System changes: positions 

Initializing position-dependent things.

Density initialized from wave functions
           .--------------------------------------.  
          /|                                      |  
         / |                                      |  
        /  |                                      |  
       /   |                                      |  
      /    |                                      |  
     /     |                                      |  
    /      |                                      |  
   /       |                                      |  
  /        |            C                         |  
 *         |   C C   C     C C                    |  
 |         |  C C    C  C  CC    C                |  
 |         .------C--C--CC----C--C----------------.  
 |        /             CC   C                   /   
 |       /                   C                  /    
 |      /                                      /     
 |     /                                      /      
 |    /                                      /       
 |   /                                      /        
 |  /                                      /         
 | /                                      /          
 |/                                      /           
 *--------------------------------------*            

Positions:
   0 C      8.433370    5.412572    4.979092
   1 C      6.182390    8.295160    5.256576
   2 C     10.281908    4.486154    4.358747
   3 C      9.549914    5.392907    6.054915
   4 C      7.370965    7.583113    5.454060
   5 C      8.740817    8.066995    5.000027
   6 C      6.863516   10.449094    5.021054
   7 C     10.565764    9.395260    4.453355
   8 C     10.936215    8.128735    4.306618
   9 C      9.977954    7.227475    4.681836
  10 C      9.913769    5.778626    4.775754
  11 C      5.678653    9.612331    5.186512
  12 C      8.131342   10.414977    4.881006
  13 C      9.221087    9.529064    4.783870
  14 C      4.211157    9.262835    5.355692
  15 C      3.620825    8.113151    5.598795
  16 C      3.487040    6.812773    5.864204
  17 C      7.466586    7.834583    3.889819
  18 C      8.493461    4.480504    6.188478
  19 C      7.304866    4.031242    6.460743
  20 C      6.008282    4.134236    6.455680
  21 C      4.839152    4.674036    6.324813
  22 C      3.961977    5.631529    6.125724
  23 C      7.747481    6.552826    4.443802

Unit cell:
           periodic     x           y           z      points  spacing
  1. axis:    yes   16.000000    0.000000    0.000000    80     0.2000
  2. axis:    yes    0.000000   16.000000    0.000000    80     0.2000
  3. axis:    yes    0.000000    0.000000   10.000000    48     0.2083

Effective grid spacing dv^(1/3) = 0.2027

                     log10-error:    total        iterations:
           time      wfs    density  energy       fermi  poisson
iter:   1  09:20:21          +inf  -170.210440    2      5      
iter:   2  09:20:22         -2.06  -170.175686    2      2      
iter:   3  09:20:22         -2.19  -170.159167    2      2      
iter:   4  09:20:23         -2.32  -170.150924    2      2      
iter:   5  09:20:23         -2.50  -170.149545    2      2      
iter:   6  09:20:24         -2.67  -170.149274    2      2      
iter:   7  09:20:24         -2.84  -170.147636    2      2      
iter:   8  09:20:25         -3.11  -170.148219    2      1      
iter:   9  09:20:25         -3.20  -170.150437    2      1      
iter:  10  09:20:26         -3.52  -170.149432    2      1      
iter:  11  09:20:26         -3.66  -170.148674    2      1      
iter:  12  09:20:27         -3.74  -170.148647    1      1      
iter:  13  09:20:28         -3.86  -170.149118    2      1      
iter:  14  09:20:28         -4.16  -170.148016    2      1      

Converged after 14 iterations.

Dipole moment: (-0.211088, -0.069187, 0.221304) |e|*Ang

Energy contributions relative to reference atoms: (reference = -24663.074771)

Kinetic:       +117.927047
Potential:     -115.432628
External:        +0.000000
XC:            -175.516110
Entropy (-ST):   -0.129374
Local:           +2.938361
--------------------------
Free energy:   -170.212704
Extrapolated:  -170.148016

Fermi level: -4.24910

 Band  Eigenvalues  Occupancy
    0    -26.16405    2.00000
    1    -25.06933    2.00000
    2    -21.87091    2.00000
    3    -21.25273    2.00000
    4    -20.84769    2.00000
    5    -20.25518    2.00000
    6    -19.50243    2.00000
    7    -19.23873    2.00000
    8    -18.64273    2.00000
    9    -18.18413    2.00000
   10    -17.70838    2.00000
   11    -17.19023    2.00000
   12    -16.59536    2.00000
   13    -16.47717    2.00000
   14    -15.94229    2.00000
   15    -15.10515    2.00000
   16    -14.59329    2.00000
   17    -14.33532    2.00000
   18    -13.60660    2.00000
   19    -13.19239    2.00000
   20    -13.06750    2.00000
   21    -12.76454    2.00000
   22    -12.33633    2.00000
   23    -11.98440    2.00000
   24    -11.36050    2.00000
   25    -11.25698    2.00000
   26    -10.54157    2.00000
   27    -10.01950    2.00000
   28     -9.89594    2.00000
   29     -9.71192    2.00000
   30     -9.25241    2.00000
   31     -8.99050    2.00000
   32     -8.85445    2.00000
   33     -8.16917    2.00000
   34     -7.98396    2.00000
   35     -7.74809    2.00000
   36     -7.30860    2.00000
   37     -7.11636    2.00000
   38     -6.98260    2.00000
   39     -6.88826    2.00000
   40     -6.43751    2.00000
   41     -6.32233    2.00000
   42     -6.03586    2.00000
   43     -5.81258    2.00000
   44     -5.38211    1.99998
   45     -4.94150    1.99803
   46     -4.72812    1.98352
   47     -4.49264    1.83897
   48     -4.01518    0.17586
   49     -3.61704    0.00359
   50     -3.16724    0.00004
   51     -2.96375    0.00001
   52     -2.84471    0.00000
   53     -2.53659    0.00000
   54     -2.16038    0.00000
   55     -1.79447    0.00000
   56     -1.69817    0.00000
   57     -1.05770    0.00000
   58     -0.47644    0.00000
   59     -0.19395    0.00000
   60      0.10764    0.00000
   61      0.28747    0.00000
   62      0.58862    0.00000
   63      1.20854    0.00000
   64      1.48992    0.00000
   65      2.05545    0.00000
   66      2.43144    0.00000
   67      2.73611    0.00000
   68      3.25855    0.00000
   69      3.39131    0.00000
   70      4.31244    0.00000
   71      4.48936    0.00000
   72      4.79967    0.00000
   73      5.20976    0.00000
   74      5.32023    0.00000
   75      5.65857    0.00000
   76      6.19638    0.00000
   77      6.79934    0.00000
   78      7.02849    0.00000
   79      7.35835    0.00000
   80      7.44904    0.00000
   81      7.99106    0.00000
   82      8.20171    0.00000
   83      8.36421    0.00000
   84      8.48648    0.00000
   85      8.67995    0.00000
   86      8.73449    0.00000
   87      8.91697    0.00000
   88      8.96399    0.00000
   89      9.14546    0.00000
   90      9.20012    0.00000
   91      9.31047    0.00000
   92      9.37827    0.00000
   93      9.49348    0.00000
   94      9.73246    0.00000
   95      9.78131    0.00000
   96      9.83292    0.00000
   97     10.02131    0.00000


Forces in eV/Ang:
  0 C    -0.49691   -0.40109   -4.06031
  1 C     1.15711    0.50331   -1.08934
  2 C    -1.00723   -0.00461   -0.36570
  3 C     0.23782   -1.50604    6.73678
  4 C    -0.56866   -0.38990    2.52058
  5 C    -0.06233    0.19916   -0.91314
  6 C    -1.04809   -0.46048    0.02809
  7 C    -0.62733    0.67670    0.29650
  8 C     0.50481    0.14713   -0.04496
  9 C     1.04010    0.67901   -0.80728
 10 C     3.08682    1.90476   -3.25981
 11 C    -1.06890   -0.90310    0.73551
 12 C    -0.73711    0.38408   -0.12581
 13 C    -0.10972    1.00478    0.06607
 14 C     1.77261    0.58869    0.07764
 15 C     0.99020    0.11434    0.11498
 16 C    -0.33960    0.43989   -0.11471
 17 C     1.11220   -0.15027   -1.97501
 18 C    -0.49661    0.65960   -1.57090
 19 C    -1.35358   -1.49248    1.67031
 20 C     0.18811    0.23225    0.01489
 21 C    -0.45470   -0.05431   -0.01142
 22 C     0.07396    0.60700   -0.09414
 23 C    -1.62495   -2.71399    2.17609

System changes: positions 

Initializing position-dependent things.

Density initialized from wave functions
           .--------------------------------------.  
          /|                                      |  
         / |                                      |  
        /  |                                      |  
       /   |                                      |  
      /    |                                      |  
     /     |                                      |  
    /      |                                      |  
   /       |                                      |  
  /        |            C                         |  
 *         |   C C   C     C C                    |  
 |         |  C C    C  C  CC    C                |  
 |         .------C--C--C-----C--C----------------.  
 |        /             CC   C                   /   
 |       /                   C                  /    
 |      /                                      /     
 |     /                                      /      
 |    /                                      /       
 |   /                                      /        
 |  /                                      /         
 | /                                      /          
 |/                                      /           
 *--------------------------------------*            

Positions:
   0 C      8.447199    5.402374    4.943196
[...]

Energy contributions relative to reference atoms: (reference = -24663.074771)

Kinetic:       +111.890033
Potential:     -117.559657
External:        +0.000000
XC:            -178.143583
Entropy (-ST):   -0.050799
Local:           +3.004141
--------------------------
Free energy:   -180.859865
Extrapolated:  -180.834466

Fermi level: -4.26388

 Band  Eigenvalues  Occupancy
    0    -23.79672    2.00000
    1    -22.99808    2.00000
    2    -22.03490    2.00000
    3    -21.04107    2.00000
    4    -20.65547    2.00000
    5    -20.21885    2.00000
    6    -19.32824    2.00000
    7    -18.98452    2.00000
    8    -18.35563    2.00000
    9    -18.06423    2.00000
   10    -17.68879    2.00000
   11    -17.32062    2.00000
   12    -16.40043    2.00000
   13    -15.83977    2.00000
   14    -15.20992    2.00000
   15    -15.14295    2.00000
   16    -14.30822    2.00000
   17    -13.62597    2.00000
   18    -13.46577    2.00000
   19    -13.21022    2.00000
   20    -12.62826    2.00000
   21    -12.46578    2.00000
   22    -12.19558    2.00000
   23    -11.56247    2.00000
   24    -11.19218    2.00000
   25    -10.64393    2.00000
   26    -10.56020    2.00000
   27    -10.11533    2.00000
   28     -9.77430    2.00000
   29     -9.61225    2.00000
   30     -9.43105    2.00000
   31     -9.24230    2.00000
   32     -8.91592    2.00000
   33     -8.57000    2.00000
   34     -8.41192    2.00000
   35     -8.22709    2.00000
   36     -7.88372    2.00000
   37     -7.17743    2.00000
   38     -6.78860    2.00000
   39     -6.73967    2.00000
   40     -6.45135    2.00000
   41     -6.15667    2.00000
   42     -5.96449    2.00000
   43     -5.94903    2.00000
   44     -5.69759    2.00000
   45     -5.31240    1.99994
   46     -5.05138    1.99924
   47     -4.62258    1.94613
   48     -3.90617    0.05439
   49     -3.37414    0.00027
   50     -3.10693    0.00002
   51     -2.97583    0.00001
   52     -2.52416    0.00000
   53     -2.29165    0.00000
   54     -2.15812    0.00000
   55     -1.97805    0.00000
   56     -1.56778    0.00000
   57     -0.92922    0.00000
   58     -0.64964    0.00000
   59     -0.29205    0.00000
   60      0.39027    0.00000
   61      0.87874    0.00000
   62      1.39116    0.00000
   63      1.93240    0.00000
   64      2.69898    0.00000
   65      3.12196    0.00000
   66      3.35167    0.00000
   67      3.83091    0.00000
   68      4.30664    0.00000
   69      4.91514    0.00000
   70      5.34431    0.00000
   71      5.78776    0.00000
   72      5.92399    0.00000
   73      6.20857    0.00000
   74      6.31779    0.00000
   75      6.95754    0.00000
   76      7.09777    0.00000
   77      7.53398    0.00000
   78      7.61508    0.00000
   79      7.95685    0.00000
   80      8.12218    0.00000
   81      8.31284    0.00000
   82      8.52579    0.00000
   83      8.68476    0.00000
   84      8.81155    0.00000
   85      9.11053    0.00000
   86      9.16890    0.00000
   87      9.26370    0.00000
   88      9.39328    0.00000
   89      9.45811    0.00000
   90      9.65451    0.00000
   91      9.74701    0.00000
   92      9.86613    0.00000
   93      9.98642    0.00000
   94     10.06330    0.00000
   95     10.19060    0.00000
   96     10.25716    0.00000
   97     10.39847    0.00000


Forces in eV/Ang:
  0 C     0.03220   -0.00377    0.04803
  1 C     0.01101   -0.01835   -0.00458
  2 C    -0.00218    0.02022   -0.01482
  3 C    -0.02249    0.00416   -0.09794
  4 C     0.03607   -0.03627   -0.03417
  5 C    -0.05661    0.06804   -0.00160
  6 C     0.06786   -0.02931   -0.03467
  7 C    -0.09567   -0.01788   -0.05387
  8 C     0.10406    0.03652   -0.07235
  9 C     0.01478    0.03598    0.01098
 10 C     0.02632   -0.00511    0.14612
 11 C     0.07977    0.01085    0.02957
 12 C     0.02706   -0.08356   -0.02321
 13 C    -0.01322   -0.00946    0.05233
 14 C     0.03085   -0.02093   -0.00225
 15 C    -0.10776    0.03299   -0.01258
 16 C     0.04014   -0.00287    0.02610
 17 C     0.01316   -0.04559    0.02378
 18 C    -0.02237   -0.01611   -0.03588
 19 C     0.05775   -0.04260    0.01488
 20 C    -0.08118   -0.06222    0.01153
 21 C    -0.00526   -0.04850    0.04736
 22 C    -0.02023    0.01589   -0.04206
 23 C     0.00277    0.05536    0.01894

System changes: positions 

Initializing position-dependent things.

Density initialized from wave functions
           .--------------------------------------.  
          /|                                      |  
         / |                                      |  
        /  |                                      |  
       /   |                                      |  
      /    |                                      |  
     /     |                                      |  
    /      |                                      |  
   /       |                                      |  
  /        |                                      |  
 *         |    C C  C  C  C  C  C                |  
 |         |    CC                                |  
 |         .-------CC-C--C--CCC-------------------.  
 |        /           C C                        /   
 |       /                 C                    /    
 |      /                                      /     
 |     /                                      /      
 |    /                                      /       
 |   /                                      /        
 |  /                                      /         
 | /                                      /          
 |/                                      /           
 *--------------------------------------*            

Positions:
   0 C      8.067100    5.400619    4.737005
   1 C      6.344417    8.318515    4.297796
   2 C      9.345298    4.963830    4.010832
   3 C      9.837979    4.939999    6.054297
   4 C      5.862324    7.044838    4.790701
   5 C      8.961100    8.236631    4.230927
   6 C      6.881727   10.568843    4.585943
   7 C     10.501629    9.592099    5.302361
   8 C     10.802888    8.350185    5.511398
   9 C     10.015388    7.382803    4.841567
  10 C      9.829261    5.954356    4.986906
  11 C      5.838173    9.613673    4.671127
  12 C      8.144149   10.521302    4.563135
  13 C      9.270004    9.690311    4.615499
  14 C      4.575077    9.372408    5.295994
  15 C      4.161035    8.242047    5.692480
  16 C      4.693281    6.912604    5.621608
  17 C      7.671715    7.757826    4.046499
  18 C      8.497328    4.474709    5.844173
  19 C      7.486754    3.675752    6.438556
  20 C      6.259998    3.842445    6.695602
  21 C      5.163398    4.630763    6.581271
  22 C      4.523223    5.682295    6.307775
  23 C      7.170168    6.410416    4.456354

Unit cell:
           periodic     x           y           z      points  spacing
  1. axis:    yes   16.000000    0.000000    0.000000    80     0.2000
  2. axis:    yes    0.000000   16.000000    0.000000    80     0.2000
  3. axis:    yes    0.000000    0.000000   10.000000    48     0.2083

Effective grid spacing dv^(1/3) = 0.2027

                     log10-error:    total        iterations:
           time      wfs    density  energy       fermi  poisson
iter:   1  09:36:10          +inf  -180.843009    3      5      
iter:   2  09:36:10         -2.71  -180.840826    2      1      
iter:   3  09:36:11         -2.82  -180.837516    2      1      
iter:   4  09:36:11         -3.06  -180.837879    2      1      
iter:   5  09:36:12         -3.27  -180.836620    2      1      
iter:   6  09:36:12         -3.40  -180.836428    2      1      
iter:   7  09:36:13         -3.56  -180.837823    2      1      
iter:   8  09:36:14         -3.37  -180.835572    2      1      
iter:   9  09:36:14         -3.82  -180.836111    2      1      
iter:  10  09:36:15         -4.10  -180.836195    2      1      

Converged after 10 iterations.

Dipole moment: (-0.402978, 0.316175, -0.080621) |e|*Ang

Energy contributions relative to reference atoms: (reference = -24663.074771)

Kinetic:       +111.338967
Potential:     -117.108997
External:        +0.000000
XC:            -178.037633
Entropy (-ST):   -0.050493
Local:           +2.996715
--------------------------
Free energy:   -180.861442
Extrapolated:  -180.836195

Fermi level: -4.26554

 Band  Eigenvalues  Occupancy
    0    -23.80237    2.00000
    1    -22.99132    2.00000
    2    -22.04072    2.00000
    3    -21.03353    2.00000
    4    -20.64925    2.00000
    5    -20.21316    2.00000
    6    -19.32813    2.00000
    7    -18.98169    2.00000
    8    -18.35799    2.00000
    9    -18.06601    2.00000
   10    -17.68561    2.00000
   11    -17.32536    2.00000
   12    -16.39802    2.00000
   13    -15.83961    2.00000
   14    -15.21587    2.00000
   15    -15.14227    2.00000
   16    -14.29873    2.00000
   17    -13.63843    2.00000
   18    -13.45987    2.00000
   19    -13.20992    2.00000
   20    -12.63091    2.00000
   21    -12.46350    2.00000
   22    -12.19076    2.00000
   23    -11.56816    2.00000
   24    -11.19369    2.00000
   25    -10.64156    2.00000
   26    -10.56400    2.00000
   27    -10.12374    2.00000
   28     -9.77593    2.00000
   29     -9.61590    2.00000
   30     -9.42364    2.00000
   31     -9.24409    2.00000
   32     -8.91209    2.00000
   33     -8.56776    2.00000
   34     -8.41862    2.00000
   35     -8.21932    2.00000
   36     -7.88217    2.00000
   37     -7.17519    2.00000
   38     -6.79247    2.00000
   39     -6.73801    2.00000
   40     -6.44546    2.00000
   41     -6.15453    2.00000
   42     -5.96676    2.00000
   43     -5.94090    2.00000
   44     -5.70040    2.00000
   45     -5.31027    1.99994
   46     -5.05417    1.99925
   47     -4.62502    1.94654
   48     -3.90704    0.05398
   49     -3.37355    0.00027
   50     -3.11175    0.00002
   51     -2.97758    0.00001
   52     -2.52848    0.00000
   53     -2.29477    0.00000
   54     -2.13434    0.00000
   55     -1.98234    0.00000
   56     -1.57683    0.00000
   57     -0.92365    0.00000
   58     -0.64747    0.00000
   59     -0.29731    0.00000
   60      0.39092    0.00000
   61      0.88691    0.00000
   62      1.39289    0.00000
   63      1.96607    0.00000
   64      2.69777    0.00000
   65      3.11130    0.00000
   66      3.34962    0.00000
   67      3.82923    0.00000
   68      4.28175    0.00000
   69      4.90614    0.00000
   70      5.34105    0.00000
   71      5.77390    0.00000
   72      5.87658    0.00000
   73      6.17775    0.00000
   74      6.31773    0.00000
   75      6.96633    0.00000
   76      7.07517    0.00000
   77      7.53053    0.00000
   78      7.60703    0.00000
   79      7.94784    0.00000
   80      8.10948    0.00000
   81      8.31130    0.00000
   82      8.52213    0.00000
   83      8.68409    0.00000
   84      8.80615    0.00000
   85      9.09763    0.00000
   86      9.16469    0.00000
   87      9.27161    0.00000
   88      9.38823    0.00000
   89      9.45657    0.00000
   90      9.65240    0.00000
   91      9.74960    0.00000
   92      9.86385    0.00000
   93      9.98711    0.00000
   94     10.06102    0.00000
   95     10.18586    0.00000
   96     10.25824    0.00000
   97     10.40197    0.00000


Forces in eV/Ang:
  0 C     0.02380    0.03807    0.04904
  1 C     0.00760   -0.03885   -0.01207
  2 C    -0.00755    0.05348   -0.02673
  3 C    -0.04360    0.02996   -0.11706
  4 C     0.00741   -0.00942    0.00824
  5 C    -0.02872   -0.00391    0.01034
  6 C     0.02666    0.00916   -0.03778
  7 C     0.03386    0.02358   -0.00555
  8 C     0.04820    0.02749   -0.01975
  9 C     0.00842    0.04313    0.02118
 10 C     0.01902    0.02570    0.07410
 11 C     0.09904   -0.07745    0.03655
 12 C     0.00543   -0.00563    0.01480
 13 C    -0.04516   -0.02594   -0.01904
 14 C     0.06193   -0.06085   -0.01535
 15 C    -0.07469   -0.00729    0.00790
 16 C     0.09598    0.09052   -0.07552
 17 C    -0.05065    0.01368    0.01445
 18 C    -0.09521   -0.00737   -0.04458
 19 C    -0.05520   -0.02666    0.03013
 20 C     0.02210   -0.03428    0.01474
 21 C    -0.02851    0.02223    0.01701
 22 C    -0.00748   -0.08407    0.02563
 23 C    -0.00460    0.03162   -0.00478

System changes: positions 

Initializing position-dependent things.

Density initialized from wave functions
           .--------------------------------------.  
          /|                                      |  
         / |                                      |  
        /  |                                      |  
       /   |                                      |  
      /    |                                      |  
     /     |                                      |  
    /      |                                      |  
   /       |                                      |  
  /        |                                      |  
 *         |    C C  C  C  C  C  C                |  
 |         |    CC                                |  
 |         .-------CC-C--C--CCC-------------------.  
 |        /           C C                        /   
 |       /                 C                    /    
 |      /                                      /     
 |     /                                      /      
 |    /                                      /       
 |   /                                      /        
 |  /                                      /         
 | /                                      /          
 |/                                      /           
 *--------------------------------------*            

Positions:
   0 C      8.066131    5.400708    4.734065
   1 C      6.344655    8.317034    4.295438
   2 C      9.346395    4.966022    4.009950
   3 C      9.833856    4.942592    6.054601
   4 C      5.862169    7.042469    4.786106
   5 C      8.960413    8.237974    4.230294
   6 C      6.883062   10.568283    4.586550
   7 C     10.500306    9.591941    5.304046
   8 C     10.804034    8.350348    5.512130
   9 C     10.015078    7.384621    4.841914
  10 C      9.829406    5.956059    4.987497
  11 C      5.841635    9.611454    4.673859
  12 C      8.144686   10.520236    4.564934
  13 C      9.269357    9.690047    4.617179
  14 C      4.578791    9.369490    5.298987
  15 C      4.161376    8.240455    5.694874
  16 C      4.697199    6.911517    5.621481
  17 C      7.671295    7.757651    4.042591
  18 C      8.493243    4.476895    5.843805
  19 C      7.483980    3.678755    6.441027
  20 C      6.258550    3.842584    6.702622
  21 C      5.161260    4.630391    6.588129
  22 C      4.522926    5.681377    6.309700
  23 C      7.170230    6.409788    4.450300

Unit cell:
           periodic     x           y           z      points  spacing
  1. axis:    yes   16.000000    0.000000    0.000000    80     0.2000
  2. axis:    yes    0.000000   16.000000    0.000000    80     0.2000
  3. axis:    yes    0.000000    0.000000   10.000000    48     0.2083

Effective grid spacing dv^(1/3) = 0.2027

                     log10-error:    total        iterations:
           time      wfs    density  energy       fermi  poisson
iter:   1  09:36:16          +inf  -180.838042    2      4      
iter:   2  09:36:17         -3.13  -180.837421    1      1      
iter:   3  09:36:17         -3.23  -180.836866    2      1      
iter:   4  09:36:18         -3.52  -180.836442    2      1      
iter:   5  09:36:19         -3.73  -180.836678    1      1      
iter:   6  09:36:19         -3.68  -180.837493    1      1      
iter:   7  09:36:20         -4.06  -180.837481    2      1      

Converged after 7 iterations.

Dipole moment: (-0.402045, 0.316672, -0.081202) |e|*Ang

Energy contributions relative to reference atoms: (reference = -24663.074771)

Kinetic:       +111.634666
Potential:     -117.353450
External:        +0.000000
XC:            -178.103629
Entropy (-ST):   -0.051390
Local:           +3.010628
--------------------------
Free energy:   -180.863176
Extrapolated:  -180.837481

Fermi level: -4.26551

 Band  Eigenvalues  Occupancy
    0    -23.79515    2.00000
    1    -22.99164    2.00000
    2    -22.04139    2.00000
    3    -21.03317    2.00000
    4    -20.64700    2.00000
    5    -20.21525    2.00000
    6    -19.32799    2.00000
    7    -18.98197    2.00000
    8    -18.35610    2.00000
    9    -18.06611    2.00000
   10    -17.68545    2.00000
   11    -17.32610    2.00000
   12    -16.39736    2.00000
   13    -15.84199    2.00000
   14    -15.21228    2.00000
   15    -15.14005    2.00000
   16    -14.29676    2.00000
   17    -13.63781    2.00000
   18    -13.46005    2.00000
   19    -13.20937    2.00000
   20    -12.63307    2.00000
   21    -12.45996    2.00000
   22    -12.19061    2.00000
   23    -11.56822    2.00000
   24    -11.19673    2.00000
   25    -10.64181    2.00000
   26    -10.56287    2.00000
   27    -10.12466    2.00000
   28     -9.77630    2.00000
   29     -9.61103    2.00000
   30     -9.42285    2.00000
   31     -9.24543    2.00000
   32     -8.91230    2.00000
   33     -8.57091    2.00000
   34     -8.41836    2.00000
   35     -8.22194    2.00000
   36     -7.88087    2.00000
   37     -7.17465    2.00000
   38     -6.78993    2.00000
   39     -6.73978    2.00000
   40     -6.44615    2.00000
   41     -6.15363    2.00000
   42     -5.96672    2.00000
   43     -5.94103    2.00000
   44     -5.69981    2.00000
   45     -5.30974    1.99994
   46     -5.05150    1.99923
   47     -4.62269    1.94533
   48     -3.90932    0.05520
   49     -3.37683    0.00028
   50     -3.11347    0.00002
   51     -2.97329    0.00000
   52     -2.52522    0.00000
   53     -2.28867    0.00000
   54     -2.13311    0.00000
   55     -1.98397    0.00000
   56     -1.57743    0.00000
   57     -0.93727    0.00000
   58     -0.65178    0.00000
   59     -0.30093    0.00000
   60      0.39285    0.00000
   61      0.88293    0.00000
   62      1.39137    0.00000
   63      1.97479    0.00000
   64      2.70052    0.00000
   65      3.11886    0.00000
   66      3.35439    0.00000
   67      3.83181    0.00000
   68      4.29748    0.00000
   69      4.91590    0.00000
   70      5.33957    0.00000
   71      5.78847    0.00000
   72      5.90122    0.00000
   73      6.18457    0.00000
   74      6.32766    0.00000
   75      6.96775    0.00000
   76      7.08471    0.00000
   77      7.53592    0.00000
   78      7.61387    0.00000
   79      7.95028    0.00000
   80      8.11563    0.00000
   81      8.31225    0.00000
   82      8.52699    0.00000
   83      8.69070    0.00000
   84      8.80851    0.00000
   85      9.10002    0.00000
   86      9.17137    0.00000
   87      9.27124    0.00000
   88      9.38867    0.00000
   89      9.46032    0.00000
   90      9.65318    0.00000
   91      9.75598    0.00000
   92      9.86381    0.00000
   93      9.98708    0.00000
   94     10.06576    0.00000
   95     10.18876    0.00000
   96     10.25996    0.00000
   97     10.39890    0.00000


Forces in eV/Ang:
  0 C     0.03190    0.02323    0.03364
  1 C    -0.01088   -0.01937   -0.01300
  2 C     0.00117    0.04034    0.00907
  3 C    -0.03175    0.01878   -0.07235
  4 C     0.01191    0.01054    0.02241
  5 C    -0.01965   -0.04427    0.02528
  6 C    -0.03080    0.01363   -0.03021
  7 C     0.05628    0.00872   -0.00956
  8 C     0.03372    0.03944   -0.01515
  9 C    -0.00555    0.02283    0.01218
 10 C    -0.00049    0.00866    0.05006
 11 C     0.04868   -0.06425    0.02887
 12 C     0.02293    0.02853    0.00801
 13 C    -0.02150   -0.02065   -0.03071
 14 C     0.05492   -0.03798   -0.02256
 15 C    -0.03773   -0.02506   -0.00523
 16 C     0.02113    0.05919   -0.05302
 17 C    -0.00265    0.01229    0.02304
 18 C    -0.05243   -0.00336   -0.03861
 19 C    -0.00359   -0.03903    0.01686
 20 C    -0.02976   -0.02316    0.01139
 21 C    -0.02488    0.00624    0.02636
 22 C     0.02194   -0.03663   -0.00520
 23 C    -0.01756    0.01623   -0.00058

