
  ___ ___ ___ _ _ _  
 |   |   |_  | | | | 
 | | | | | . | | | | 
 |__ |  _|___|_____|  1.3.0b1
 |___|_|             

User:   esb@s65n32.grendel.cscaa.dk
Date:   Thu Nov  9 10:22:40 2017
Arch:   x86_64
Pid:    22780
Python: 2.7.13
gpaw:   /home/esb/DFT/gpaw_git/gpaw
_gpaw:  /home/esb/DFT/gpaw_git/build/bin.linux-x86_64-2.7/gpaw-python
ase:    /home/esb/DFT/ase_git/ase (version 3.15.0b1)
numpy:  /comm/swstack/core/python/2.7.13/lib/python2.7/site-packages/numpy (version 1.13.3)
scipy:  /comm/swstack/core/python/2.7.13/lib/python2.7/site-packages/scipy (version 0.19.1)
units:  Angstrom and eV
cores:  16
Extra parameters: {'blacs': True}

Input parameters:
  basis: dzp
  gpts: [80 80 48]
  kpts: [1 1 1]
  maxiter: 99
  mixer: {backend: pulay,
          beta: 0.05,
          method: separate,
          nmaxold: 5,
          weight: 75}
  mode: lcao
  nbands: -50
  occupations: {name: fermi-dirac,
                width: 0.1}
  poissonsolver: {eps: 1e-07,
                  name: fd,
                  nn: 3,
                  relax: GS}
  xc: PBE

System changes: positions, numbers, cell, pbc, initial_charges, initial_magmoms 

Initialize ...

C-setup:
  name: Carbon
  id: 4aa54d4b901d75f77cc0ea3eec22967b
  Z: 6
  valence: 4
  core: 2
  charge: 0.0
  file: /home/esb/DFT/gpaw-setups-0.8.7929/C.PBE.gz
  cutoffs: 0.64(comp), 1.14(filt), 1.14(core), lmax=2
  valence states:
                energy  radius
    2s(2.00)   -13.751   0.635
    2p(2.00)    -5.284   0.635
    *s          13.461   0.635
    *p          21.927   0.635
    *d           0.000   0.635

  LCAO basis set for C:
    Name: dzp
    File: /home/esb/DFT/gpaw-setups-0.8.7929/C.dzp.basis.gz
    Number of radial functions: 5
    Number of spherical harmonics: 13
      l=0, rc=5.5469 Bohr: 2s-sz confined orbital
      l=1, rc=6.6719 Bohr: 2p-sz confined orbital
      l=0, rc=3.0312 Bohr: 2s-dz split-valence wave
      l=1, rc=3.7500 Bohr: 2p-dz split-valence wave
      l=2, rc=6.6719 Bohr: d-type Gaussian polarization

Reference energy: -24663.074771

Spin-paired calculation

Occupation numbers:
  Fermi-Dirac: width=0.1000 eV

Convergence criteria:
  Maximum total energy change: 0.0005 eV / electron
  Maximum integral of absolute density change: 0.0001 electrons
  Maximum integral of absolute eigenstate change: 4e-08 eV^2
  Maximum number of iterations: 99

Symmetries present (total): 1

  ( 1  0  0)
  ( 0  1  0)
  ( 0  0  1)

1 k-point (Gamma)
1 k-point in the irreducible part of the Brillouin zone
       k-points in crystal coordinates                weights
   0:     0.00000000    0.00000000    0.00000000          1/1

Wave functions: LCAO
  Diagonalizer: Serial LAPACK
  Atomic Correction: dense with blas
  Datatype: float
  Eigensolver: None 

LCAO using direct dense diagonalizer 

Densities:
  Coarse grid: 80*80*48 grid
  Fine grid: 160*160*96 grid
  Total Charge: 0.000000 

Density mixing:
  Method: separate
  Backend: pulay
  Linear mixing parameter: 0.05
  Mixing with 5 old densities
  Damping of long wave oscillations: 75 

Hamiltonian:
  XC and Coulomb potentials evaluated on a 160*160*96 grid
  Using the PBE Exchange-Correlation functional
  Interpolation: tri-quintic (5. degree polynomial)
  Poisson solver: Gauss-Seidel solver with 6 multi-grid levels
    Coarsest grid: 5 x 5 x 3 points
    Stencil: 6*3+1=19 point O(h^6) finite-difference Laplacian
    Max iterations: 1000
    Tolerance: 1.000000e-07 

Memory estimate:
  Process memory now: 77.43 MiB
  Calculator: 15.59 MiB
    Density: 6.13 MiB
      Arrays: 3.81 MiB
      Localized functions: 0.86 MiB
      Mixer: 1.46 MiB
    Hamiltonian: 5.40 MiB
      Arrays: 2.49 MiB
      XC: 0.00 MiB
      Poisson: 2.85 MiB
      vbar: 0.07 MiB
    Wavefunctions: 4.05 MiB
      C [qnM]: 0.23 MiB
      S, T [2 x qmm]: 1.49 MiB
      P [aqMi]: 0.01 MiB
      TCI: 0.00 MiB
      BasisFunctions: 2.33 MiB
      Eigensolver: 0.00 MiB

Total number of cores used: 16
Domain decomposition: 2 x 4 x 2

Number of atoms: 24
Number of atomic orbitals: 312
Number of bands in calculation: 98
Bands to converge: occupied states only
Number of valence electrons: 96

... initialized

Initializing position-dependent things.

Density initialized from atomic densities
           .--------------------------------------.  
          /|                                      |  
         / |                                      |  
        /  |                                      |  
       /   |                                      |  
      /    |                                      |  
     /     |                                      |  
    /      |                                      |  
   /       |                                      |  
  /        |           C  C                       |  
 *         |  C C   C      C   C  C               |  
 |         | C       C  CC CC  C CC               |  
 |         .-C-C-C-----------------C--------------.  
 |        /                                      /   
 |       /                                      /    
 |      /                                      /     
 |     /                                      /      
 |    /                                      /       
 |   /                                      /        
 |  /                                      /         
 | /                                      /          
 |/                                      /           
 *--------------------------------------*            

Positions:
   0 C      6.375922    9.789677    5.940044
   1 C      4.071908    8.709465    5.847802
   2 C      7.622854    9.807095    5.802140
   3 C      5.495636    8.689150    5.818119
   4 C     10.978126    9.956465    4.854680
   5 C      3.537909    7.528178    5.687544
   6 C      8.496992    8.748068    5.468537
   7 C      9.873213    9.080310    5.151590
   8 C      6.313855    7.469667    5.597377
   9 C      3.259175    6.251518    5.560335
  10 C      7.778894    7.476540    5.450777
  11 C     11.113106    8.505769    4.934269
  12 C      8.317151    4.017309    6.905600
  13 C      5.842229    3.445302    6.728350
  14 C      9.340772    4.698756    6.656622
  15 C      6.974689    4.291090    6.553791
  16 C     12.212402    6.286267    5.468602
  17 C      4.733588    3.972751    6.282267
  18 C      9.450294    5.913363    5.942704
  19 C     10.780798    6.381548    5.603018
  20 C      6.933670    5.626606    5.905669
  21 C      3.770136    4.732142    5.814484
  22 C      8.126806    6.442003    5.623827
  23 C     11.457682    7.481149    5.105660

Unit cell:
           periodic     x           y           z      points  spacing
  1. axis:    yes   16.000000    0.000000    0.000000    80     0.2000
  2. axis:    yes    0.000000   16.000000    0.000000    80     0.2000
  3. axis:    yes    0.000000    0.000000   10.000000    48     0.2083

Effective grid spacing dv^(1/3) = 0.2027

                     log10-error:    total        iterations:
           time      wfs    density  energy       fermi  poisson
iter:   1  10:22:42          +inf  -174.501062    3      6      
iter:   2  10:22:43         -0.88  -173.168792    4      3      
iter:   3  10:22:43         -0.92  -171.740296    5      3      
iter:   4  10:22:44         -0.98  -169.463435    35     4      
iter:   5  10:22:45         -1.22  -169.333765    4      3      
iter:   6  10:22:45         -1.38  -169.047873    5      3      
iter:   7  10:22:46         -1.57  -169.075201    3      3      
iter:   8  10:22:46         -1.58  -168.926762    3      2      
iter:   9  10:22:47         -1.73  -168.850026    4      3      
iter:  10  10:22:48         -1.93  -168.831809    4      2      
iter:  11  10:22:48         -2.09  -168.825925    3      3      
iter:  12  10:22:49         -2.26  -168.821220    3      2      
iter:  13  10:22:50         -2.42  -168.820527    3      2      
iter:  14  10:22:50         -2.53  -168.821351    3      2      
iter:  15  10:22:51         -2.75  -168.818197    3      2      
iter:  16  10:22:51         -3.04  -168.824208    3      1      
iter:  17  10:22:52         -3.12  -168.834675    3      1      
iter:  18  10:22:53         -3.32  -168.822154    2      1      
iter:  19  10:22:53         -3.43  -168.818532    2      1      
iter:  20  10:22:54         -3.52  -168.816901    2      1      
iter:  21  10:22:54         -3.62  -168.813990    2      1      
iter:  22  10:22:55         -3.78  -168.814833    2      1      
iter:  23  10:22:55         -3.87  -168.815028    2      1      
iter:  24  10:22:56         -3.96  -168.812145    3      1      
iter:  25  10:22:57         -4.34  -168.815023    2      1      

Converged after 25 iterations.

Dipole moment: (-0.187781, -0.063728, -0.050546) |e|*Ang

Energy contributions relative to reference atoms: (reference = -24663.074771)

Kinetic:       +159.059221
Potential:     -149.834875
External:        +0.000000
XC:            -180.849275
Entropy (-ST):   -0.386836
Local:           +3.003322
--------------------------
Free energy:   -169.008441
Extrapolated:  -168.815023

Fermi level: -4.42782

 Band  Eigenvalues  Occupancy
    0    -24.00493    2.00000
    1    -23.46724    2.00000
    2    -22.45127    2.00000
    3    -21.48504    2.00000
    4    -21.00514    2.00000
    5    -20.17627    2.00000
    6    -20.16820    2.00000
    7    -19.32064    2.00000
    8    -18.63359    2.00000
    9    -18.61320    2.00000
   10    -17.87639    2.00000
   11    -17.30865    2.00000
   12    -16.51449    2.00000
   13    -16.26284    2.00000
   14    -15.75043    2.00000
   15    -15.02873    2.00000
   16    -14.26877    2.00000
   17    -13.33788    2.00000
   18    -13.20110    2.00000
   19    -12.61996    2.00000
   20    -12.60953    2.00000
   21    -11.95307    2.00000
   22    -11.51897    2.00000
   23    -11.41523    2.00000
   24    -11.37127    2.00000
   25    -10.78229    2.00000
   26    -10.49682    2.00000
   27    -10.24121    2.00000
   28     -9.46629    2.00000
   29     -9.41208    2.00000
   30     -9.01340    2.00000
   31     -8.79387    2.00000
   32     -8.70881    2.00000
   33     -8.38790    2.00000
   34     -8.23617    2.00000
   35     -8.02245    2.00000
   36     -7.83200    2.00000
   37     -7.69458    2.00000
   38     -7.25476    2.00000
   39     -7.22007    2.00000
   40     -6.52267    2.00000
   41     -6.42864    2.00000
   42     -6.18278    2.00000
   43     -6.15260    2.00000
   44     -5.47449    1.99994
   45     -5.23761    1.99939
   46     -4.95961    1.99024
   47     -4.39367    0.83086
   48     -4.34956    0.62752
   49     -4.33061    0.54894
   50     -3.77952    0.00305
   51     -3.36340    0.00005
   52     -3.13929    0.00001
   53     -2.87115    0.00000
   54     -2.19404    0.00000
   55     -2.11850    0.00000
   56     -1.48225    0.00000
   57     -1.20312    0.00000
   58     -0.76878    0.00000
   59     -0.39488    0.00000
   60      0.35792    0.00000
   61      1.33979    0.00000
   62      1.48018    0.00000
   63      1.98107    0.00000
   64      2.74325    0.00000
   65      3.04547    0.00000
   66      3.13937    0.00000
   67      3.48515    0.00000
   68      3.77387    0.00000
   69      4.02136    0.00000
   70      4.87498    0.00000
   71      5.26400    0.00000
   72      5.76686    0.00000
   73      5.89310    0.00000
   74      6.20214    0.00000
   75      6.85540    0.00000
   76      7.00186    0.00000
   77      7.42010    0.00000
   78      7.62891    0.00000
   79      7.76395    0.00000
   80      7.89816    0.00000
   81      8.26097    0.00000
   82      8.36920    0.00000
   83      8.64983    0.00000
   84      8.88366    0.00000
   85      8.95855    0.00000
   86      8.99291    0.00000
   87      9.12380    0.00000
   88      9.17331    0.00000
   89      9.44156    0.00000
   90      9.44221    0.00000
   91      9.70961    0.00000
   92      9.81058    0.00000
   93      9.87092    0.00000
   94      9.92959    0.00000
   95      9.99178    0.00000
   96     10.24493    0.00000
   97     10.45898    0.00000


Forces in eV/Ang:
  0 C     0.49879    0.06283   -0.03470
  1 C     0.52353   -0.33017   -0.17109
  2 C    -0.38063    0.05520   -0.30009
  3 C    -0.40583   -0.59107    0.13758
  4 C    -1.33935   -0.87659    0.23605
  5 C    -0.92033   -2.40271   -0.26787
  6 C     1.65486    1.50617   -0.65773
  7 C    -3.30387    2.30702    0.36721
  8 C     1.15705   -0.13160    0.36119
  9 C     2.45019   -6.75116    1.61457
 10 C   -10.67392   30.92501   -4.60748
 11 C    -6.16424   26.44459   -5.09043
 12 C     0.44036    0.23775   -0.07343
 13 C     0.23647    0.50037   -0.28573
 14 C    -0.24547   -0.36103   -0.20346
 15 C    -0.68650    0.26161   -0.02126
 16 C    -1.58697   -0.07216    0.10863
 17 C    -2.10950    1.19513   -0.84334
 18 C     2.27728   -0.37758   -0.32422
 19 C    -1.34781   -3.59372    1.33034
 20 C     0.83599    0.89963    0.17060
 21 C    -2.15276    7.00547   -0.66613
 22 C    10.12814  -30.89498    5.74135
 23 C    11.17609  -25.05369    3.52151

System changes: positions 

Initializing position-dependent things.

Density initialized from wave functions
           .--------------------------------------.  
          /|                                      |  
         / |                                      |  
        /  |                                      |  
       /   |                                      |  
      /    |                                      |  
     /     |                                      |  
    /      |                                      |  
   /       |                                      |  
  /        |           C  C                       |  
 *         |  C C   C      C   C  C               |  
 |         | C       C  CC CC  C CC               |  
 |         .-C-C-C-----------------C--------------.  
 |        /                                      /   
 |       /                                      /    
 |      /                                      /     
 |     /                                      /      
 |    /                                      /       
 |   /                                      /        
 |  /                                      /         
 | /                                      /          
 |/                                      /           
 *--------------------------------------*            

Positions:
   0 C      6.376526    9.789753    5.940002
   1 C      4.072542    8.709065    5.847595
   2 C      7.622394    9.807162    5.801777
   3 C      5.495144    8.688434    5.818285
   4 C     10.976505    9.955404    4.854966
   5 C      3.536795    7.525269    5.687220
   6 C      8.498996    8.749892    5.467740
   7 C      9.869213    9.083103    5.152035
   8 C      6.315256    7.469508    5.597814
   9 C      3.262142    6.243344    5.562289
  10 C      7.765971    7.513982    5.445199
  11 C     11.105643    8.537786    4.928106
  12 C      8.317684    4.017597    6.905511
  13 C      5.842516    3.445908    6.728004
  14 C      9.340475    4.698319    6.656376
  15 C      6.973858    4.291407    6.553766
  16 C     12.210481    6.286179    5.468734
  17 C      4.731034    3.974198    6.281246
  18 C      9.453051    5.912906    5.942311
  19 C     10.779166    6.377197    5.604628
  20 C      6.934682    5.627696    5.905876
  21 C      3.767530    4.740624    5.813677
  22 C      8.139068    6.404598    5.630778
  23 C     11.471213    7.450816    5.109923

Unit cell:
           periodic     x           y           z      points  spacing
  1. axis:    yes   16.000000    0.000000    0.000000    80     0.2000
  2. axis:    yes    0.000000   16.000000    0.000000    80     0.2000
  3. axis:    yes    0.000000    0.000000   10.000000    48     0.2083

Effective grid spacing dv^(1/3) = 0.2027

                     log10-error:    total        iterations:
           time      wfs    density  energy       fermi  poisson
iter:   1  10:22:59          +inf  -172.783049    2      5      
iter:   2  10:22:59         -1.87  -172.741745    3      2      
iter:   3  10:23:00         -1.93  -172.656047    3      3      
iter:   4  10:23:01         -2.17  -172.663911    3      2      
iter:   5  10:23:01         -2.21  -172.639345    3      3      
iter:   6  10:23:02         -2.50  -172.636314    2      2      
iter:   7  10:23:02         -2.62  -172.633138    2      2      
iter:   8  10:23:03         -3.00  -172.632291    2      2      
iter:   9  10:23:04         -3.14  -172.633351    2      1      
iter:  10  10:23:04         -3.35  -172.633670    2      1      
iter:  11  10:23:05         -3.51  -172.632354    2      1      
iter:  12  10:23:05         -3.66  -172.632470    2      1      
iter:  13  10:23:06         -3.79  -172.632453    2      1      
iter:  14  10:23:06         -3.95  -172.632362    2      1      
iter:  15  10:23:07         -4.08  -172.632328    2      1      

Converged after 15 iterations.

Dipole moment: (-0.228263, -0.080264, -0.068920) |e|*Ang

Energy contributions relative to reference atoms: (reference = -24663.074771)

Kinetic:       +145.272172
Potential:     -141.033979
External:        +0.000000
XC:            -179.658769
Entropy (-ST):   -0.337222
Local:           +2.956859
--------------------------
Free energy:   -172.800940
Extrapolated:  -172.632328

Fermi level: -4.39008

 Band  Eigenvalues  Occupancy
    0    -24.07745    2.00000
    1    -23.31513    2.00000
    2    -22.72623    2.00000
    3    -21.57200    2.00000
    4    -20.94214    2.00000
    5    -20.21414    2.00000
    6    -20.16341    2.00000
    7    -19.34275    2.00000
    8    -18.68928    2.00000
    9    -18.42928    2.00000
   10    -17.90643    2.00000
   11    -17.36291    2.00000
   12    -16.58872    2.00000
   13    -16.21791    2.00000
   14    -15.65227    2.00000
   15    -15.12136    2.00000
   16    -14.34617    2.00000
   17    -13.33448    2.00000
   18    -13.33000    2.00000
   19    -12.66617    2.00000
   20    -12.61177    2.00000
   21    -11.87882    2.00000
   22    -11.50073    2.00000
   23    -11.43150    2.00000
   24    -11.35996    2.00000
   25    -10.68446    2.00000
   26    -10.29492    2.00000
   27    -10.29277    2.00000
   28     -9.63014    2.00000
   29     -9.52430    2.00000
   30     -8.96916    2.00000
   31     -8.82803    2.00000
   32     -8.73878    2.00000
   33     -8.61575    2.00000
   34     -8.25504    2.00000
   35     -7.99281    2.00000
   36     -7.84316    2.00000
   37     -7.75757    2.00000
   38     -7.27814    2.00000
   39     -7.20906    2.00000
   40     -6.58230    2.00000
   41     -6.37964    2.00000
   42     -6.21048    2.00000
   43     -6.01185    2.00000
   44     -5.46978    1.99996
   45     -5.23320    1.99956
   46     -5.13032    1.99878
   47     -4.42158    1.15621
   48     -4.30484    0.59785
   49     -4.19194    0.24233
   50     -3.79545    0.00522
   51     -3.38079    0.00008
   52     -3.01075    0.00000
   53     -2.78424    0.00000
   54     -2.18760    0.00000
   55     -2.10829    0.00000
   56     -1.50917    0.00000
   57     -1.24606    0.00000
   58     -0.81358    0.00000
   59     -0.40579    0.00000
   60      0.30948    0.00000
   61      1.11281    0.00000
   62      1.47073    0.00000
   63      2.23223    0.00000
   64      2.42648    0.00000
   65      3.02255    0.00000
   66      3.13028    0.00000
   67      3.69759    0.00000
   68      3.70947    0.00000
   69      4.31395    0.00000
   70      4.79082    0.00000
   71      5.32137    0.00000
   72      5.68365    0.00000
   73      5.85925    0.00000
   74      6.51993    0.00000
   75      6.81524    0.00000
   76      6.98126    0.00000
   77      7.39719    0.00000
   78      7.61500    0.00000
   79      7.76403    0.00000
   80      7.97464    0.00000
   81      8.19053    0.00000
   82      8.32459    0.00000
   83      8.63572    0.00000
   84      8.89772    0.00000
   85      8.90574    0.00000
   86      9.07036    0.00000
   87      9.12473    0.00000
   88      9.14187    0.00000
   89      9.44610    0.00000
   90      9.46857    0.00000
   91      9.74668    0.00000
   92      9.75854    0.00000
   93      9.89720    0.00000
   94      9.96739    0.00000
   95      9.98456    0.00000
   96     10.21265    0.00000
   97     10.43444    0.00000


Forces in eV/Ang:
  0 C     0.26980   -0.00291   -0.04657
  1 C     0.40883   -0.44853   -0.18892
  2 C    -0.40700    0.22924   -0.28818
  3 C    -0.49727   -0.35602    0.20150
  4 C    -0.57551    0.37239    0.03709
  5 C    -0.81758   -2.44689   -0.28229
  6 C     1.41877    2.02703   -0.52621
  7 C    -3.06052    1.16484    0.35565
  8 C     1.52612   -0.12311    0.34796
  9 C     2.47127   -6.43765    1.62605
 10 C    -6.91732   18.37430   -2.73075
 11 C    -3.72377   17.03749   -3.44045
 12 C     0.21564    0.14772   -0.08241
 13 C     0.07850    0.52031   -0.32597
 14 C    -0.16531   -0.50227   -0.13867
 15 C    -0.62997    0.04777    0.11888
 16 C    -0.22241   -0.61670    0.20783
 17 C    -2.06603    1.29207   -0.88554
 18 C     2.39220   -0.86932   -0.02698
 19 C    -1.82518   -2.59327    0.96448
 20 C     1.14216    1.10634    0.12243
 21 C    -1.95714    6.79739   -0.56417
 22 C     5.57682  -18.71815    3.48898
 23 C     7.40426  -16.04071    2.10962

System changes: positions 

Initializing position-dependent things.

Density initialized from wave functions
           .--------------------------------------.  
          /|                                      |  
         / |                                      |  
        /  |                                      |  
       /   |                                      |  
      /    |                                      |  
     /     |                                      |  
    /      |                                      |  
   /       |                                      |  
  /        |           C  C                       |  
 *         |  C C   C      C   C  C               |  
 |         | C       C  CC CC  C CC               |  
 |         .-C-C-C-----------------C--------------.  
 |        /                                      /   
 |       /                                      /    
 |      /                                      /     
 |     /                                      /      
 |    /                                      /       
 |   /                                      /        
 |  /                                      /         
 | /                                      /          
 |/                                      /           
 *--------------------------------------*            

Positions:
   0 C      6.376395    9.789240    5.939637
   1 C      4.074095    8.705521    5.846344
   2 C      7.619788    9.809829    5.800163
   3 C      5.491515    8.688102    5.819959
   4 C     10.978861    9.967021    4.853685
   5 C      3.532736    7.510469    5.685442
   6 C      8.505604    8.765803    5.465621
   7 C      9.852953    9.081379    5.154050
   8 C      6.327061    7.468844    5.599772
   9 C      3.276911    6.207646    5.571990
  10 C      7.753394    7.528000    5.443202
  11 C     11.102025    8.567600    4.920204
  12 C      8.317265    4.017791    6.904956
  13 C      5.841789    3.449134    6.725773
  14 C      9.340102    4.694285    6.656045
  15 C      6.970559    4.290077    6.555525
  16 C     12.219453    6.278428    5.470710
  17 C      4.719146    3.982568    6.275693
  18 C      9.468061    5.904059    5.944393
  19 C     10.764776    6.369407    5.607572
  20 C      6.943743    5.635795    5.906237
  21 C      3.757433    4.779243    5.811110
  22 C      8.137729    6.385728    5.634426
  23 C     11.486555    7.423925    5.111752

Unit cell:
           periodic     x           y           z      points  spacing
  1. axis:    yes   16.000000    0.000000    0.000000    80     0.2000
  2. axis:    yes    0.000000   16.000000    0.000000    80     0.2000
  3. axis:    yes    0.000000    0.000000   10.000000    48     0.2083

Effective grid spacing dv^(1/3) = 0.2027

                     log10-error:    total        iterations:
           time      wfs    density  energy       fermi  poisson
iter:   1  10:23:09          +inf  -175.483022    3      5      
iter:   2  10:23:10         -1.70  -175.124797    3      2      
iter:   3  10:23:10         -1.87  -175.019363    3      2      
iter:   4  10:23:11         -1.97  -175.076034    3      2      
iter:   5  10:23:11         -1.96  -175.011326    3      2      
iter:   6  10:23:12         -2.13  -174.972735    3      2      
iter:   7  10:23:13         -2.58  -174.982667    3      2      
iter:   8  10:23:13         -2.49  -174.970957    2      2      
iter:   9  10:23:14         -3.07  -174.972247    2      1      
iter:  10  10:23:14         -3.31  -174.971902    2      1      
iter:  11  10:23:15         -3.38  -174.970993    2      1      
iter:  12  10:23:16         -3.45  -174.971323    2      1      
iter:  13  10:23:16         -3.62  -174.970835    2      1      
iter:  14  10:23:17         -3.68  -174.970834    2      1      
iter:  15  10:23:17         -3.76  -174.970664    2      1      
iter:  16  10:23:18         -3.93  -174.970776    2      1      
iter:  17  10:23:18         -4.03  -174.970428    2      1      

Converged after 17 iterations.

Dipole moment: (-0.375623, -0.128254, -0.069044) |e|*Ang

Energy contributions relative to reference atoms: (reference = -24663.074771)

Kinetic:       +135.501875
Potential:     -134.669799
External:        +0.000000
XC:            -178.626932
Entropy (-ST):   -0.284493
Local:           +2.966676
--------------------------
Free energy:   -175.112675
Extrapolated:  -174.970428

Fermi level: -4.34970

 Band  Eigenvalues  Occupancy
    0    -23.91236    2.00000
    1    -23.27586    2.00000
    2    -22.66361    2.00000
    3    -21.59517    2.00000
    4    -20.91230    2.00000
    5    -20.21002    2.00000
    6    -20.20591    2.00000
    7    -19.41730    2.00000
    8    -18.70268    2.00000
    9    -18.10481    2.00000
   10    -17.92524    2.00000
   11    -17.38810    2.00000
   12    -16.64692    2.00000
   13    -16.25203    2.00000
   14    -15.61928    2.00000
   15    -15.19431    2.00000
   16    -14.36427    2.00000
   17    -13.55382    2.00000
   18    -13.30169    2.00000
   19    -12.75511    2.00000
   20    -12.69101    2.00000
   21    -11.83545    2.00000
   22    -11.51749    2.00000
   23    -11.44710    2.00000
   24    -11.27253    2.00000
   25    -10.57875    2.00000
   26    -10.34837    2.00000
   27    -10.21903    2.00000
   28     -9.66036    2.00000
   29     -9.53451    2.00000
   30     -8.97595    2.00000
   31     -8.83674    2.00000
   32     -8.69220    2.00000
   33     -8.58683    2.00000
   34     -8.29908    2.00000
   35     -7.99668    2.00000
   36     -7.88776    2.00000
   37     -7.73009    2.00000
   38     -7.32997    2.00000
   39     -7.16819    2.00000
   40     -6.60384    2.00000
   41     -6.38033    2.00000
   42     -6.19268    2.00000
   43     -5.83592    2.00000
   44     -5.57351    1.99999
   45     -5.31665    1.99987
   46     -5.20737    1.99962
   47     -4.42255    1.34895
   48     -4.25550    0.56100
   49     -4.03791    0.08476
   50     -3.76409    0.00571
   51     -3.35327    0.00009
   52     -2.90124    0.00000
   53     -2.65936    0.00000
   54     -2.22074    0.00000
   55     -2.00849    0.00000
   56     -1.41992    0.00000
   57     -1.22560    0.00000
   58     -1.08062    0.00000
   59     -0.42616    0.00000
   60      0.35789    0.00000
   61      1.03167    0.00000
   62      1.35404    0.00000
   63      2.19400    0.00000
   64      2.27195    0.00000
   65      3.01936    0.00000
   66      3.25227    0.00000
   67      3.72243    0.00000
   68      3.74199    0.00000
   69      4.52544    0.00000
   70      4.76321    0.00000
   71      5.55000    0.00000
   72      5.72271    0.00000
   73      5.82176    0.00000
   74      6.65866    0.00000
   75      6.82077    0.00000
   76      6.88631    0.00000
   77      7.37652    0.00000
   78      7.53944    0.00000
   79      7.66961    0.00000
   80      8.00772    0.00000
   81      8.21866    0.00000
   82      8.34095    0.00000
   83      8.63275    0.00000
   84      8.82749    0.00000
   85      8.90806    0.00000
   86      9.03103    0.00000
   87      9.06229    0.00000
   88      9.14648    0.00000
   89      9.40649    0.00000
   90      9.48387    0.00000
   91      9.73222    0.00000
   92      9.77819    0.00000
   93      9.89450    0.00000
   94      9.96003    0.00000
   95      9.99602    0.00000
   96     10.23793    0.00000
   97     10.41884    0.00000


Forces in eV/Ang:
  0 C    -0.14731   -0.08317   -0.01641
  1 C    -0.21119   -1.36712   -0.29129
  2 C    -0.29113    0.38708   -0.26508
  3 C    -0.10058   -0.30261    0.17309
  4 C    -0.61567    0.75589    0.02749
  5 C    -0.51314   -2.10418   -0.20500
  6 C     0.42852    1.37134   -0.33916
  7 C    -1.39970    0.99955   -0.02617
  8 C     0.97667   -0.01489    0.37824
  9 C     2.46785   -5.23259    1.60361
 10 C    -4.93221   14.76131   -2.15528
 11 C    -2.39363   10.67930   -2.22686
 12 C    -0.16799   -0.02967   -0.03498
 13 C    -0.95963    0.82192   -0.62883
 14 C     0.01905   -0.54919   -0.08513
 15 C    -0.28812    0.22637    0.07628
 16 C    -0.00508   -0.92628    0.32078
 17 C    -1.61428    1.20843   -0.75783
 18 C     1.20825   -0.89345    0.04462
 19 C    -0.55926   -1.56606    0.41259
 20 C     0.77447    0.71190    0.24222
 21 C    -1.29262    5.88973   -0.25730
 22 C     4.96831  -14.63890    2.78480
 23 C     4.60808  -10.09869    1.24678

System changes: positions 

Initializing position-dependent things.

Density initialized from wave functions
           .--------------------------------------.  
          /|                                      |  
         / |                                      |  
        /  |                                      |  
       /   |                                      |  
      /    |                                      |  
     /     |                                      |  
    /      |                                      |  
   /       |                                      |  
  /        |           C  C                       |  
 *         |  C C   C      C   C  C               |  
 |         | C       C  CC CC  C CC               |  
 |         .-C-C-C-----------------C--------------.  
 |        /                                      /   
 |       /                                      /    
 |      /                                      /     
 |     /                                      /      
 |    /                                      /       
 |   /                                      /        
 |  /                                      /         
 | /                                      /          
 |/                                      /           
 *--------------------------------------*            

Positions:
   0 C      6.372808    9.788021    5.939533
   1 C      4.070130    8.692207    5.843813
   2 C      7.617825    9.814126    5.798351
   3 C      5.491364    8.687395    5.821520
   4 C     10.978663    9.980904    4.852705
   5 C      3.530424    7.495732    5.684071
   6 C      8.504586    8.777045    5.464422
   7 C      9.848774    9.081619    5.152714
   8 C      6.334824    7.469089    5.602557
   9 C      3.295141    6.174452    5.583765
  10 C      7.744596    7.553304    5.439900
  11 C     11.102374    8.573447    4.916859
  12 C      8.313645    4.016551    6.904781
  13 C      5.830899    3.456134    6.720069
  14 C      9.341227    4.689301    6.655947
  15 C      6.969736    4.291001    6.556778
  16 C     12.227952    6.267593    5.473960
  17 C      4.708822    3.991766    6.270244
  18 C      9.474259    5.894577    5.946648
  19 C     10.761469    6.366617    5.606921
  20 C      6.950169    5.641109    5.908073
  21 C      3.750954    4.818713    5.810679
  22 C      8.146060    6.360467    5.639806
  23 C     11.490597    7.418878    5.110274

Unit cell:
           periodic     x           y           z      points  spacing
  1. axis:    yes   16.000000    0.000000    0.000000    80     0.2000
  2. axis:    yes    0.000000   16.000000    0.000000    80     0.2000
  3. axis:    yes    0.000000    0.000000   10.000000    48     0.2083

Effective grid spacing dv^(1/3) = 0.2027

                     log10-error:    total        iterations:
           time      wfs    density  energy       fermi  poisson
iter:   1  10:23:20          +inf  -177.005981    3      5      
iter:   2  10:23:21         -1.72  -176.625020    4      2      
iter:   3  10:23:22         -1.90  -176.505966    3      2      
iter:   4  10:23:22         -1.80  -176.447529    3      2      
iter:   5  10:23:23         -2.20  -176.451683    3      2      
iter:   6  10:23:24         -2.30  -176.434852    3      2      
iter:   7  10:23:24         -2.55  -176.434657    2      2      
iter:   8  10:23:25         -2.67  -176.438878    2      2      
iter:   9  10:23:25         -2.64  -176.429114    2      2      
iter:  10  10:23:26         -3.42  -176.429837    2      1      
iter:  11  10:23:26         -3.58  -176.429986    2      1      
iter:  12  10:23:27         -3.69  -176.429305    2      1      
iter:  13  10:23:28         -3.76  -176.429517    2      1      
iter:  14  10:23:28         -3.91  -176.429509    2      1      
iter:  15  10:23:29         -4.01  -176.429361    2      1      

Converged after 15 iterations.

Dipole moment: (-0.515290, -0.170327, -0.053711) |e|*Ang

Energy contributions relative to reference atoms: (reference = -24663.074771)

Kinetic:       +130.107011
Potential:     -131.270115
External:        +0.000000
XC:            -178.103001
Entropy (-ST):   -0.263819
Local:           +2.968653
--------------------------
Free energy:   -176.561270
Extrapolated:  -176.429361

Fermi level: -4.29181

 Band  Eigenvalues  Occupancy
    0    -23.74471    2.00000
    1    -23.12084    2.00000
    2    -22.50119    2.00000
    3    -21.62047    2.00000
    4    -20.85960    2.00000
    5    -20.21478    2.00000
    6    -20.21077    2.00000
    7    -19.51238    2.00000
    8    -18.71235    2.00000
    9    -18.18306    2.00000
   10    -17.78876    2.00000
   11    -17.38825    2.00000
   12    -16.66276    2.00000
   13    -16.26607    2.00000
   14    -15.51335    2.00000
   15    -15.22001    2.00000
   16    -14.34924    2.00000
   17    -13.78552    2.00000
   18    -13.31957    2.00000
   19    -12.79692    2.00000
   20    -12.71316    2.00000
   21    -11.80942    2.00000
   22    -11.50949    2.00000
   23    -11.47824    2.00000
   24    -11.17812    2.00000
   25    -10.46060    2.00000
   26    -10.43369    2.00000
   27    -10.02838    2.00000
   28     -9.66896    2.00000
   29     -9.52723    2.00000
   30     -9.00231    2.00000
   31     -8.79397    2.00000
   32     -8.60130    2.00000
   33     -8.58159    2.00000
   34     -8.36616    2.00000
   35     -7.96599    2.00000
   36     -7.88424    2.00000
   37     -7.70198    2.00000
   38     -7.35579    2.00000
   39     -7.16087    2.00000
   40     -6.61641    2.00000
   41     -6.36877    2.00000
   42     -6.16535    2.00000
   43     -5.77797    2.00000
   44     -5.68334    2.00000
   45     -5.39511    1.99997
   46     -5.26571    1.99988
   47     -4.38498    1.43484
   48     -4.18051    0.49464
   49     -3.95191    0.06465
   50     -3.70932    0.00589
   51     -3.32095    0.00012
   52     -2.86171    0.00000
   53     -2.59046    0.00000
   54     -2.21135    0.00000
   55     -1.89795    0.00000
   56     -1.37972    0.00000
   57     -1.29887    0.00000
   58     -1.11601    0.00000
   59     -0.42805    0.00000
   60      0.37965    0.00000
   61      0.93491    0.00000
   62      1.28314    0.00000
   63      2.16197    0.00000
   64      2.28637    0.00000
   65      3.08226    0.00000
   66      3.29898    0.00000
   67      3.73261    0.00000
   68      3.78940    0.00000
   69      4.72539    0.00000
   70      4.72615    0.00000
   71      5.54986    0.00000
   72      5.69860    0.00000
   73      6.07191    0.00000
   74      6.62159    0.00000
   75      6.88198    0.00000
   76      7.01433    0.00000
   77      7.38190    0.00000
   78      7.58787    0.00000
   79      7.59197    0.00000
   80      8.07461    0.00000
   81      8.35500    0.00000
   82      8.37225    0.00000
   83      8.63448    0.00000
   84      8.72489    0.00000
   85      8.91214    0.00000
   86      9.04523    0.00000
   87      9.10704    0.00000
   88      9.15291    0.00000
   89      9.37398    0.00000
   90      9.51999    0.00000
   91      9.71882    0.00000
   92      9.81362    0.00000
   93      9.89388    0.00000
   94      9.96941    0.00000
   95     10.03666    0.00000
   96     10.26207    0.00000
   97     10.39174    0.00000


Forces in eV/Ang:
  0 C    -0.18132   -0.05692   -0.02671
  1 C    -0.34694   -1.84422   -0.33225
  2 C    -0.47306    0.57849   -0.20031
  3 C    -0.07424   -0.32425    0.15664
  4 C    -0.67126    0.44547    0.07915
  5 C    -0.38932   -1.78196   -0.15110
  6 C     0.27146    1.28453   -0.29379
  7 C    -0.62016    1.04894   -0.20431
  8 C     0.73362    0.00379    0.42707
  9 C     2.18048   -3.96384    1.43438
 10 C    -3.00270    9.66016   -1.41925
 11 C    -2.50435   10.07955   -2.00443
 12 C    -0.17409   -0.07007   -0.02948
 13 C    -1.34798    1.09255   -0.80991
 14 C    -0.01509   -0.77319    0.03835
 15 C    -0.27381    0.25571    0.05610
 16 C    -0.26589   -0.70185    0.26624
 17 C    -1.39527    1.10229   -0.65468
 18 C     0.99683   -0.90974    0.08941
 19 C     0.13196   -1.19487    0.18095
 20 C     0.54621    0.54843    0.31645
 21 C    -0.69869    4.67241    0.00159
 22 C     3.44636   -9.42832    1.75970
 23 C     4.16149   -9.67787    1.30006

System changes: positions 

Initializing position-dependent things.

Density initialized from wave functions
           .--------------------------------------.  
          /|                                      |  
         / |                                      |  
        /  |                                      |  
       /   |                                      |  
      /    |                                      |  
     /     |                                      |  
    /      |                                      |  
   /       |                                      |  
  /        |           C  C                       |  
 *         |    C   C      C   C  C               |  
 |         | CC      C  CC CC  C CC               |  
 |         .-C-C-C-----------------C--------------.  
 |        /                                      /   
 |       /                                      /    
 |      /                                      /     
 |     /                                      /      
 |    /                                      /       
 |   /                                      /        
 |  /                                      /         
 | /                                      /          
 |/                                      /           
 *--------------------------------------*            

Positions:
   0 C      6.368219    9.786831    5.939324
   1 C      4.063696    8.669961    5.840094
   2 C      7.613472    9.821338    5.796608
   3 C      5.491726    8.685694    5.823246
   4 C     10.976001    9.993055    4.852418
   5 C      3.528461    7.479829    5.682869
   6 C      8.502030    8.789563    5.463030
   7 C      9.850964    9.085140    5.149099
   8 C      6.341559    7.469602    5.606752
   9 C      3.316105    6.143266    5.597476
  10 C      7.744115    7.563821    5.438692
  11 C     11.096108    8.596344    4.911010
  12 C      8.309295    4.014691    6.904637
  13 C      5.812817    3.468101    6.710768
  14 C      9.342199    4.680795    6.656934
  15 C      6.968729    4.293058    6.557876
  16 C     12.233230    6.256897    5.477455
  17 C      4.697473    4.002519    6.264264
  18 C      9.479753    5.883125    5.949370
  19 C     10.765553    6.364534    5.604474
  20 C      6.955482    5.645855    5.911380
  21 C      3.748159    4.858469    5.812567
  22 C      8.152239    6.352102    5.641666
  23 C     11.499860    7.396072    5.112095

Unit cell:
           periodic     x           y           z      points  spacing
  1. axis:    yes   16.000000    0.000000    0.000000    80     0.2000
  2. axis:    yes    0.000000   16.000000    0.000000    80     0.2000
  3. axis:    yes    0.000000    0.000000   10.000000    48     0.2083

Effective grid spacing dv^(1/3) = 0.2027

                     log10-error:    total        iterations:
           time      wfs    density  energy       fermi  poisson
iter:   1  10:23:31          +inf  -178.208344    4      5      
iter:   2  10:23:31         -1.74  -177.869984    4      2      
iter:   3  10:23:32         -1.88  -177.654722    4      2      
iter:   4  10:23:33         -1.80  -177.617242    3      2      
iter:   5  10:23:33         -2.20  -177.627355    3      2      
iter:   6  10:23:34         -2.23  -177.615086    2      2      
iter:   7  10:23:35         -2.33  -177.598922    2      2      
iter:   8  10:23:35         -2.62  -177.604436    2      2      
iter:   9  10:23:36         -2.60  -177.584878    3      2      
iter:  10  10:23:36         -2.78  -177.592813    2      1      
iter:  11  10:23:37         -3.49  -177.592481    2      1      
iter:  12  10:23:37         -3.60  -177.591534    2      1      
iter:  13  10:23:38         -3.73  -177.592266    2      1      
iter:  14  10:23:39         -3.81  -177.591859    2      1      
iter:  15  10:23:39         -3.96  -177.591364    2      1      
iter:  16  10:23:40         -4.06  -177.591874    2      1      

Converged after 16 iterations.

Dipole moment: (-0.694226, -0.225179, -0.033268) |e|*Ang

Energy contributions relative to reference atoms: (reference = -24663.074771)

Kinetic:       +129.454484
Potential:     -131.321795
External:        +0.000000
XC:            -178.585610
Entropy (-ST):   -0.228090
Local:           +2.975092
--------------------------
Free energy:   -177.705919
Extrapolated:  -177.591874

Fermi level: -4.23118

 Band  Eigenvalues  Occupancy
    0    -23.67529    2.00000
    1    -23.05745    2.00000
    2    -22.55098    2.00000
    3    -21.64211    2.00000
    4    -20.87683    2.00000
    5    -20.24591    2.00000
    6    -20.22294    2.00000
    7    -19.61818    2.00000
    8    -18.72235    2.00000
    9    -18.28537    2.00000
   10    -17.44336    2.00000
   11    -17.39474    2.00000
   12    -16.64508    2.00000
   13    -16.34281    2.00000
   14    -15.45695    2.00000
   15    -15.23040    2.00000
   16    -14.31277    2.00000
   17    -14.01163    2.00000
   18    -13.30124    2.00000
   19    -12.83873    2.00000
   20    -12.71008    2.00000
   21    -11.86414    2.00000
   22    -11.53691    2.00000
   23    -11.44924    2.00000
   24    -11.10363    2.00000
   25    -10.44734    2.00000
   26    -10.37531    2.00000
   27     -9.95991    2.00000
   28     -9.68976    2.00000
   29     -9.54761    2.00000
   30     -9.09402    2.00000
   31     -8.81461    2.00000
   32     -8.69500    2.00000
   33     -8.55456    2.00000
   34     -8.39143    2.00000
   35     -7.95797    2.00000
   36     -7.83448    2.00000
   37     -7.72836    2.00000
   38     -7.35067    2.00000
   39     -7.19005    2.00000
   40     -6.62945    2.00000
   41     -6.37696    2.00000
   42     -6.16110    2.00000
   43     -5.81392    2.00000
   44     -5.64638    2.00000
   45     -5.43545    1.99999
   46     -5.28562    1.99995
   47     -4.35716    1.55798
   48     -4.09259    0.40013
   49     -3.82933    0.03533
   50     -3.65845    0.00649
   51     -3.27347    0.00014
   52     -2.85282    0.00000
   53     -2.44334    0.00000
   54     -2.21893    0.00000
   55     -1.77998    0.00000
   56     -1.48222    0.00000
   57     -1.33756    0.00000
   58     -0.93420    0.00000
   59     -0.41542    0.00000
   60      0.41042    0.00000
   61      0.89374    0.00000
   62      1.25044    0.00000
   63      2.03316    0.00000
   64      2.46725    0.00000
   65      3.21138    0.00000
   66      3.38300    0.00000
   67      3.81464    0.00000
   68      3.86065    0.00000
   69      4.71461    0.00000
   70      4.78559    0.00000
   71      5.54006    0.00000
   72      5.59156    0.00000
   73      6.21400    0.00000
   74      6.63449    0.00000
   75      6.91224    0.00000
   76      7.17034    0.00000
   77      7.39234    0.00000
   78      7.53406    0.00000
   79      7.66620    0.00000
   80      8.07691    0.00000
   81      8.37990    0.00000
   82      8.54797    0.00000
   83      8.60531    0.00000
   84      8.67150    0.00000
   85      8.89673    0.00000
   86      9.03567    0.00000
   87      9.11495    0.00000
   88      9.20455    0.00000
   89      9.32809    0.00000
   90      9.52564    0.00000
   91      9.71469    0.00000
   92      9.84861    0.00000
   93      9.92231    0.00000
   94      9.99211    0.00000
   95     10.07587    0.00000
   96     10.30272    0.00000
   97     10.37368    0.00000


Forces in eV/Ang:
  0 C    -0.33795   -0.04408   -0.01295
  1 C    -0.22848   -1.97172   -0.32552
  2 C    -0.43405    0.59342   -0.19521
  3 C    -0.06607   -0.39303    0.13042
  4 C    -0.51600    0.97554    0.02429
  5 C    -0.38605   -1.50342   -0.11959
  6 C     0.25143    1.11102   -0.30756
  7 C    -0.86963    0.98825   -0.14826
  8 C     0.53900    0.02491    0.44355
  9 C     1.53585   -2.18331    1.09367
 10 C    -2.28801    8.26298   -1.18650
 11 C    -1.16343    6.00591   -1.39366
 12 C    -0.29747   -0.16461    0.00555
 13 C    -1.33826    1.25208   -0.86794
 14 C     0.02730   -0.76474    0.02626
 15 C    -0.30607    0.30431    0.01263
 16 C     0.14837   -1.01014    0.37210
 17 C    -1.16242    0.86292   -0.48802
 18 C     0.86396   -0.79309    0.05309
 19 C    -0.08752   -1.30353    0.24445
 20 C     0.39708    0.41835    0.36280
 21 C    -0.15438    2.86517    0.25138
 22 C     3.14081   -7.88979    1.50891
 23 C     2.74601   -5.60302    0.57880

System changes: positions 

Initializing position-dependent things.

Density initialized from wave functions
           .--------------------------------------.  
          /|                                      |  
         / |                                      |  
        /  |                                      |  
       /   |                                      |  
      /    |                                      |  
     /     |                                      |  
    /      |                                      |  
   /       |                                      |  
  /        |           C  C                       |  
 *         |    C   C      C   C  C               |  
 |         | CC      CC CC CC  C CC               |  
 |         .-C-C-C-----------------C--------------.  
 |        /                                      /   
 |       /                                      /    
 |      /                                      /     
 |     /                                      /      
 |    /                                      /       
 |   /                                      /        
 |  /                                      /         
 | /                                      /          
 |/                                      /           
 *--------------------------------------*            

Positions:
   0 C      6.359589    9.785523    5.939083
   1 C      4.056809    8.631404    5.834040
   2 C      7.605651    9.833684    5.793713
   3 C      5.491272    8.680675    5.825710
   4 C     10.972111   10.017949    4.851653
   5 C      3.523999    7.456552    5.681203
   6 C      8.501199    8.809410    5.459434
   7 C      9.845631    9.093895    5.144756
   8 C      6.350472    7.470474    5.614418
   9 C      3.340740    6.117675    5.615122
  10 C      7.743902    7.589325    5.435717
  11 C     11.096745    8.612507    4.903130
  12 C      8.301593    4.010607    6.904846
  13 C      5.784716    3.491306    6.694280
  14 C      9.343619    4.665992    6.658425
  15 C      6.964987    4.297423    6.558798
  16 C     12.244605    6.236077    5.484552
  17 C      4.680431    4.016948    6.256600
  18 C      9.490746    5.866422    5.952598
  19 C     10.767143    6.353569    5.603702
  20 C      6.962195    5.652443    5.917826
  21 C      3.751289    4.897301    5.819467
  22 C      8.167305    6.332249    5.646102
  23 C     11.510626    7.382189    5.109848

Unit cell:
           periodic     x           y           z      points  spacing
  1. axis:    yes   16.000000    0.000000    0.000000    80     0.2000
  2. axis:    yes    0.000000   16.000000    0.000000    80     0.2000
  3. axis:    yes    0.000000    0.000000   10.000000    48     0.2083

Effective grid spacing dv^(1/3) = 0.2027

                     log10-error:    total        iterations:
           time      wfs    density  energy       fermi  poisson
iter:   1  10:23:42          +inf  -179.571859    5      5      
iter:   2  10:23:43         -1.66  -179.122540    4      2      
iter:   3  10:23:43         -1.81  -178.647975    4      2      
iter:   4  10:23:44         -2.11  -178.679230    3      2      
iter:   5  10:23:44         -2.15  -178.637375    3      2      
iter:   6  10:23:45         -2.46  -178.642233    2      1      
iter:   7  10:23:46         -2.46  -178.632715    2      2      
iter:   8  10:23:46         -2.87  -178.633723    2      1      
iter:   9  10:23:47         -2.90  -178.633626    2      2      
iter:  10  10:23:47         -3.25  -178.632663    2      1      
iter:  11  10:23:48         -3.38  -178.633741    2      1      
iter:  12  10:23:48         -3.50  -178.634096    2      1      
iter:  13  10:23:49         -3.59  -178.633562    1      1      
iter:  14  10:23:50         -3.80  -178.633465    2      1      
iter:  15  10:23:50         -3.89  -178.633253    2      1      
iter:  16  10:23:51         -3.93  -178.633752    2      1      
iter:  17  10:23:51         -4.07  -178.633696    2      1      

Converged after 17 iterations.

Dipole moment: (-0.881668, -0.282973, -0.007742) |e|*Ang

Energy contributions relative to reference atoms: (reference = -24663.074771)

Kinetic:       +129.043289
Potential:     -131.613606
External:        +0.000000
XC:            -178.939342
Entropy (-ST):   -0.203468
Local:           +2.977698
--------------------------
Free energy:   -178.735430
Extrapolated:  -178.633696

Fermi level: -4.15363

 Band  Eigenvalues  Occupancy
    0    -23.44335    2.00000
    1    -22.89646    2.00000
    2    -22.37580    2.00000
    3    -21.65100    2.00000
    4    -20.93408    2.00000
    5    -20.26606    2.00000
    6    -20.26333    2.00000
    7    -19.74380    2.00000
    8    -18.78326    2.00000
    9    -18.40792    2.00000
   10    -17.42128    2.00000
   11    -17.11464    2.00000
   12    -16.66610    2.00000
   13    -16.43091    2.00000
   14    -15.31609    2.00000
   15    -15.28941    2.00000
   16    -14.32042    2.00000
   17    -14.17414    2.00000
   18    -13.31613    2.00000
   19    -12.90207    2.00000
   20    -12.68382    2.00000
   21    -11.94799    2.00000
   22    -11.62010    2.00000
   23    -11.32520    2.00000
   24    -10.97658    2.00000
   25    -10.49874    2.00000
   26    -10.21687    2.00000
   27     -9.78729    2.00000
   28     -9.67796    2.00000
   29     -9.53769    2.00000
   30     -9.24498    2.00000
   31     -8.92293    2.00000
   32     -8.78904    2.00000
   33     -8.44401    2.00000
   34     -8.41240    2.00000
   35     -7.95532    2.00000
   36     -7.73897    2.00000
   37     -7.73732    2.00000
   38     -7.33286    2.00000
   39     -7.27142    2.00000
   40     -6.64680    2.00000
   41     -6.37231    2.00000
   42     -6.16427    2.00000
   43     -5.92548    2.00000
   44     -5.64654    2.00000
   45     -5.41714    1.99999
   46     -5.33245    1.99998
   47     -4.30689    1.64477
   48     -3.98482    0.31204
   49     -3.74579    0.03330
   50     -3.62140    0.00972
   51     -3.22671    0.00019
   52     -2.83687    0.00000
   53     -2.36124    0.00000
   54     -2.15849    0.00000
   55     -1.67201    0.00000
   56     -1.58246    0.00000
   57     -1.31161    0.00000
   58     -0.65853    0.00000
   59     -0.37640    0.00000
   60      0.42826    0.00000
   61      0.81520    0.00000
   62      1.28180    0.00000
   63      1.92017    0.00000
   64      2.52836    0.00000
   65      3.39623    0.00000
   66      3.43894    0.00000
   67      3.92132    0.00000
   68      3.93052    0.00000
   69      4.67309    0.00000
   70      4.91371    0.00000
   71      5.32153    0.00000
   72      5.67752    0.00000
   73      6.32943    0.00000
   74      6.72142    0.00000
   75      6.91953    0.00000
   76      7.26726    0.00000
   77      7.37035    0.00000
   78      7.49097    0.00000
   79      7.70974    0.00000
   80      8.12726    0.00000
   81      8.38087    0.00000
   82      8.47048    0.00000
   83      8.59489    0.00000
   84      8.71174    0.00000
   85      8.88656    0.00000
   86      9.01481    0.00000
   87      9.09355    0.00000
   88      9.21064    0.00000
   89      9.39765    0.00000
   90      9.60157    0.00000
   91      9.71367    0.00000
   92      9.86356    0.00000
   93      9.93916    0.00000
   94     10.05751    0.00000
   95     10.11746    0.00000
   96     10.32100    0.00000
   97     10.34736    0.00000


Forces in eV/Ang:
  0 C    -0.41864   -0.00414   -0.01738
  1 C     0.18583   -1.59010   -0.26015
  2 C    -0.52503    0.66410   -0.16468
  3 C    -0.15326   -0.44061    0.12289
  4 C    -0.56368    0.64291    0.04008
  5 C    -0.46850   -1.05066   -0.08406
  6 C    -0.01349    0.98954   -0.23511
  7 C    -0.02625    1.00825   -0.32825
  8 C     0.44699   -0.03461    0.42536
  9 C     0.42364    0.04862    0.50958
 10 C    -1.15442    5.03351   -0.69787
 11 C    -0.95013    4.37576   -0.96286
 12 C    -0.35632   -0.24757    0.02007
 13 C    -0.78154    1.21942   -0.73205
 14 C    -0.00375   -0.86213    0.09736
 15 C    -0.40022    0.27169    0.00282
 16 C    -0.07365   -0.77843    0.29429
 17 C    -0.99981    0.51756   -0.34371
 18 C     0.59796   -0.80156    0.07504
 19 C     0.59106   -0.88053    0.00478
 20 C     0.32163    0.40706    0.38052
 21 C     0.33083    0.35750    0.49931
 22 C     2.12341   -4.68259    0.92679
 23 C     1.89772   -4.10968    0.44605

System changes: positions 

Initializing position-dependent things.

Density initialized from wave functions
           .--------------------------------------.  
          /|                                      |  
         / |                                      |  
        /  |                                      |  
       /   |                                      |  
      /    |                                      |  
     /     |                                      |  
    /      |                                      |  
   /       |                                      |  
  /        |           C  C                       |  
 *         |    C   C      C   C  C               |  
 |         | CC      CC CC CC  C CC               |  
 |         .-C-C-C-----------------C--------------.  
 |        /                                      /   
 |       /                                      /    
 |      /                                      /     
 |     /                                      /      
 |    /                                      /       
 |   /                                      /        
 |  /                                      /         
 | /                                      /          
 |/                                      /           
 *--------------------------------------*            

Positions:
   0 C      6.348488    9.784600    5.938729
   1 C      4.055933    8.592088    5.827775
   2 C      7.594974    9.849140    5.790314
   3 C      5.489019    8.673344    5.828668
   4 C     10.965345   10.042033    4.851143
   5 C      3.516239    7.433134    5.679432
   6 C      8.497718    8.832424    5.455577
   7 C      9.848114    9.107035    5.137374
   8 C      6.361016    7.470423    5.623517
   9 C      3.355219    6.113985    5.628694
  10 C      7.746606    7.612097    5.433497
  11 C     11.095149    8.632768    4.895178
  12 C      8.291842    4.004692    6.905266
  13 C      5.761014    3.518412    6.676859
  14 C      9.344694    4.646985    6.660851
  15 C      6.958397    4.302409    6.559707
  16 C     12.253438    6.214381    5.492023
  17 C      4.660323    4.029931    6.248795
  18 C      9.501900    5.846199    5.956310
  19 C     10.777436    6.342914    5.600731
  20 C      6.970115    5.661174    5.925842
  21 C      3.759553    4.912538    5.830518
  22 C      8.183378    6.315893    5.650406
  23 C     11.521748    7.364212    5.108348

Unit cell:
           periodic     x           y           z      points  spacing
  1. axis:    yes   16.000000    0.000000    0.000000    80     0.2000
  2. axis:    yes    0.000000   16.000000    0.000000    80     0.2000
  3. axis:    yes    0.000000    0.000000   10.000000    48     0.2083

Effective grid spacing dv^(1/3) = 0.2027

                     log10-error:    total        iterations:
           time      wfs    density  energy       fermi  poisson
iter:   1  10:23:54          +inf  -179.943072    5      5      
iter:   2  10:23:54         -1.73  -179.647713    4      2      
iter:   3  10:23:55         -1.87  -179.306680    3      2      
iter:   4  10:23:55         -2.23  -179.336421    3      2      
iter:   5  10:23:56         -2.28  -179.307101    2      2      
iter:   6  10:23:57         -2.63  -179.307331    2      1      
iter:   7  10:23:57         -2.66  -179.306483    2      2      
iter:   8  10:23:58         -3.00  -179.302163    2      1      
iter:   9  10:23:58         -2.97  -179.305919    2      2      
iter:  10  10:23:59         -3.51  -179.305664    2      1      
iter:  11  10:24:00         -3.58  -179.306241    2      1      
iter:  12  10:24:00         -3.78  -179.306105    1      1      
iter:  13  10:24:01         -3.85  -179.306059    2      1      
iter:  14  10:24:01         -3.98  -179.305978    2      1      
iter:  15  10:24:02         -4.06  -179.305740    2      1      

Converged after 15 iterations.

Dipole moment: (-0.995132, -0.318322, 0.007524) |e|*Ang

Energy contributions relative to reference atoms: (reference = -24663.074771)

Kinetic:       +129.721223
Potential:     -132.510715
External:        +0.000000
XC:            -179.411317
Entropy (-ST):   -0.174848
Local:           +2.982493
--------------------------
Free energy:   -179.393164
Extrapolated:  -179.305740

Fermi level: -4.12876

 Band  Eigenvalues  Occupancy
    0    -23.33026    2.00000
    1    -22.79476    2.00000
    2    -22.35935    2.00000
    3    -21.66970    2.00000
    4    -21.02455    2.00000
    5    -20.32239    2.00000
    6    -20.24353    2.00000
    7    -19.77697    2.00000
    8    -18.85474    2.00000
    9    -18.43056    2.00000
   10    -17.46600    2.00000
   11    -16.81514    2.00000
   12    -16.72912    2.00000
   13    -16.46251    2.00000
   14    -15.34061    2.00000
   15    -15.18575    2.00000
   16    -14.39811    2.00000
   17    -14.16800    2.00000
   18    -13.32543    2.00000
   19    -12.96824    2.00000
   20    -12.67116    2.00000
   21    -12.01869    2.00000
   22    -11.70058    2.00000
   23    -11.21344    2.00000
   24    -10.89256    2.00000
   25    -10.55397    2.00000
   26    -10.12366    2.00000
   27     -9.70601    2.00000
   28     -9.65903    2.00000
   29     -9.57652    2.00000
   30     -9.35893    2.00000
   31     -9.08573    2.00000
   32     -8.81605    2.00000
   33     -8.45749    2.00000
   34     -8.39720    2.00000
   35     -7.93615    2.00000
   36     -7.79708    2.00000
   37     -7.66757    2.00000
   38     -7.37815    2.00000
   39     -7.29582    2.00000
   40     -6.66185    2.00000
   41     -6.37191    2.00000
   42     -6.20647    2.00000
   43     -5.93134    2.00000
   44     -5.63177    2.00000
   45     -5.37977    1.99999
   46     -5.34827    1.99999
   47     -4.30882    1.71644
   48     -3.93676    0.25573
   49     -3.64062    0.01506
   50     -3.62220    0.01254
   51     -3.22820    0.00025
   52     -2.82658    0.00000
   53     -2.29763    0.00000
   54     -2.08715    0.00000
   55     -1.61116    0.00000
   56     -1.52893    0.00000
   57     -1.27724    0.00000
   58     -0.41203    0.00000
   59     -0.33798    0.00000
   60      0.41872    0.00000
   61      0.73380    0.00000
   62      1.37059    0.00000
   63      1.75504    0.00000
   64      2.64500    0.00000
   65      3.48366    0.00000
   66      3.49721    0.00000
   67      3.98189    0.00000
   68      4.07771    0.00000
   69      4.63237    0.00000
   70      5.01073    0.00000
   71      5.03896    0.00000
   72      5.77967    0.00000
   73      6.34310    0.00000
   74      6.88020    0.00000
   75      6.88526    0.00000
   76      7.27209    0.00000
   77      7.31996    0.00000
   78      7.65195    0.00000
   79      7.84040    0.00000
   80      8.12193    0.00000
   81      8.25206    0.00000
   82      8.40878    0.00000
   83      8.59624    0.00000
   84      8.75769    0.00000
   85      8.87614    0.00000
   86      9.01589    0.00000
   87      9.12847    0.00000
   88      9.16635    0.00000
   89      9.44808    0.00000
   90      9.67719    0.00000
   91      9.70459    0.00000
   92      9.86406    0.00000
   93      9.96070    0.00000
   94     10.10303    0.00000
   95     10.19453    0.00000
   96     10.23213    0.00000
   97     10.31808    0.00000


Forces in eV/Ang:
  0 C    -0.44528    0.01020   -0.03339
  1 C     0.52678   -0.97008   -0.16583
  2 C    -0.57563    0.67782   -0.13559
  3 C    -0.18007   -0.48941    0.11459
  4 C    -0.42601    0.57291    0.04407
  5 C    -0.47232   -0.28876   -0.06234
  6 C     0.08410    0.85942   -0.24723
  7 C    -0.22989    0.93500   -0.24699
  8 C     0.42214   -0.15321    0.44806
  9 C    -0.20267   -0.06546    0.22415
 10 C    -0.32933    2.96988   -0.37318
 11 C    -0.22900    2.29355   -0.59822
 12 C    -0.32598   -0.25342    0.00488
 13 C    -0.13601    0.97231   -0.48484
 14 C    -0.09025   -0.92196    0.13314
 15 C    -0.45197    0.27018   -0.00938
 16 C    -0.00661   -0.66931    0.23893
 17 C    -0.50314   -0.10947   -0.07277
 18 C     0.59817   -0.66750    0.00849
 19 C     0.41373   -0.88240    0.05366
 20 C     0.19927    0.46501    0.34794
 21 C    -0.23555   -0.02111    0.21043
 22 C     1.48545   -2.49183    0.54816
 23 C     1.21689   -2.01848    0.12589

System changes: positions 

Initializing position-dependent things.

Density initialized from wave functions
           .--------------------------------------.  
          /|                                      |  
         / |                                      |  
        /  |                                      |  
       /   |                                      |  
      /    |                                      |  
     /     |                                      |  
    /      |                                      |  
   /       |                                      |  
  /        |           C  C                       |  
 *         |    C   C      C   C  C               |  
 |         | CC      CC CC CC  C CC               |  
 |         .-C-C-C-----------------C--------------.  
 |        /                                      /   
 |       /                                      /    
 |      /                                      /     
 |     /                                      /      
 |    /                                      /       
 |   /                                      /        
 |  /                                      /         
 | /                                      /          
 |/                                      /           
 *--------------------------------------*            

Positions:
   0 C      6.334030    9.783928    5.937926
   1 C      4.062837    8.553203    5.821423
   2 C      7.579437    9.869667    5.786275
   3 C      5.485201    8.661829    5.832361
   4 C     10.956728   10.068541    4.851135
   5 C      3.505005    7.416661    5.677452
   6 C      8.496140    8.860079    5.449728
   7 C      9.846575    9.126578    5.129129
   8 C      6.374344    7.467799    5.636177
   9 C      3.361415    6.106225    5.640864
  10 C      7.755135    7.636914    5.431660
  11 C     11.098550    8.651553    4.886132
  12 C      8.280273    3.996983    6.905504
  13 C      5.743994    3.549508    6.658908
  14 C      9.343991    4.620529    6.664684
  15 C      6.947929    4.309409    6.560384
  16 C     12.262177    6.189584    5.500442
  17 C      4.642418    4.034683    6.243625
  18 C      9.517479    5.822805    5.959200
  19 C     10.788975    6.325538    5.598815
  20 C      6.977977    5.674016    5.935990
  21 C      3.758546    4.925256    5.839273
  22 C      8.204402    6.302606    5.655062
  23 C     11.536134    7.349956    5.105042

Unit cell:
           periodic     x           y           z      points  spacing
  1. axis:    yes   16.000000    0.000000    0.000000    80     0.2000
  2. axis:    yes    0.000000   16.000000    0.000000    80     0.2000
  3. axis:    yes    0.000000    0.000000   10.000000    48     0.2083

Effective grid spacing dv^(1/3) = 0.2027

                     log10-error:    total        iterations:
           time      wfs    density  energy       fermi  poisson
iter:   1  10:24:04          +inf  -180.277398    4      5      
iter:   2  10:24:05         -1.77  -180.051604    4      2      
iter:   3  10:24:05         -1.91  -179.767024    4      2      
iter:   4  10:24:06         -2.29  -179.789835    3      2      
iter:   5  10:24:06         -2.32  -179.756943    2      2      
iter:   6  10:24:07         -2.63  -179.761530    2      1      
iter:   7  10:24:08         -2.69  -179.766018    2      2      
iter:   8  10:24:08         -2.88  -179.761418    2      1      
iter:   9  10:24:09         -3.10  -179.759047    2      2      
iter:  10  10:24:09         -3.45  -179.760296    2      1      
iter:  11  10:24:10         -3.55  -179.760401    2      1      
iter:  12  10:24:11         -3.75  -179.761506    2      1      
iter:  13  10:24:11         -3.76  -179.760407    2      1      
iter:  14  10:24:12         -3.98  -179.760188    2      1      
iter:  15  10:24:12         -4.02  -179.760421    2      1      

Converged after 15 iterations.

Dipole moment: (-1.118220, -0.357166, 0.022147) |e|*Ang

Energy contributions relative to reference atoms: (reference = -24663.074771)

Kinetic:       +128.975634
Potential:     -132.182365
External:        +0.000000
XC:            -179.458366
Entropy (-ST):   -0.155549
Local:           +2.982451
--------------------------
Free energy:   -179.838195
Extrapolated:  -179.760421

Fermi level: -4.07581

 Band  Eigenvalues  Occupancy
    0    -23.17397    2.00000
    1    -22.67568    2.00000
    2    -22.28069    2.00000
    3    -21.65992    2.00000
    4    -21.12866    2.00000
    5    -20.38701    2.00000
    6    -20.20036    2.00000
    7    -19.79260    2.00000
    8    -18.89958    2.00000
    9    -18.47293    2.00000
   10    -17.49591    2.00000
   11    -16.75978    2.00000
   12    -16.59864    2.00000
   13    -16.45931    2.00000
   14    -15.37883    2.00000
   15    -15.06835    2.00000
   16    -14.47677    2.00000
   17    -14.12122    2.00000
   18    -13.34152    2.00000
   19    -13.03038    2.00000
   20    -12.68281    2.00000
   21    -12.08024    2.00000
   22    -11.77917    2.00000
   23    -11.06689    2.00000
   24    -10.79944    2.00000
   25    -10.59084    2.00000
   26    -10.02307    2.00000
   27     -9.69830    2.00000
   28     -9.58717    2.00000
   29     -9.56828    2.00000
   30     -9.42272    2.00000
   31     -9.21455    2.00000
   32     -8.83827    2.00000
   33     -8.53316    2.00000
   34     -8.36250    2.00000
   35     -7.92186    2.00000
   36     -7.82842    2.00000
   37     -7.62067    2.00000
   38     -7.47285    2.00000
   39     -7.26969    2.00000
   40     -6.67018    2.00000
   41     -6.36632    2.00000
   42     -6.21815    2.00000
   43     -5.95645    2.00000
   44     -5.65417    2.00000
   45     -5.41376    2.00000
   46     -5.27376    1.99999
   47     -4.27919    1.76860
   48     -3.85539    0.19875
   49     -3.60243    0.01743
   50     -3.58630    0.01486
   51     -3.21654    0.00037
   52     -2.81028    0.00001
   53     -2.26694    0.00000
   54     -2.02945    0.00000
   55     -1.54314    0.00000
   56     -1.53233    0.00000
   57     -1.20330    0.00000
   58     -0.29169    0.00000
   59     -0.24358    0.00000
   60      0.41114    0.00000
   61      0.67262    0.00000
   62      1.45479    0.00000
   63      1.58918    0.00000
   64      2.71716    0.00000
   65      3.49704    0.00000
   66      3.52781    0.00000
   67      4.01200    0.00000
   68      4.20885    0.00000
   69      4.48679    0.00000
   70      4.89896    0.00000
   71      5.06926    0.00000
   72      5.81743    0.00000
   73      6.24873    0.00000
   74      6.84336    0.00000
   75      6.89420    0.00000
   76      7.16445    0.00000
   77      7.34121    0.00000
   78      7.78791    0.00000
   79      7.95079    0.00000
   80      8.01203    0.00000
   81      8.13190    0.00000
   82      8.46754    0.00000
   83      8.61771    0.00000
   84      8.78342    0.00000
   85      8.85945    0.00000
   86      9.03187    0.00000
   87      9.13803    0.00000
   88      9.14299    0.00000
   89      9.49080    0.00000
   90      9.69541    0.00000
   91      9.72855    0.00000
   92      9.85962    0.00000
   93      9.99834    0.00000
   94     10.08185    0.00000
   95     10.16495    0.00000
   96     10.27157    0.00000
   97     10.31174    0.00000


Forces in eV/Ang:
  0 C    -0.48256   -0.03667   -0.05276
  1 C     0.58376   -0.39302   -0.08192
  2 C    -0.52954    0.58396   -0.17339
  3 C     0.16379   -0.42667    0.10826
  4 C    -0.27045    0.39591    0.01121
  5 C    -0.62180   -0.02029   -0.07960
  6 C    -0.07753    0.77253   -0.18992
  7 C     0.14061    0.73812   -0.30342
  8 C     0.46550   -0.22844    0.42931
  9 C    -0.82311    0.50494   -0.07320
 10 C     0.16868    1.28347   -0.08057
 11 C    -0.11268    1.04811   -0.23186
 12 C    -0.49421   -0.32005    0.00173
 13 C     0.28354    0.56954   -0.22696
 14 C     0.01610   -0.71737    0.03359
 15 C    -0.14106    0.41054   -0.03531
 16 C     0.00634   -0.44930    0.13890
 17 C    -0.52398   -0.35943   -0.02674
 18 C     0.40962   -0.68048    0.05655
 19 C     0.53288   -0.57804   -0.06036
 20 C     0.19264    0.57610    0.29004
 21 C    -0.34664   -0.88867    0.18108
 22 C     0.93780   -0.89074    0.31045
 23 C     0.58461   -0.93168    0.07196

System changes: positions 

Initializing position-dependent things.

Density initialized from wave functions
           .--------------------------------------.  
          /|                                      |  
         / |                                      |  
        /  |                                      |  
       /   |                                      |  
      /    |                                      |  
     /     |                                      |  
    /      |                                      |  
   /       |                                      |  
  /        |           C  C                       |  
 *         |    C   C      C   C  C               |  
 |         | CC      CC CC CC  C CC               |  
 |         .-C-C-C-----------------C--------------.  
 |        /                                      /   
 |       /                                      /    
 |      /                                      /     
 |     /                                      /      
 |    /                                      /       
 |   /                                      /        
 |  /                                      /         
 | /                                      /          
 |/                                      /           
 *--------------------------------------*            

Positions:
   0 C      6.314410    9.782228    5.936389
   1 C      4.075191    8.515710    5.814971
   2 C      7.559294    9.894930    5.779940
   3 C      5.487040    8.646920    5.837151
   4 C     10.947168   10.097951    4.850800
   5 C      3.485920    7.401168    5.674342
   6 C      8.492247    8.895202    5.442512
   7 C      9.849354    9.151164    5.117404
   8 C      6.393383    7.462209    5.652978
   9 C      3.355429    6.104467    5.650584
  10 C      7.767986    7.663255    5.431156
  11 C     11.101063    8.671569    4.877794
  12 C      8.261853    3.985460    6.905689
  13 C      5.733021    3.582001    6.641142
  14 C      9.344795    4.589315    6.667571
  15 C      6.939749    4.322117    6.560520
  16 C     12.271709    6.162052    5.509349
  17 C      4.618013    4.034389    6.238037
  18 C      9.535684    5.792007    5.963315
  19 C     10.806075    6.305217    5.595291
  20 C      6.988239    5.694121    5.948380
  21 C      3.751858    4.925731    5.849123
  22 C      8.230909    6.290576    5.661593
  23 C     11.551339    7.334053    5.102352

Unit cell:
           periodic     x           y           z      points  spacing
  1. axis:    yes   16.000000    0.000000    0.000000    80     0.2000
  2. axis:    yes    0.000000   16.000000    0.000000    80     0.2000
  3. axis:    yes    0.000000    0.000000   10.000000    48     0.2083

Effective grid spacing dv^(1/3) = 0.2027

                     log10-error:    total        iterations:
           time      wfs    density  energy       fermi  poisson
iter:   1  10:24:14          +inf  -180.462965    4      5      
iter:   2  10:24:15         -1.84  -180.313389    3      2      
iter:   3  10:24:16         -1.97  -180.111568    3      2      
iter:   4  10:24:16         -2.35  -180.127626    3      1      
iter:   5  10:24:17         -2.40  -180.112593    2      2      
iter:   6  10:24:17         -2.67  -180.103880    2      1      
iter:   7  10:24:18         -2.69  -180.117381    3      2      
iter:   8  10:24:19         -2.90  -180.109523    2      1      
iter:   9  10:24:19         -3.07  -180.108498    2      2      
iter:  10  10:24:20         -3.33  -180.111095    2      1      
iter:  11  10:24:20         -3.63  -180.111023    1      1      
iter:  12  10:24:21         -3.67  -180.110562    2      1      
iter:  13  10:24:22         -3.67  -180.110802    2      1      
iter:  14  10:24:22         -3.91  -180.111221    2      1      
iter:  15  10:24:23         -3.91  -180.110946    2      1      
iter:  16  10:24:23         -4.12  -180.110897    2      1      

Converged after 16 iterations.

Dipole moment: (-1.202719, -0.383953, 0.032824) |e|*Ang

Energy contributions relative to reference atoms: (reference = -24663.074771)

Kinetic:       +126.096091
Potential:     -130.097486
External:        +0.000000
XC:            -179.023646
Entropy (-ST):   -0.134055
Local:           +2.981172
--------------------------
Free energy:   -180.177924
Extrapolated:  -180.110897

Fermi level: -4.04876

 Band  Eigenvalues  Occupancy
    0    -23.06155    2.00000
    1    -22.58739    2.00000
    2    -22.25300    2.00000
    3    -21.66079    2.00000
    4    -21.18656    2.00000
    5    -20.42210    2.00000
    6    -20.15893    2.00000
    7    -19.78043    2.00000
    8    -18.95256    2.00000
    9    -18.44939    2.00000
   10    -17.51625    2.00000
   11    -16.78529    2.00000
   12    -16.56364    2.00000
   13    -16.25910    2.00000
   14    -15.39740    2.00000
   15    -14.96543    2.00000
   16    -14.51934    2.00000
   17    -14.06257    2.00000
   18    -13.35970    2.00000
   19    -13.10025    2.00000
   20    -12.71678    2.00000
   21    -12.10972    2.00000
   22    -11.84141    2.00000
   23    -10.92127    2.00000
   24    -10.72333    2.00000
   25    -10.61753    2.00000
   26     -9.96172    2.00000
   27     -9.72008    2.00000
   28     -9.62244    2.00000
   29     -9.53838    2.00000
   30     -9.41105    2.00000
   31     -9.25653    2.00000
   32     -8.86651    2.00000
   33     -8.65456    2.00000
   34     -8.33578    2.00000
   35     -7.90317    2.00000
   36     -7.86178    2.00000
   37     -7.58785    2.00000
   38     -7.55549    2.00000
   39     -7.25189    2.00000
   40     -6.66666    2.00000
   41     -6.35941    2.00000
   42     -6.24890    2.00000
   43     -5.91423    2.00000
   44     -5.63144    2.00000
   45     -5.43984    2.00000
   46     -5.21266    1.99998
   47     -4.27768    1.81596
   48     -3.79853    0.15139
   49     -3.59987    0.02222
   50     -3.51816    0.00987
   51     -3.23147    0.00056
   52     -2.83444    0.00001
   53     -2.25458    0.00000
   54     -1.99509    0.00000
   55     -1.52546    0.00000
   56     -1.49355    0.00000
   57     -1.09452    0.00000
   58     -0.25852    0.00000
   59     -0.14956    0.00000
   60      0.37430    0.00000
   61      0.58050    0.00000
   62      1.42028    0.00000
   63      1.52502    0.00000
   64      2.79693    0.00000
   65      3.40055    0.00000
   66      3.53993    0.00000
   67      4.01392    0.00000
   68      4.14823    0.00000
   69      4.33654    0.00000
   70      4.91451    0.00000
   71      5.11158    0.00000
   72      5.83226    0.00000
   73      6.04033    0.00000
   74      6.76387    0.00000
   75      6.89235    0.00000
   76      7.05299    0.00000
   77      7.39560    0.00000
   78      7.67161    0.00000
   79      7.99673    0.00000
   80      8.13606    0.00000
   81      8.14731    0.00000
   82      8.53503    0.00000
   83      8.62929    0.00000
   84      8.79353    0.00000
   85      8.85748    0.00000
   86      9.06576    0.00000
   87      9.13251    0.00000
   88      9.17693    0.00000
   89      9.49414    0.00000
   90      9.68488    0.00000
   91      9.76723    0.00000
   92      9.87357    0.00000
   93      9.95857    0.00000
   94     10.03320    0.00000
   95     10.16869    0.00000
   96     10.29881    0.00000
   97     10.35738    0.00000


Forces in eV/Ang:
  0 C    -0.24123    0.03602   -0.08133
  1 C     0.47878   -0.07627   -0.04803
  2 C    -0.52625    0.49019   -0.16399
  3 C     0.24254   -0.49797    0.11376
  4 C    -0.02843    0.23626   -0.04284
  5 C    -0.52936    0.66092   -0.06762
  6 C    -0.03725    0.61490   -0.20419
  7 C    -0.02942    0.52799   -0.20557
  8 C     0.55047   -0.34974    0.40572
  9 C    -1.04906   -0.29814   -0.13571
 10 C     0.59904    0.06328    0.17137
 11 C     0.12921   -0.01353    0.00622
 12 C     0.07705   -0.09382   -0.07992
 13 C     0.28677    0.32114   -0.09465
 14 C    -0.32397   -0.83743    0.09799
 15 C    -0.15516    0.55252   -0.07977
 16 C     0.11230   -0.20779    0.02044
 17 C     0.06707   -0.89209    0.22000
 18 C     0.36871   -0.47940   -0.02892
 19 C     0.36537   -0.42310   -0.06449
 20 C     0.21278    0.73967    0.21603
 21 C    -1.02908   -0.42676   -0.11934
 22 C     0.45988    0.34659    0.13152
 23 C     0.06226    0.08081    0.00469

System changes: positions 

Initializing position-dependent things.

Density initialized from wave functions
           .--------------------------------------.  
          /|                                      |  
         / |                                      |  
        /  |                                      |  
       /   |                                      |  
[...]

Kinetic:       +111.453727
Potential:     -119.190665
External:        +0.000000
XC:            -177.952815
Entropy (-ST):   -0.083470
Local:           +2.985922
--------------------------
Free energy:   -182.787302
Extrapolated:  -182.745567

Fermi level: -4.00585

 Band  Eigenvalues  Occupancy
    0    -23.22501    2.00000
    1    -22.59228    2.00000
    2    -22.17607    2.00000
    3    -21.57089    2.00000
    4    -21.00708    2.00000
    5    -20.34040    2.00000
    6    -20.08804    2.00000
    7    -19.96426    2.00000
    8    -18.97705    2.00000
    9    -18.28358    2.00000
   10    -17.54615    2.00000
   11    -16.88504    2.00000
   12    -16.35524    2.00000
   13    -16.11301    2.00000
   14    -15.22491    2.00000
   15    -15.20080    2.00000
   16    -14.22424    2.00000
   17    -14.11251    2.00000
   18    -13.59158    2.00000
   19    -13.30646    2.00000
   20    -12.93249    2.00000
   21    -12.35440    2.00000
   22    -12.05627    2.00000
   23    -10.81746    2.00000
   24    -10.70021    2.00000
   25    -10.21716    2.00000
   26    -10.20387    2.00000
   27     -9.84771    2.00000
   28     -9.66960    2.00000
   29     -9.66051    2.00000
   30     -9.38541    2.00000
   31     -9.34043    2.00000
   32     -9.24225    2.00000
   33     -8.85751    2.00000
   34     -8.13236    2.00000
   35     -7.91297    2.00000
   36     -7.79213    2.00000
   37     -7.60168    2.00000
   38     -7.54420    2.00000
   39     -7.41520    2.00000
   40     -6.60287    2.00000
   41     -6.36765    2.00000
   42     -6.32755    2.00000
   43     -5.76765    2.00000
   44     -5.68165    2.00000
   45     -5.41038    2.00000
   46     -5.07418    1.99995
   47     -4.29458    1.89443
   48     -3.71592    0.10438
   49     -3.25221    0.00107
   50     -3.01365    0.00010
   51     -2.95105    0.00005
   52     -2.85278    0.00002
   53     -2.59660    0.00000
   54     -2.08589    0.00000
   55     -1.41135    0.00000
   56     -1.29198    0.00000
   57     -0.80340    0.00000
   58     -0.32828    0.00000
   59      0.44902    0.00000
   60      0.55130    0.00000
   61      1.64422    0.00000
   62      1.78229    0.00000
   63      2.86006    0.00000
   64      2.91094    0.00000
   65      3.44896    0.00000
   66      3.54188    0.00000
   67      3.84715    0.00000
   68      3.93806    0.00000
   69      4.37237    0.00000
   70      4.82688    0.00000
   71      4.89937    0.00000
   72      5.01158    0.00000
   73      5.27678    0.00000
   74      5.80325    0.00000
   75      5.98094    0.00000
   76      6.51565    0.00000
   77      6.60823    0.00000
   78      7.59272    0.00000
   79      7.98809    0.00000
   80      8.19971    0.00000
   81      8.31671    0.00000
   82      8.67560    0.00000
   83      8.75063    0.00000
   84      8.94113    0.00000
   85      8.96249    0.00000
   86      9.01597    0.00000
   87      9.28395    0.00000
   88      9.38402    0.00000
   89      9.41209    0.00000
   90      9.72749    0.00000
   91      9.81228    0.00000
   92      9.93409    0.00000
   93     10.00864    0.00000
   94     10.09039    0.00000
   95     10.20879    0.00000
   96     10.28983    0.00000
   97     10.42407    0.00000


Forces in eV/Ang:
  0 C     0.01309   -0.01288    0.00347
  1 C    -0.03104   -0.04035   -0.01151
  2 C    -0.01058    0.07433   -0.06555
  3 C     0.01520    0.02082   -0.01221
  4 C    -0.00731    0.04314    0.04076
  5 C     0.04319    0.03331    0.00421
  6 C    -0.02803    0.06123    0.00503
  7 C    -0.00265   -0.01293   -0.03978
  8 C    -0.01168    0.01981    0.00518
  9 C    -0.03003    0.00968    0.04344
 10 C     0.01805   -0.12011   -0.07122
 11 C     0.07740   -0.08755    0.04621
 12 C    -0.05607    0.02593    0.00931
 13 C    -0.00839    0.02057   -0.04039
 14 C     0.04001   -0.07224   -0.02551
 15 C     0.00546   -0.03095   -0.01085
 16 C    -0.02512    0.00339    0.06801
 17 C     0.02254    0.00110    0.01101
 18 C     0.00086   -0.06896    0.02568
 19 C     0.01553    0.02425   -0.01071
 20 C    -0.01345   -0.01522    0.00987
 21 C     0.00613   -0.02330    0.05866
 22 C    -0.06789    0.05258   -0.05281
 23 C    -0.00871    0.09065   -0.00639

System changes: positions 

Initializing position-dependent things.

Density initialized from wave functions
           .--------------------------------------.  
          /|                                      |  
         / |                                      |  
        /  |                                      |  
       /   |                                      |  
      /    |                                      |  
     /     |                                      |  
    /      |                                      |  
   /       |                                      |  
  /        |          C  C                        |  
 *         |    C   C C   C C  C  C               |  
 |         C C       CC   C C   C C               |  
 |         C--C--C-----C--C--------C--------------.  
 |        /                                      /   
 |       /                                      /    
 |      /                                      /     
 |     /                                      /      
 |    /                                      /       
 |   /                                      /        
 |  /                                      /         
 | /                                      /          
 |/                                      /           
 *--------------------------------------*            

Positions:
   0 C      6.158464    9.627270    5.484976
   1 C      4.281786    7.883211    5.743165
   2 C      7.362408    9.968722    5.350204
   3 C      5.608221    8.328787    5.747099
   4 C     11.127202   10.094934    4.648102
   5 C      3.266254    7.142822    5.755354
   6 C      8.550950    9.164483    5.463050
   7 C      9.932413    9.403212    5.162511
   8 C      6.736063    7.435268    5.964068
   9 C      2.717319    5.913724    5.871160
  10 C      8.103010    7.870083    5.832346
  11 C     11.123635    8.721452    5.099432
  12 C      8.107646    3.886937    6.463807
  13 C      5.545945    4.150304    6.383429
  14 C      9.286741    4.302906    6.317229
  15 C      6.870656    4.607397    6.384180
  16 C     12.452983    6.215675    5.323883
  17 C      4.294939    4.125044    6.273827
  18 C      9.750032    5.639713    6.061914
  19 C     11.031511    6.179691    5.712397
  20 C      7.223757    6.007213    6.207385
  21 C      3.096159    4.721238    6.074894
  22 C      8.586439    6.454193    6.071764
  23 C     11.587796    7.374019    5.330113

Unit cell:
           periodic     x           y           z      points  spacing
  1. axis:    yes   16.000000    0.000000    0.000000    80     0.2000
  2. axis:    yes    0.000000   16.000000    0.000000    80     0.2000
  3. axis:    yes    0.000000    0.000000   10.000000    48     0.2083

Effective grid spacing dv^(1/3) = 0.2027

                     log10-error:    total        iterations:
           time      wfs    density  energy       fermi  poisson
iter:   1  10:29:02          +inf  -182.743208    2      5      
iter:   2  10:29:02         -2.64  -182.743376    2      1      
iter:   3  10:29:03         -2.70  -182.744891    2      2      
iter:   4  10:29:03         -2.92  -182.742043    2      2      
iter:   5  10:29:04         -2.99  -182.745567    2      2      
iter:   6  10:29:05         -3.07  -182.744951    2      1      
iter:   7  10:29:05         -3.37  -182.743128    2      1      
iter:   8  10:29:06         -3.56  -182.743128    2      1      
iter:   9  10:29:06         -4.03  -182.743299    2      1      

Converged after 9 iterations.

Dipole moment: (-1.412114, -0.377545, 0.342678) |e|*Ang

Energy contributions relative to reference atoms: (reference = -24663.074771)

Kinetic:       +110.556836
Potential:     -118.500428
External:        +0.000000
XC:            -177.740696
Entropy (-ST):   -0.085392
Local:           +2.983686
--------------------------
Free energy:   -182.785995
Extrapolated:  -182.743299

Fermi level: -4.00601

 Band  Eigenvalues  Occupancy
    0    -23.19984    2.00000
    1    -22.58419    2.00000
    2    -22.16757    2.00000
    3    -21.56199    2.00000
    4    -21.00541    2.00000
    5    -20.33549    2.00000
    6    -20.08379    2.00000
    7    -19.94988    2.00000
    8    -18.97389    2.00000
    9    -18.27858    2.00000
   10    -17.54474    2.00000
   11    -16.88219    2.00000
   12    -16.35530    2.00000
   13    -16.12760    2.00000
   14    -15.21924    2.00000
   15    -15.19726    2.00000
   16    -14.22154    2.00000
   17    -14.09885    2.00000
   18    -13.58906    2.00000
   19    -13.30249    2.00000
   20    -12.93379    2.00000
   21    -12.35068    2.00000
   22    -12.06137    2.00000
   23    -10.80086    2.00000
   24    -10.69037    2.00000
   25    -10.21937    2.00000
   26    -10.19565    2.00000
   27     -9.84484    2.00000
   28     -9.66717    2.00000
   29     -9.65434    2.00000
   30     -9.38615    2.00000
   31     -9.33877    2.00000
   32     -9.24033    2.00000
   33     -8.85424    2.00000
   34     -8.12337    2.00000
   35     -7.91298    2.00000
   36     -7.78893    2.00000
   37     -7.59738    2.00000
   38     -7.55183    2.00000
   39     -7.41874    2.00000
   40     -6.60301    2.00000
   41     -6.37286    2.00000
   42     -6.32239    2.00000
   43     -5.76505    2.00000
   44     -5.67818    2.00000
   45     -5.41070    2.00000
   46     -5.07422    1.99995
   47     -4.29142    1.89106
   48     -3.71947    0.10778
   49     -3.24964    0.00104
   50     -3.01161    0.00010
   51     -2.94481    0.00005
   52     -2.84980    0.00002
   53     -2.60715    0.00000
   54     -2.09349    0.00000
   55     -1.40458    0.00000
   56     -1.30378    0.00000
   57     -0.81146    0.00000
   58     -0.32858    0.00000
   59      0.43080    0.00000
   60      0.54080    0.00000
   61      1.64291    0.00000
   62      1.75857    0.00000
   63      2.83030    0.00000
   64      2.90127    0.00000
   65      3.45532    0.00000
   66      3.56396    0.00000
   67      3.82381    0.00000
   68      3.94557    0.00000
   69      4.41760    0.00000
   70      4.80257    0.00000
   71      4.89604    0.00000
   72      5.00400    0.00000
   73      5.26553    0.00000
   74      5.77374    0.00000
   75      5.97624    0.00000
   76      6.49903    0.00000
   77      6.59942    0.00000
   78      7.60066    0.00000
   79      7.97061    0.00000
   80      8.20766    0.00000
   81      8.31739    0.00000
   82      8.67955    0.00000
   83      8.75200    0.00000
   84      8.94530    0.00000
   85      8.95941    0.00000
   86      9.01459    0.00000
   87      9.27556    0.00000
   88      9.39336    0.00000
   89      9.40788    0.00000
   90      9.72822    0.00000
   91      9.81536    0.00000
   92      9.94207    0.00000
   93     10.00092    0.00000
   94     10.07803    0.00000
   95     10.19628    0.00000
   96     10.28024    0.00000
   97     10.41827    0.00000


Forces in eV/Ang:
  0 C     0.00147   -0.01980    0.00057
  1 C    -0.04891   -0.04384    0.02151
  2 C     0.04526    0.03648   -0.00410
  3 C     0.11034   -0.01729    0.01962
  4 C    -0.00071    0.02239    0.08051
  5 C     0.03556    0.00410    0.02150
  6 C    -0.05526   -0.00971   -0.00069
  7 C     0.03029   -0.07201   -0.00088
  8 C     0.00774    0.01743   -0.01346
  9 C    -0.05150    0.06015    0.00272
 10 C    -0.02767   -0.06137   -0.07731
 11 C     0.02029    0.05859   -0.01839
 12 C     0.02112    0.01054    0.01494
 13 C    -0.05230    0.02902    0.02991
 14 C     0.01158   -0.04800   -0.01085
 15 C    -0.00201    0.04099   -0.01283
 16 C     0.00764    0.00711    0.09825
 17 C     0.06152   -0.00030    0.02680
 18 C    -0.06026   -0.01518    0.00586
 19 C    -0.04657    0.02817   -0.00220
 20 C    -0.00774   -0.00666   -0.01819
 21 C    -0.01314   -0.04126    0.02596
 22 C    -0.04227    0.00893   -0.08624
 23 C     0.02738    0.02118   -0.00933

System changes: positions 

Initializing position-dependent things.

Density initialized from wave functions
           .--------------------------------------.  
          /|                                      |  
         / |                                      |  
        /  |                                      |  
       /   |                                      |  
      /    |                                      |  
     /     |                                      |  
    /      |                                      |  
   /       |                                      |  
  /        |          C  C                        |  
 *         |    C   C C   C C  C  C               |  
 |         C C       CC   C C   C C               |  
 |         .C-C--C-----C--C--------C--------------.  
 |        /                                      /   
 |       /                                      /    
 |      /                                      /     
 |     /                                      /      
 |    /                                      /       
 |   /                                      /        
 |  /                                      /         
 | /                                      /          
 |/                                      /           
 *--------------------------------------*            

Positions:
   0 C      6.161410    9.630398    5.506532
   1 C      4.281351    7.887076    5.753039
   2 C      7.364831    9.971656    5.365938
   3 C      5.609508    8.331261    5.759408
   4 C     11.126748   10.098123    4.654058
   5 C      3.269590    7.142929    5.751008
   6 C      8.550199    9.162569    5.459954
   7 C      9.931654    9.399907    5.156590
   8 C      6.735256    7.434506    5.960464
   9 C      2.720832    5.913251    5.852476
  10 C      8.101221    7.866582    5.819582
  11 C     11.122840    8.719841    5.086678
  12 C      8.108833    3.891621    6.483395
  13 C      5.546227    4.150888    6.393188
  14 C      9.287606    4.305510    6.331022
  15 C      6.870599    4.609334    6.395008
  16 C     12.452915    6.214683    5.328184
  17 C      4.297203    4.124857    6.269582
  18 C      9.748070    5.639085    6.057884
  19 C     11.028607    6.179265    5.705330
  20 C      7.222378    6.006168    6.203219
  21 C      3.101192    4.720582    6.056295
  22 C      8.584079    6.451647    6.058498
  23 C     11.586641    7.371583    5.317210

Unit cell:
           periodic     x           y           z      points  spacing
  1. axis:    yes   16.000000    0.000000    0.000000    80     0.2000
  2. axis:    yes    0.000000   16.000000    0.000000    80     0.2000
  3. axis:    yes    0.000000    0.000000   10.000000    48     0.2083

Effective grid spacing dv^(1/3) = 0.2027

                     log10-error:    total        iterations:
           time      wfs    density  energy       fermi  poisson
iter:   1  10:29:08          +inf  -182.748212    2      5      
iter:   2  10:29:09         -2.95  -182.747065    2      1      
iter:   3  10:29:10         -2.99  -182.745631    2      2      
iter:   4  10:29:10         -3.25  -182.746280    2      1      
iter:   5  10:29:11         -3.38  -182.745742    2      2      
iter:   6  10:29:11         -3.30  -182.747007    2      1      
iter:   7  10:29:12         -3.54  -182.748748    2      1      
iter:   8  10:29:13         -3.40  -182.746635    2      1      
iter:   9  10:29:13         -4.27  -182.746492    2      1      

Converged after 9 iterations.

Dipole moment: (-1.414806, -0.381305, 0.331732) |e|*Ang

Energy contributions relative to reference atoms: (reference = -24663.074771)

Kinetic:       +111.267667
Potential:     -119.051980
External:        +0.000000
XC:            -177.909285
Entropy (-ST):   -0.085888
Local:           +2.990049
--------------------------
Free energy:   -182.789436
Extrapolated:  -182.746492

Fermi level: -4.00325

 Band  Eigenvalues  Occupancy
    0    -23.20882    2.00000
    1    -22.58928    2.00000
    2    -22.17261    2.00000
    3    -21.56972    2.00000
    4    -21.00742    2.00000
    5    -20.33868    2.00000
    6    -20.08831    2.00000
    7    -19.95470    2.00000
    8    -18.97869    2.00000
    9    -18.28033    2.00000
   10    -17.54543    2.00000
   11    -16.88406    2.00000
   12    -16.35858    2.00000
   13    -16.12600    2.00000
   14    -15.22005    2.00000
   15    -15.19994    2.00000
   16    -14.22234    2.00000
   17    -14.10059    2.00000
   18    -13.58991    2.00000
   19    -13.30460    2.00000
   20    -12.93668    2.00000
   21    -12.35341    2.00000
   22    -12.06244    2.00000
   23    -10.80677    2.00000
   24    -10.69226    2.00000
   25    -10.21860    2.00000
   26    -10.19656    2.00000
   27     -9.84670    2.00000
   28     -9.66260    2.00000
   29     -9.66027    2.00000
   30     -9.38765    2.00000
   31     -9.34086    2.00000
   32     -9.24265    2.00000
   33     -8.85666    2.00000
   34     -8.12979    2.00000
   35     -7.91222    2.00000
   36     -7.79329    2.00000
   37     -7.60036    2.00000
   38     -7.55168    2.00000
   39     -7.42357    2.00000
   40     -6.60231    2.00000
   41     -6.37113    2.00000
   42     -6.32651    2.00000
   43     -5.76495    2.00000
   44     -5.67842    2.00000
   45     -5.41074    2.00000
   46     -5.07042    1.99995
   47     -4.28785    1.89022
   48     -3.71752    0.10860
   49     -3.24887    0.00106
   50     -3.01176    0.00010
   51     -2.94572    0.00005
   52     -2.85172    0.00002
   53     -2.59887    0.00000
   54     -2.08962    0.00000
   55     -1.40260    0.00000
   56     -1.29818    0.00000
   57     -0.80651    0.00000
   58     -0.32443    0.00000
   59      0.43971    0.00000
   60      0.55058    0.00000
   61      1.64967    0.00000
   62      1.77443    0.00000
   63      2.83613    0.00000
   64      2.91048    0.00000
   65      3.45883    0.00000
   66      3.55648    0.00000
   67      3.84120    0.00000
   68      3.94021    0.00000
   69      4.40165    0.00000
   70      4.81882    0.00000
   71      4.89290    0.00000
   72      5.01253    0.00000
   73      5.27224    0.00000
   74      5.79673    0.00000
   75      5.98834    0.00000
   76      6.50963    0.00000
   77      6.59697    0.00000
   78      7.60381    0.00000
   79      7.98281    0.00000
   80      8.21062    0.00000
   81      8.32032    0.00000
   82      8.67913    0.00000
   83      8.75424    0.00000
   84      8.94305    0.00000
   85      8.96356    0.00000
   86      9.01709    0.00000
   87      9.28220    0.00000
   88      9.39412    0.00000
   89      9.40865    0.00000
   90      9.72709    0.00000
   91      9.81501    0.00000
   92      9.94013    0.00000
   93     10.00601    0.00000
   94     10.08424    0.00000
   95     10.19926    0.00000
   96     10.28656    0.00000
   97     10.41959    0.00000


Forces in eV/Ang:
  0 C     0.00495   -0.00484   -0.00116
  1 C     0.03333    0.00534    0.00899
  2 C     0.01400    0.05524   -0.02623
  3 C     0.01568   -0.00484   -0.00125
  4 C     0.00576    0.06096    0.05587
  5 C     0.00244    0.00384    0.01341
  6 C    -0.00074   -0.02475   -0.01901
  7 C    -0.00937   -0.04767   -0.01408
  8 C     0.01409   -0.01593   -0.01871
  9 C    -0.04516   -0.01340    0.02929
 10 C    -0.00209   -0.05804   -0.04851
 11 C     0.02900   -0.01110   -0.02883
 12 C    -0.00631   -0.00725    0.00439
 13 C     0.01615    0.01711   -0.00930
 14 C     0.01363   -0.06142   -0.00328
 15 C     0.00055    0.00131   -0.00530
 16 C     0.01699   -0.00280    0.08064
 17 C     0.01570   -0.00910    0.02847
 18 C    -0.02661    0.00340   -0.01391
 19 C    -0.03842    0.03944   -0.00798
 20 C    -0.00935    0.01607   -0.02427
 21 C    -0.04859    0.00602    0.00818
 22 C    -0.04879    0.02203   -0.06453
 23 C     0.00766    0.01548   -0.02387

