
  ___ ___ ___ _ _ _  
 |   |   |_  | | | | 
 | | | | | . | | | | 
 |__ |  _|___|_____|  1.3.0b1
 |___|_|             

User:   esb@s65n14.grendel.cscaa.dk
Date:   Thu Nov  9 09:52:32 2017
Arch:   x86_64
Pid:    29666
Python: 2.7.13
gpaw:   /home/esb/DFT/gpaw_git/gpaw
_gpaw:  /home/esb/DFT/gpaw_git/build/bin.linux-x86_64-2.7/gpaw-python
ase:    /home/esb/DFT/ase_git/ase (version 3.15.0b1)
numpy:  /comm/swstack/core/python/2.7.13/lib/python2.7/site-packages/numpy (version 1.13.3)
scipy:  /comm/swstack/core/python/2.7.13/lib/python2.7/site-packages/scipy (version 0.19.1)
units:  Angstrom and eV
cores:  16
Extra parameters: {'blacs': True}

Input parameters:
  basis: dzp
  gpts: [80 80 48]
  kpts: [1 1 1]
  maxiter: 99
  mixer: {backend: pulay,
          beta: 0.05,
          method: separate,
          nmaxold: 5,
          weight: 75}
  mode: lcao
  nbands: -50
  occupations: {name: fermi-dirac,
                width: 0.1}
  poissonsolver: {eps: 1e-07,
                  name: fd,
                  nn: 3,
                  relax: GS}
  xc: PBE

System changes: positions, numbers, cell, pbc, initial_charges, initial_magmoms 

Initialize ...

C-setup:
  name: Carbon
  id: 4aa54d4b901d75f77cc0ea3eec22967b
  Z: 6
  valence: 4
  core: 2
  charge: 0.0
  file: /home/esb/DFT/gpaw-setups-0.8.7929/C.PBE.gz
  cutoffs: 0.64(comp), 1.14(filt), 1.14(core), lmax=2
  valence states:
                energy  radius
    2s(2.00)   -13.751   0.635
    2p(2.00)    -5.284   0.635
    *s          13.461   0.635
    *p          21.927   0.635
    *d           0.000   0.635

  LCAO basis set for C:
    Name: dzp
    File: /home/esb/DFT/gpaw-setups-0.8.7929/C.dzp.basis.gz
    Number of radial functions: 5
    Number of spherical harmonics: 13
      l=0, rc=5.5469 Bohr: 2s-sz confined orbital
      l=1, rc=6.6719 Bohr: 2p-sz confined orbital
      l=0, rc=3.0312 Bohr: 2s-dz split-valence wave
      l=1, rc=3.7500 Bohr: 2p-dz split-valence wave
      l=2, rc=6.6719 Bohr: d-type Gaussian polarization

Reference energy: -24663.074771

Spin-paired calculation

Occupation numbers:
  Fermi-Dirac: width=0.1000 eV

Convergence criteria:
  Maximum total energy change: 0.0005 eV / electron
  Maximum integral of absolute density change: 0.0001 electrons
  Maximum integral of absolute eigenstate change: 4e-08 eV^2
  Maximum number of iterations: 99

Symmetries present (total): 1

  ( 1  0  0)
  ( 0  1  0)
  ( 0  0  1)

1 k-point (Gamma)
1 k-point in the irreducible part of the Brillouin zone
       k-points in crystal coordinates                weights
   0:     0.00000000    0.00000000    0.00000000          1/1

Wave functions: LCAO
  Diagonalizer: Serial LAPACK
  Atomic Correction: dense with blas
  Datatype: float
  Eigensolver: None 

LCAO using direct dense diagonalizer 

Densities:
  Coarse grid: 80*80*48 grid
  Fine grid: 160*160*96 grid
  Total Charge: 0.000000 

Density mixing:
  Method: separate
  Backend: pulay
  Linear mixing parameter: 0.05
  Mixing with 5 old densities
  Damping of long wave oscillations: 75 

Hamiltonian:
  XC and Coulomb potentials evaluated on a 160*160*96 grid
  Using the PBE Exchange-Correlation functional
  Interpolation: tri-quintic (5. degree polynomial)
  Poisson solver: Gauss-Seidel solver with 6 multi-grid levels
    Coarsest grid: 5 x 5 x 3 points
    Stencil: 6*3+1=19 point O(h^6) finite-difference Laplacian
    Max iterations: 1000
    Tolerance: 1.000000e-07 

Memory estimate:
  Process memory now: 77.56 MiB
  Calculator: 15.59 MiB
    Density: 6.13 MiB
      Arrays: 3.81 MiB
      Localized functions: 0.86 MiB
      Mixer: 1.46 MiB
    Hamiltonian: 5.40 MiB
      Arrays: 2.49 MiB
      XC: 0.00 MiB
      Poisson: 2.85 MiB
      vbar: 0.07 MiB
    Wavefunctions: 4.05 MiB
      C [qnM]: 0.23 MiB
      S, T [2 x qmm]: 1.49 MiB
      P [aqMi]: 0.01 MiB
      TCI: 0.00 MiB
      BasisFunctions: 2.33 MiB
      Eigensolver: 0.00 MiB

Total number of cores used: 16
Domain decomposition: 2 x 4 x 2

Number of atoms: 24
Number of atomic orbitals: 312
Number of bands in calculation: 98
Bands to converge: occupied states only
Number of valence electrons: 96

... initialized

Initializing position-dependent things.

Density initialized from atomic densities
           .--------------------------------------.  
          /|                                      |  
         / |                                      |  
        /  |                                      |  
       /   |                                      |  
      /    |                                      |  
     /     |                                      |  
    /      |             C  C C                   |  
   /       |           C                          |  
  /        |            C     C C                 |  
 *         |  C C   C     C    C                  |  
 |         | C       C   C  C                     |  
 |         .---C---C--C---------------------------.  
 |        /    C     C C  C                      /   
 |       /       C                              /    
 |      /                                      /     
 |     /                                      /      
 |    /                                      /       
 |   /                                      /        
 |  /                                      /         
 | /                                      /          
 |/                                      /           
 *--------------------------------------*            

Positions:
   0 C      5.495636    8.689150    5.818119
   1 C      5.610078    3.318896    5.305737
   2 C      3.537909    7.528178    5.687544
   3 C      5.833599    6.079579    5.484298
   4 C      4.474201    5.498887    5.461761
   5 C      6.313855    7.469667    5.597377
   6 C      4.071908    8.709465    5.847802
   7 C      4.616837    4.088007    5.355297
   8 C      3.259175    6.251518    5.560335
   9 C      7.036786    3.769117    5.384702
  10 C      7.108986    5.212934    5.743139
  11 C      8.274157    3.142138    5.558936
  12 C      9.649535    9.300191    7.349884
  13 C     10.759126    6.972609    6.967925
  14 C      9.716283    7.935086    6.999952
  15 C     10.745136    5.749104    6.669709
  16 C      8.558352    9.994768    7.241098
  17 C      7.309711   10.459733    7.004496
  18 C      9.619129    4.987979    6.268930
  19 C      8.479059    7.237264    6.527302
  20 C      8.383408    5.815244    6.177413
  21 C      9.365741    3.655230    5.932901
  22 C      6.676280    9.281223    6.551234
  23 C      7.279238    7.958209    6.384313

Unit cell:
           periodic     x           y           z      points  spacing
  1. axis:    yes   16.000000    0.000000    0.000000    80     0.2000
  2. axis:    yes    0.000000   16.000000    0.000000    80     0.2000
  3. axis:    yes    0.000000    0.000000   10.000000    48     0.2083

Effective grid spacing dv^(1/3) = 0.2027

                     log10-error:    total        iterations:
           time      wfs    density  energy       fermi  poisson
iter:   1  09:52:34          +inf  -188.658737    2      6      
iter:   2  09:52:34         -0.88  -187.763834    4      3      
iter:   3  09:52:35         -0.91  -185.459945    35     4      
iter:   4  09:52:36         -1.18  -185.567860    3      2      
iter:   5  09:52:36         -1.18  -184.590009    5      2      
iter:   6  09:52:37         -1.26  -184.648648    5      3      
iter:   7  09:52:38         -1.47  -184.370568    3      3      
iter:   8  09:52:39         -1.56  -184.106634    3      3      
iter:   9  09:52:39         -1.72  -184.203927    4      3      
iter:  10  09:52:40         -1.78  -184.038543    3      2      
iter:  11  09:52:41         -2.12  -184.013293    4      2      
iter:  12  09:52:41         -2.12  -184.016901    3      2      
iter:  13  09:52:42         -2.36  -184.008159    3      2      
iter:  14  09:52:43         -2.44  -184.008220    3      2      
iter:  15  09:52:43         -2.47  -183.992531    3      1      
iter:  16  09:52:44         -2.52  -183.992260    3      2      
iter:  17  09:52:44         -2.70  -184.007876    3      2      
iter:  18  09:52:45         -2.95  -184.000994    3      2      
iter:  19  09:52:46         -3.24  -183.993516    3      1      
iter:  20  09:52:46         -3.48  -183.996392    3      1      
iter:  21  09:52:47         -3.75  -184.005470    2      1      
iter:  22  09:52:48         -3.92  -184.003686    2      1      
iter:  23  09:52:48         -4.01  -184.004631    2      1      

Converged after 23 iterations.

Dipole moment: (0.350064, -0.518589, -0.163760) |e|*Ang

Energy contributions relative to reference atoms: (reference = -24663.074771)

Kinetic:       +115.141024
Potential:     -123.124380
External:        +0.000000
XC:            -178.912598
Entropy (-ST):   -0.252754
Local:           +3.017700
--------------------------
Free energy:   -184.131008
Extrapolated:  -184.004631

Fermi level: -4.49542

 Band  Eigenvalues  Occupancy
    0    -23.47794    2.00000
    1    -22.27318    2.00000
    2    -21.72709    2.00000
    3    -20.97267    2.00000
    4    -20.53684    2.00000
    5    -20.26834    2.00000
    6    -19.50050    2.00000
    7    -19.25963    2.00000
    8    -18.63208    2.00000
    9    -18.38305    2.00000
   10    -17.95715    2.00000
   11    -17.00538    2.00000
   12    -16.76236    2.00000
   13    -15.76427    2.00000
   14    -15.45451    2.00000
   15    -15.14588    2.00000
   16    -14.10016    2.00000
   17    -13.66759    2.00000
   18    -13.30476    2.00000
   19    -12.75375    2.00000
   20    -12.53422    2.00000
   21    -11.96624    2.00000
   22    -11.78561    2.00000
   23    -11.60250    2.00000
   24    -11.21420    2.00000
   25    -10.97000    2.00000
   26    -10.76891    2.00000
   27    -10.36087    2.00000
   28    -10.07559    2.00000
   29     -9.80494    2.00000
   30     -9.65454    2.00000
   31     -9.40056    2.00000
   32     -8.92330    2.00000
   33     -8.54085    2.00000
   34     -8.36423    2.00000
   35     -8.10793    2.00000
   36     -7.31686    2.00000
   37     -7.09902    2.00000
   38     -6.87587    2.00000
   39     -6.81769    2.00000
   40     -6.70285    2.00000
   41     -6.60006    2.00000
   42     -6.50347    2.00000
   43     -6.38124    2.00000
   44     -6.32139    2.00000
   45     -5.36412    1.99966
   46     -4.71994    1.80848
   47     -4.67835    1.72337
   48     -4.37696    0.46845
   49     -3.39018    0.00003
   50     -3.24082    0.00001
   51     -2.92190    0.00000
   52     -2.79563    0.00000
   53     -2.63097    0.00000
   54     -2.22365    0.00000
   55     -1.87976    0.00000
   56     -1.36970    0.00000
   57     -1.20701    0.00000
   58     -0.37857    0.00000
   59     -0.35330    0.00000
   60      0.77921    0.00000
   61      2.04638    0.00000
   62      2.30058    0.00000
   63      2.97422    0.00000
   64      3.33420    0.00000
   65      3.58566    0.00000
   66      3.79160    0.00000
   67      4.33679    0.00000
   68      4.49911    0.00000
   69      4.77318    0.00000
   70      5.39741    0.00000
   71      5.59103    0.00000
   72      5.85685    0.00000
   73      6.36731    0.00000
   74      6.60648    0.00000
   75      6.90857    0.00000
   76      7.12163    0.00000
   77      7.49651    0.00000
   78      7.56551    0.00000
   79      7.79526    0.00000
   80      8.23115    0.00000
   81      8.35785    0.00000
   82      8.47107    0.00000
   83      8.73975    0.00000
   84      8.85729    0.00000
   85      9.09921    0.00000
   86      9.18574    0.00000
   87      9.21358    0.00000
   88      9.33088    0.00000
   89      9.44672    0.00000
   90      9.52643    0.00000
   91      9.61149    0.00000
   92      9.79326    0.00000
   93     10.05381    0.00000
   94     10.17095    0.00000
   95     10.22447    0.00000
   96     10.35578    0.00000
   97     10.42416    0.00000


Forces in eV/Ang:
  0 C    -2.00184   -0.27909    0.26929
  1 C     2.02538    0.70738   -0.19059
  2 C    -0.29531    0.23369   -0.46591
  3 C     4.03040    0.21333    1.22044
  4 C    -0.66950   -0.10655   -0.50072
  5 C    -7.48296   -2.69075   -1.44994
  6 C     1.27384    0.96271    0.09679
  7 C     0.48382   -0.14222   -0.22133
  8 C     0.54370   -0.24019    0.08397
  9 C    -1.95681   -0.46915    1.12417
 10 C    -1.28876    0.45605   -1.08381
 11 C    -0.31307   -0.05025   -0.10833
 12 C    -0.18603    0.17378   -0.06052
 13 C    -0.03875    0.07898    0.07877
 14 C     0.00592   -0.28660    0.07511
 15 C    -0.06314   -0.05139    0.04165
 16 C     0.27852   -0.02724    0.30871
 17 C    -0.20127   -0.20919   -0.06890
 18 C     0.03840   -0.04630    0.01488
 19 C     0.51543   -0.28441    0.84594
 20 C    -0.10710    0.16984   -0.37919
 21 C     0.14770    0.07143   -0.17267
 22 C     0.76293    0.77422   -0.23516
 23 C     4.52045    0.99929    0.73429

System changes: positions 

Initializing position-dependent things.

Density initialized from wave functions
           .--------------------------------------.  
          /|                                      |  
         / |                                      |  
        /  |                                      |  
       /   |                                      |  
      /    |                                      |  
     /     |                                      |  
    /      |             C  C C                   |  
   /       |           C                          |  
  /        |            C     C C                 |  
 *         |  C C   C     C    C                  |  
 |         | C       C   C  C                     |  
 |         .---C---C--C---------------------------.  
 |        /    C    C  C  C                      /   
 |       /       C                              /    
 |      /                                      /     
 |     /                                      /      
 |    /                                      /       
 |   /                                      /        
 |  /                                      /         
 | /                                      /          
 |/                                      /           
 *--------------------------------------*            

Positions:
   0 C      5.485729    8.687769    5.819451
   1 C      5.620101    3.322397    5.304794
   2 C      3.536448    7.529334    5.685238
   3 C      5.853544    6.080635    5.490337
   4 C      4.470888    5.498359    5.459283
   5 C      6.276825    7.456352    5.590202
   6 C      4.078212    8.714229    5.848281
   7 C      4.619231    4.087303    5.354202
   8 C      3.261866    6.250329    5.560750
   9 C      7.027103    3.766795    5.390265
  10 C      7.102609    5.215191    5.737776
  11 C      8.272607    3.141889    5.558399
  12 C      9.648615    9.301051    7.349584
  13 C     10.758934    6.973000    6.968315
  14 C      9.716313    7.933667    7.000324
  15 C     10.744824    5.748850    6.669915
  16 C      8.559730    9.994633    7.242626
  17 C      7.308715   10.458698    7.004155
  18 C      9.619319    4.987750    6.269004
  19 C      8.481609    7.235856    6.531488
  20 C      8.382878    5.816085    6.175537
  21 C      9.366472    3.655583    5.932046
  22 C      6.680055    9.285055    6.550070
  23 C      7.301607    7.963154    6.387947

Unit cell:
           periodic     x           y           z      points  spacing
  1. axis:    yes   16.000000    0.000000    0.000000    80     0.2000
  2. axis:    yes    0.000000   16.000000    0.000000    80     0.2000
  3. axis:    yes    0.000000    0.000000   10.000000    48     0.2083

Effective grid spacing dv^(1/3) = 0.2027

                     log10-error:    total        iterations:
           time      wfs    density  energy       fermi  poisson
iter:   1  09:52:51          +inf  -184.538477    3      5      
iter:   2  09:52:51         -2.32  -184.529048    2      1      
iter:   3  09:52:52         -2.41  -184.513917    3      2      
iter:   4  09:52:53         -2.63  -184.515073    2      2      
iter:   5  09:52:53         -2.75  -184.511483    3      2      
iter:   6  09:52:54         -2.71  -184.519550    3      2      
iter:   7  09:52:55         -2.77  -184.513636    3      2      
iter:   8  09:52:55         -3.22  -184.512813    2      1      
iter:   9  09:52:56         -3.44  -184.513380    2      1      
iter:  10  09:52:57         -3.64  -184.513346    2      1      
iter:  11  09:52:57         -3.74  -184.513236    2      1      
iter:  12  09:52:58         -3.88  -184.513402    2      1      
iter:  13  09:52:58         -3.94  -184.513026    2      1      
iter:  14  09:52:59         -3.99  -184.513042    2      1      
iter:  15  09:53:00         -4.09  -184.513214    2      1      

Converged after 15 iterations.

Dipole moment: (0.351188, -0.547334, -0.170588) |e|*Ang

Energy contributions relative to reference atoms: (reference = -24663.074771)

Kinetic:       +113.253527
Potential:     -121.895419
External:        +0.000000
XC:            -178.740191
Entropy (-ST):   -0.235291
Local:           +2.986514
--------------------------
Free energy:   -184.630859
Extrapolated:  -184.513214

Fermi level: -4.44815

 Band  Eigenvalues  Occupancy
    0    -23.29245    2.00000
    1    -22.23552    2.00000
    2    -21.75818    2.00000
    3    -20.92858    2.00000
    4    -20.56795    2.00000
    5    -20.26945    2.00000
    6    -19.49215    2.00000
    7    -19.28539    2.00000
    8    -18.62370    2.00000
    9    -18.49077    2.00000
   10    -17.96970    2.00000
   11    -16.98905    2.00000
   12    -16.72665    2.00000
   13    -15.79974    2.00000
   14    -15.45564    2.00000
   15    -15.21735    2.00000
   16    -14.01813    2.00000
   17    -13.67717    2.00000
   18    -13.30766    2.00000
   19    -12.77585    2.00000
   20    -12.57385    2.00000
   21    -11.97556    2.00000
   22    -11.78893    2.00000
   23    -11.62034    2.00000
   24    -11.17807    2.00000
   25    -10.98183    2.00000
   26    -10.76317    2.00000
   27    -10.35939    2.00000
   28    -10.02865    2.00000
   29     -9.80957    2.00000
   30     -9.67589    2.00000
   31     -9.30388    2.00000
   32     -9.04393    2.00000
   33     -8.56086    2.00000
   34     -8.38702    2.00000
   35     -8.12123    2.00000
   36     -7.30370    2.00000
   37     -7.09333    2.00000
   38     -6.88072    2.00000
   39     -6.80315    2.00000
   40     -6.69898    2.00000
   41     -6.60728    2.00000
   42     -6.53868    2.00000
   43     -6.37540    2.00000
   44     -6.36602    2.00000
   45     -5.39071    1.99984
   46     -4.70559    1.85839
   47     -4.62983    1.72035
   48     -4.31607    0.42136
   49     -3.40375    0.00006
   50     -3.20773    0.00001
   51     -2.91271    0.00000
   52     -2.80748    0.00000
   53     -2.64822    0.00000
   54     -2.27633    0.00000
   55     -1.86827    0.00000
   56     -1.37775    0.00000
   57     -1.19902    0.00000
   58     -0.37015    0.00000
   59     -0.29244    0.00000
   60      0.75897    0.00000
   61      2.05616    0.00000
   62      2.32241    0.00000
   63      2.98755    0.00000
   64      3.36307    0.00000
   65      3.59290    0.00000
   66      3.89268    0.00000
   67      4.26719    0.00000
   68      4.35901    0.00000
   69      4.69710    0.00000
   70      5.30237    0.00000
   71      5.70914    0.00000
   72      5.92008    0.00000
   73      6.48582    0.00000
   74      6.68623    0.00000
   75      6.89808    0.00000
   76      7.12028    0.00000
   77      7.51698    0.00000
   78      7.61387    0.00000
   79      7.84834    0.00000
   80      8.25089    0.00000
   81      8.38419    0.00000
   82      8.51086    0.00000
   83      8.80559    0.00000
   84      8.89733    0.00000
   85      9.10715    0.00000
   86      9.16871    0.00000
   87      9.21452    0.00000
   88      9.31823    0.00000
   89      9.44297    0.00000
   90      9.52325    0.00000
   91      9.61153    0.00000
   92      9.78783    0.00000
   93     10.07735    0.00000
   94     10.17598    0.00000
   95     10.22920    0.00000
   96     10.37320    0.00000
   97     10.42838    0.00000


Forces in eV/Ang:
  0 C    -1.25108   -0.40883    0.31463
  1 C     1.46600    0.71193   -0.19258
  2 C    -0.14523    0.46227   -0.45083
  3 C     2.67476   -0.32594    0.96259
  4 C    -0.28288   -0.19706   -0.48181
  5 C    -4.53794   -1.07726    0.31294
  6 C     0.44645    0.65959    0.08924
  7 C     0.59268   -0.16151   -0.24456
  8 C     0.50384   -0.08995    0.11091
  9 C    -1.41138   -0.38007    1.10429
 10 C    -0.73376    0.43057   -0.86444
 11 C    -0.27275    0.08971   -0.05553
 12 C    -0.04658    0.02067   -0.05936
 13 C     0.01294    0.00403    0.06512
 14 C     0.11509   -0.12192    0.17515
 15 C    -0.04443   -0.00136    0.05747
 16 C     0.07399    0.07036    0.28874
 17 C    -0.03218    0.03154    0.03375
 18 C    -0.03313    0.01689   -0.00050
 19 C     0.65045   -0.37695    0.73443
 20 C    -0.14686   -0.00704   -0.41069
 21 C    -0.07735   -0.05698   -0.24179
 22 C     0.68080    0.10678   -0.47904
 23 C     1.77119    0.53012   -0.82689

System changes: positions 

Initializing position-dependent things.

Density initialized from wave functions
           .--------------------------------------.  
          /|                                      |  
         / |                                      |  
        /  |                                      |  
       /   |                                      |  
      /    |                                      |  
     /     |                                      |  
    /      |             C  C C                   |  
   /       |           C                          |  
  /        |            C     C C                 |  
 *         |  C C   C     C    C                  |  
 |         | C       C   C  C                     |  
 |         .---C---C--C---------------------------.  
 |        /    C    C  C  C                      /   
 |       /       C                              /    
 |      /                                      /     
 |     /                                      /      
 |    /                                      /       
 |   /                                      /        
 |  /                                      /         
 | /                                      /          
 |/                                      /           
 *--------------------------------------*            

Positions:
   0 C      5.474943    8.682790    5.823071
   1 C      5.633981    3.330208    5.302678
   2 C      3.535440    7.535281    5.680361
   3 C      5.877570    6.074976    5.499875
   4 C      4.469290    5.495851    5.454082
   5 C      6.238562    7.450813    5.600461
   6 C      4.079892    8.720275    5.849229
   7 C      4.626141    4.085460    5.351435
   8 C      3.267227    6.249927    5.562069
   9 C      7.013766    3.762980    5.402277
  10 C      7.096727    5.219806    5.729163
  11 C      8.269778    3.143414    5.557996
  12 C      9.648645    9.300684    7.348939
  13 C     10.759276    6.972753    6.968975
  14 C      9.717996    7.932971    7.002629
  15 C     10.744410    5.749029    6.670605
  16 C      8.559748    9.995781    7.245709
  17 C      7.309018   10.459976    7.004922
  18 C      9.618679    4.988180    6.268939
  19 C      8.489253    7.231371    6.539096
  20 C      8.381116    5.815322    6.170919
  21 C      9.364753    3.654462    5.929131
  22 C      6.687190    9.283637    6.543881
  23 C      7.310341    7.967139    6.372843

Unit cell:
           periodic     x           y           z      points  spacing
  1. axis:    yes   16.000000    0.000000    0.000000    80     0.2000
  2. axis:    yes    0.000000   16.000000    0.000000    80     0.2000
  3. axis:    yes    0.000000    0.000000   10.000000    48     0.2083

Effective grid spacing dv^(1/3) = 0.2027

                     log10-error:    total        iterations:
           time      wfs    density  energy       fermi  poisson
iter:   1  09:53:02          +inf  -184.916810    3      5      
iter:   2  09:53:03         -2.24  -184.897121    3      1      
iter:   3  09:53:04         -2.35  -184.870176    3      2      
iter:   4  09:53:04         -2.58  -184.883691    3      2      
iter:   5  09:53:05         -2.51  -184.870685    3      2      
iter:   6  09:53:05         -2.82  -184.874319    2      2      
iter:   7  09:53:06         -2.84  -184.870195    2      1      
iter:   8  09:53:07         -2.98  -184.868501    3      2      
iter:   9  09:53:07         -3.37  -184.869181    2      1      
iter:  10  09:53:08         -3.45  -184.867892    2      1      
iter:  11  09:53:09         -3.72  -184.869298    2      1      
iter:  12  09:53:09         -3.84  -184.869892    2      1      
iter:  13  09:53:10         -3.93  -184.869560    2      1      
iter:  14  09:53:11         -4.10  -184.869521    2      1      

Converged after 14 iterations.

Dipole moment: (0.352388, -0.576719, -0.178568) |e|*Ang

Energy contributions relative to reference atoms: (reference = -24663.074771)

Kinetic:       +114.114798
Potential:     -122.772851
External:        +0.000000
XC:            -179.108187
Entropy (-ST):   -0.219174
Local:           +3.006307
--------------------------
Free energy:   -184.979108
Extrapolated:  -184.869521

Fermi level: -4.41642

 Band  Eigenvalues  Occupancy
    0    -23.25197    2.00000
    1    -22.24074    2.00000
    2    -21.79716    2.00000
    3    -20.90116    2.00000
    4    -20.60658    2.00000
    5    -20.27109    2.00000
    6    -19.50671    2.00000
    7    -19.31797    2.00000
    8    -18.65039    2.00000
    9    -18.54536    2.00000
   10    -17.97361    2.00000
   11    -16.98845    2.00000
   12    -16.70362    2.00000
   13    -15.81531    2.00000
   14    -15.45652    2.00000
   15    -15.29931    2.00000
   16    -13.98778    2.00000
   17    -13.67199    2.00000
   18    -13.32455    2.00000
   19    -12.82749    2.00000
   20    -12.61012    2.00000
   21    -11.99752    2.00000
   22    -11.76604    2.00000
   23    -11.64270    2.00000
   24    -11.15872    2.00000
   25    -11.00902    2.00000
   26    -10.77876    2.00000
   27    -10.39403    2.00000
   28     -9.99928    2.00000
   29     -9.86510    2.00000
   30     -9.68051    2.00000
   31     -9.28608    2.00000
   32     -9.12085    2.00000
   33     -8.57535    2.00000
   34     -8.41708    2.00000
   35     -8.13163    2.00000
   36     -7.29999    2.00000
   37     -7.09151    2.00000
   38     -6.91160    2.00000
   39     -6.79389    2.00000
   40     -6.69953    2.00000
   41     -6.61850    2.00000
   42     -6.57233    2.00000
   43     -6.40537    2.00000
   44     -6.36780    2.00000
   45     -5.39848    1.99989
   46     -4.69825    1.88731
   47     -4.60371    1.73359
   48     -4.27113    0.37912
   49     -3.39354    0.00007
   50     -3.19221    0.00001
   51     -2.88891    0.00000
   52     -2.79881    0.00000
   53     -2.66816    0.00000
   54     -2.26855    0.00000
   55     -1.85254    0.00000
   56     -1.38903    0.00000
   57     -1.19658    0.00000
   58     -0.35574    0.00000
   59     -0.21645    0.00000
   60      0.75664    0.00000
   61      2.08335    0.00000
   62      2.35483    0.00000
   63      3.04450    0.00000
   64      3.38082    0.00000
   65      3.63195    0.00000
   66      4.03111    0.00000
   67      4.20155    0.00000
   68      4.26247    0.00000
   69      4.71677    0.00000
   70      5.24593    0.00000
   71      5.79474    0.00000
   72      5.95641    0.00000
   73      6.52380    0.00000
   74      6.74703    0.00000
   75      6.87269    0.00000
   76      7.10134    0.00000
   77      7.51689    0.00000
   78      7.67551    0.00000
   79      7.91062    0.00000
   80      8.25341    0.00000
   81      8.39722    0.00000
   82      8.50456    0.00000
   83      8.86223    0.00000
   84      8.96276    0.00000
   85      9.11495    0.00000
   86      9.14379    0.00000
   87      9.24604    0.00000
   88      9.32730    0.00000
   89      9.43014    0.00000
   90      9.53438    0.00000
   91      9.59998    0.00000
   92      9.82426    0.00000
   93     10.10103    0.00000
   94     10.17948    0.00000
   95     10.25747    0.00000
   96     10.38010    0.00000
   97     10.43426    0.00000


Forces in eV/Ang:
  0 C    -0.84996   -0.24280    0.43003
  1 C     0.87943    0.44454   -0.19115
  2 C    -0.13567    0.19969   -0.41552
  3 C     1.26596   -0.47009    0.67662
  4 C     0.12788   -0.22768   -0.39266
  5 C    -2.65810   -0.61774    0.83089
  6 C    -0.18121    0.60633    0.08887
  7 C     0.42973   -0.02422   -0.25615
  8 C     0.49401    0.18711    0.10497
  9 C    -0.55904   -0.20252    1.00814
 10 C    -0.18177    0.23447   -0.59478
 11 C    -0.41626    0.14095   -0.05818
 12 C    -0.03526    0.04871   -0.03103
 13 C     0.08995   -0.02389    0.07536
 14 C     0.12622   -0.04992    0.20295
 15 C    -0.05925   -0.05171    0.04923
 16 C     0.07340    0.01258    0.25306
 17 C    -0.03088    0.04481    0.04356
 18 C    -0.08363   -0.03723   -0.06059
 19 C     0.09873   -0.21958    0.36955
 20 C    -0.00586    0.00170   -0.31253
 21 C    -0.06938   -0.00378   -0.19811
 22 C     0.58268    0.02378   -0.60416
 23 C     1.12951    0.19547   -1.06891

System changes: positions 

Initializing position-dependent things.

Density initialized from wave functions
           .--------------------------------------.  
          /|                                      |  
         / |                                      |  
        /  |                                      |  
       /   |                                      |  
      /    |                                      |  
     /     |                                      |  
    /      |             C  C C                   |  
   /       |           C                          |  
  /        |            C     C C                 |  
 *         |  C C   C     C    C                  |  
 |         | C       C   C  C                     |  
 |         .---C---C--C---------------------------.  
 |        /    C    C  C  C                      /   
 |       /       C                              /    
 |      /                                      /     
 |     /                                      /      
 |    /                                      /       
 |   /                                      /        
 |  /                                      /         
 | /                                      /          
 |/                                      /           
 *--------------------------------------*            

Positions:
   0 C      5.463091    8.678688    5.830158
   1 C      5.646623    3.337236    5.299595
   2 C      3.533584    7.538851    5.673720
   3 C      5.894277    6.066161    5.510063
   4 C      4.472405    5.491972    5.447846
   5 C      6.203120    7.444598    5.617934
   6 C      4.074849    8.729357    5.850644
   7 C      4.633211    4.085102    5.347253
   8 C      3.275093    6.253414    5.563815
   9 C      7.006396    3.760005    5.418422
  10 C      7.095295    5.223423    5.720201
  11 C      8.263084    3.146014    5.557172
  12 C      9.648385    9.301152    7.348457
  13 C     10.760878    6.972191    6.970164
  14 C      9.720271    7.932562    7.006129
  15 C     10.743488    5.748278    6.671428
  16 C      8.560487    9.996164    7.249723
  17 C      7.308887   10.461226    7.005851
  18 C      9.617151    4.987688    6.267898
  19 C      8.490841    7.227718    6.544613
  20 C      8.381011    5.814971    6.165869
  21 C      9.363153    3.654151    5.925814
  22 C      6.696345    9.282532    6.533555
  23 C      7.322245    7.969094    6.352120

Unit cell:
           periodic     x           y           z      points  spacing
  1. axis:    yes   16.000000    0.000000    0.000000    80     0.2000
  2. axis:    yes    0.000000   16.000000    0.000000    80     0.2000
  3. axis:    yes    0.000000    0.000000   10.000000    48     0.2083

Effective grid spacing dv^(1/3) = 0.2027

                     log10-error:    total        iterations:
           time      wfs    density  energy       fermi  poisson
iter:   1  09:53:13          +inf  -185.148626    3      5      
iter:   2  09:53:14         -2.29  -185.129981    3      1      
iter:   3  09:53:14         -2.41  -185.106091    3      2      
iter:   4  09:53:15         -2.66  -185.116497    3      2      
iter:   5  09:53:16         -2.61  -185.106722    3      1      
iter:   6  09:53:16         -2.85  -185.106684    3      2      
iter:   7  09:53:17         -3.09  -185.110189    3      1      
iter:   8  09:53:18         -2.87  -185.105177    3      2      
iter:   9  09:53:18         -3.49  -185.105727    2      1      
iter:  10  09:53:19         -3.55  -185.105539    2      1      
iter:  11  09:53:19         -3.88  -185.105986    2      1      
iter:  12  09:53:20         -3.90  -185.106189    2      1      
iter:  13  09:53:21         -4.00  -185.106209    2      1      
iter:  14  09:53:21         -4.08  -185.105958    2      1      

Converged after 14 iterations.

Dipole moment: (0.360883, -0.613481, -0.185224) |e|*Ang

Energy contributions relative to reference atoms: (reference = -24663.074771)

Kinetic:       +115.556276
Potential:     -124.038397
External:        +0.000000
XC:            -179.525066
Entropy (-ST):   -0.207808
Local:           +3.005133
--------------------------
Free energy:   -185.209862
Extrapolated:  -185.105958

Fermi level: -4.39232

 Band  Eigenvalues  Occupancy
    0    -23.22097    2.00000
    1    -22.25425    2.00000
    2    -21.83818    2.00000
    3    -20.89218    2.00000
    4    -20.63598    2.00000
    5    -20.28001    2.00000
    6    -19.52770    2.00000
    7    -19.34120    2.00000
    8    -18.67947    2.00000
    9    -18.57617    2.00000
   10    -17.98982    2.00000
   11    -16.99087    2.00000
   12    -16.69355    2.00000
   13    -15.84384    2.00000
   14    -15.46628    2.00000
   15    -15.36680    2.00000
   16    -13.96199    2.00000
   17    -13.66581    2.00000
   18    -13.33702    2.00000
   19    -12.87606    2.00000
   20    -12.64310    2.00000
   21    -12.02613    2.00000
   22    -11.75808    2.00000
   23    -11.64596    2.00000
   24    -11.15248    2.00000
   25    -11.04343    2.00000
   26    -10.79797    2.00000
   27    -10.42228    2.00000
   28     -9.97083    2.00000
   29     -9.90517    2.00000
   30     -9.69230    2.00000
   31     -9.35247    2.00000
   32     -9.09159    2.00000
   33     -8.58363    2.00000
   34     -8.43955    2.00000
   35     -8.14366    2.00000
   36     -7.29679    2.00000
   37     -7.09435    2.00000
   38     -6.94406    2.00000
   39     -6.79648    2.00000
   40     -6.69469    2.00000
   41     -6.63660    2.00000
   42     -6.59551    2.00000
   43     -6.42838    2.00000
   44     -6.36101    2.00000
   45     -5.40819    1.99992
   46     -4.69116    1.90410
   47     -4.58476    1.74527
   48     -4.23746    0.35059
   49     -3.40663    0.00010
   50     -3.16760    0.00001
   51     -2.87793    0.00000
   52     -2.80247    0.00000
   53     -2.68321    0.00000
   54     -2.26595    0.00000
   55     -1.82217    0.00000
   56     -1.39230    0.00000
   57     -1.18735    0.00000
   58     -0.34126    0.00000
   59     -0.14655    0.00000
   60      0.75768    0.00000
   61      2.11154    0.00000
   62      2.38997    0.00000
   63      3.08489    0.00000
   64      3.38998    0.00000
   65      3.66186    0.00000
   66      4.06601    0.00000
   67      4.11504    0.00000
   68      4.24746    0.00000
   69      4.76250    0.00000
   70      5.21288    0.00000
   71      5.83268    0.00000
   72      5.99300    0.00000
   73      6.57502    0.00000
   74      6.78622    0.00000
   75      6.87668    0.00000
   76      7.08896    0.00000
   77      7.53581    0.00000
   78      7.71414    0.00000
   79      7.97746    0.00000
   80      8.23509    0.00000
   81      8.40545    0.00000
   82      8.50897    0.00000
   83      8.90340    0.00000
   84      9.00363    0.00000
   85      9.10957    0.00000
   86      9.14003    0.00000
   87      9.30235    0.00000
   88      9.33841    0.00000
   89      9.42501    0.00000
   90      9.53964    0.00000
   91      9.58155    0.00000
   92      9.86452    0.00000
   93     10.10406    0.00000
   94     10.18063    0.00000
   95     10.27566    0.00000
   96     10.38197    0.00000
   97     10.44306    0.00000


Forces in eV/Ang:
  0 C    -0.52577   -0.10669    0.53048
  1 C     0.35269    0.21584   -0.18017
  2 C    -0.03940    0.31587   -0.34359
  3 C     0.23880   -0.38663    0.46521
  4 C     0.25281   -0.16652   -0.26855
  5 C    -1.22055   -0.39883    1.07063
  6 C    -0.58390    0.51499    0.06964
  7 C     0.32334   -0.03105   -0.26849
  8 C     0.52285    0.11335    0.04140
  9 C    -0.13756   -0.00504    0.80819
 10 C     0.22360    0.06774   -0.31086
 11 C    -0.08618    0.14921    0.05294
 12 C     0.05068   -0.03656    0.00395
 13 C     0.10947   -0.07160    0.07532
 14 C     0.07067   -0.01197    0.19408
 15 C    -0.07522   -0.04524    0.05643
 16 C    -0.05985    0.04804    0.18534
 17 C     0.00838   -0.00050    0.04687
 18 C    -0.07053   -0.03570   -0.09379
 19 C     0.06538   -0.15062    0.10479
 20 C     0.04615   -0.00094   -0.22979
 21 C    -0.25029   -0.09175   -0.22303
 22 C     0.48479   -0.00356   -0.67251
 23 C     0.33704    0.11059   -1.11418

System changes: positions 

Initializing position-dependent things.

Density initialized from wave functions
           .--------------------------------------.  
          /|                                      |  
         / |                                      |  
        /  |                                      |  
       /   |                                      |  
      /    |                                      |  
     /     |                                      |  
    /      |             C  C C                   |  
   /       |           C                          |  
  /        |            C     C C                 |  
 *         |  C C   C     C    C                  |  
 |         | C       C   C  C                     |  
 |         .---C---C--C---------------------------.  
 |        /    C    C  C  C                      /   
 |       /       C                              /    
 |      /                                      /     
 |     /                                      /      
 |    /                                      /       
 |   /                                      /        
 |  /                                      /         
 | /                                      /          
 |/                                      /           
 *--------------------------------------*            

Positions:
   0 C      5.450592    8.675665    5.840928
   1 C      5.656518    3.342985    5.295725
   2 C      3.532422    7.545444    5.666113
   3 C      5.904176    6.057519    5.520937
   4 C      4.477055    5.488182    5.441575
   5 C      6.171007    7.435541    5.639995
   6 C      4.064289    8.740568    5.852195
   7 C      4.640702    4.084331    5.341604
   8 C      3.286067    6.255917    5.564964
   9 C      7.001229    3.758982    5.436455
  10 C      7.098147    5.225700    5.712312
  11 C      8.260093    3.149162    5.557879
  12 C      9.649170    9.300621    7.348375
  13 C     10.763073    6.970855    6.971748
  14 C      9.722031    7.932161    7.010302
  15 C     10.741978    5.747362    6.672612
  16 C      8.559658    9.997141    7.253952
  17 C      7.308983   10.461490    7.006869
  18 C      9.615618    4.987004    6.266089
  19 C      8.492946    7.224055    6.548190
  20 C      8.381631    5.814875    6.160555
  21 C      9.358454    3.652447    5.921107
  22 C      6.707082    9.282347    6.519563
  23 C      7.331944    7.971889    6.328186

Unit cell:
           periodic     x           y           z      points  spacing
  1. axis:    yes   16.000000    0.000000    0.000000    80     0.2000
  2. axis:    yes    0.000000   16.000000    0.000000    80     0.2000
  3. axis:    yes    0.000000    0.000000   10.000000    48     0.2083

Effective grid spacing dv^(1/3) = 0.2027

                     log10-error:    total        iterations:
           time      wfs    density  energy       fermi  poisson
iter:   1  09:53:24          +inf  -185.307847    3      5      
iter:   2  09:53:25         -2.33  -185.291297    3      1      
iter:   3  09:53:25         -2.46  -185.269956    3      2      
iter:   4  09:53:26         -2.72  -185.280200    3      2      
iter:   5  09:53:26         -2.65  -185.272436    3      1      
iter:   6  09:53:27         -2.86  -185.270279    3      2      
iter:   7  09:53:28         -3.14  -185.273019    3      1      
iter:   8  09:53:28         -2.98  -185.269927    3      2      
iter:   9  09:53:29         -3.51  -185.269924    2      1      
iter:  10  09:53:30         -3.64  -185.269843    2      1      
iter:  11  09:53:30         -3.92  -185.270249    2      1      
iter:  12  09:53:31         -3.94  -185.270437    2      1      
iter:  13  09:53:32         -4.11  -185.270447    2      1      

Converged after 13 iterations.

Dipole moment: (0.369135, -0.641787, -0.190114) |e|*Ang

Energy contributions relative to reference atoms: (reference = -24663.074771)

Kinetic:       +117.298003
Potential:     -125.518238
External:        +0.000000
XC:            -179.969773
Entropy (-ST):   -0.195807
Local:           +3.017464
--------------------------
Free energy:   -185.368350
Extrapolated:  -185.270447

Fermi level: -4.37442

 Band  Eigenvalues  Occupancy
    0    -23.20148    2.00000
    1    -22.27224    2.00000
    2    -21.87371    2.00000
    3    -20.89681    2.00000
    4    -20.65924    2.00000
    5    -20.29286    2.00000
    6    -19.54633    2.00000
    7    -19.36311    2.00000
    8    -18.70638    2.00000
    9    -18.61047    2.00000
   10    -17.99405    2.00000
   11    -16.99605    2.00000
   12    -16.69289    2.00000
   13    -15.85561    2.00000
   14    -15.48495    2.00000
   15    -15.41832    2.00000
   16    -13.94479    2.00000
   17    -13.66129    2.00000
   18    -13.34788    2.00000
   19    -12.91484    2.00000
   20    -12.67625    2.00000
   21    -12.04531    2.00000
   22    -11.77100    2.00000
   23    -11.63617    2.00000
   24    -11.14797    2.00000
   25    -11.06954    2.00000
   26    -10.82200    2.00000
   27    -10.45130    2.00000
   28     -9.95521    2.00000
   29     -9.92889    2.00000
   30     -9.71054    2.00000
   31     -9.42761    2.00000
   32     -9.02648    2.00000
   33     -8.59246    2.00000
   34     -8.45543    2.00000
   35     -8.16033    2.00000
   36     -7.29083    2.00000
   37     -7.10407    2.00000
   38     -6.97720    2.00000
   39     -6.80596    2.00000
   40     -6.70154    2.00000
   41     -6.66238    2.00000
   42     -6.60067    2.00000
   43     -6.44615    2.00000
   44     -6.37291    2.00000
   45     -5.41116    1.99994
   46     -4.68696    1.91586
   47     -4.57534    1.76352
   48     -4.20881    0.32057
   49     -3.39070    0.00011
   50     -3.15971    0.00001
   51     -2.86793    0.00000
   52     -2.78427    0.00000
   53     -2.68296    0.00000
   54     -2.26109    0.00000
   55     -1.80406    0.00000
   56     -1.40048    0.00000
   57     -1.18628    0.00000
   58     -0.31742    0.00000
   59     -0.08534    0.00000
   60      0.76793    0.00000
   61      2.13348    0.00000
   62      2.42929    0.00000
   63      3.11107    0.00000
   64      3.39843    0.00000
   65      3.67778    0.00000
   66      4.01223    0.00000
   67      4.09451    0.00000
   68      4.24029    0.00000
   69      4.82473    0.00000
   70      5.18910    0.00000
   71      5.86807    0.00000
   72      6.02296    0.00000
   73      6.56972    0.00000
   74      6.79301    0.00000
   75      6.88308    0.00000
   76      7.09733    0.00000
   77      7.55143    0.00000
   78      7.72552    0.00000
   79      8.02156    0.00000
   80      8.20516    0.00000
   81      8.40639    0.00000
   82      8.51523    0.00000
   83      8.93300    0.00000
   84      9.02926    0.00000
   85      9.09276    0.00000
   86      9.14749    0.00000
   87      9.33929    0.00000
   88      9.36478    0.00000
   89      9.42445    0.00000
   90      9.54666    0.00000
   91      9.56872    0.00000
   92      9.89090    0.00000
   93     10.10669    0.00000
   94     10.17829    0.00000
   95     10.29046    0.00000
   96     10.39902    0.00000
   97     10.44662    0.00000


Forces in eV/Ang:
  0 C    -0.32486   -0.08868    0.59808
  1 C     0.05134   -0.04234   -0.15854
  2 C    -0.04300    0.12446   -0.28195
  3 C    -0.41771   -0.32583    0.30010
  4 C     0.31097   -0.13120   -0.13409
  5 C    -0.14545   -0.08984    1.08513
  6 C    -0.72515    0.57609    0.05433
  7 C     0.12243   -0.00027   -0.27240
  8 C     0.48800    0.23188   -0.02831
  9 C     0.26460    0.11433    0.59357
 10 C     0.35718   -0.04845   -0.09066
 11 C    -0.30111   -0.04622   -0.00090
 12 C    -0.00547    0.01653    0.04893
 13 C     0.10070   -0.05803    0.09048
 14 C     0.04138   -0.03361    0.16051
 15 C    -0.08796   -0.09294    0.04857
 16 C     0.02442   -0.04778    0.12697
 17 C     0.02539   -0.02344    0.04263
 18 C    -0.05851   -0.07928   -0.13442
 19 C    -0.03448    0.00153   -0.14388
 20 C     0.14610   -0.01288   -0.14626
 21 C     0.08903    0.11530   -0.06703
 22 C     0.30823   -0.01291   -0.69928
 23 C    -0.16179   -0.02587   -0.97753

System changes: positions 

Initializing position-dependent things.

Density initialized from wave functions
           .--------------------------------------.  
          /|                                      |  
         / |                                      |  
        /  |                                      |  
       /   |                                      |  
      /    |                                      |  
     /     |                                      |  
    /      |             C  C C                   |  
   /       |           C                          |  
  /        |            C     C C                 |  
 *         |  C C   C     C    C                  |  
 |         | C       C   C  C                     |  
 |         .---C---C--C---------------------------.  
 |        /    C    C  C  C                      /   
 |       /       C                              /    
 |      /                                      /     
 |     /                                      /      
 |    /                                      /       
 |   /                                      /        
 |  /                                      /         
 | /                                      /          
 |/                                      /           
 *--------------------------------------*            

Positions:
   0 C      5.436334    8.672000    5.856047
   1 C      5.665505    3.346158    5.291054
   2 C      3.530637    7.550699    5.657218
   3 C      5.908901    6.048276    5.532900
   4 C      4.483096    5.484045    5.435677
   5 C      6.142025    7.426461    5.666026
   6 C      4.049858    8.756827    5.853956
   7 C      4.646927    4.083704    5.334183
   8 C      3.299879    6.260718    5.565162
   9 C      6.999866    3.759473    5.456292
  10 C      7.102832    5.226856    5.705351
  11 C      8.252507    3.149471    5.557784
  12 C      9.648990    9.301039    7.349049
  13 C     10.765610    6.969484    6.974099
  14 C      9.723624    7.930922    7.014976
  15 C     10.739761    5.745304    6.674011
  16 C      8.560351    9.996639    7.258493
  17 C      7.309192   10.461061    7.007971
  18 C      9.614003    4.985310    6.263086
  19 C      8.494505    7.221934    6.548985
  20 C      8.384118    5.814761    6.155031
  21 C      9.358715    3.654051    5.917801
  22 C      6.718168    9.282964    6.501260
  23 C      7.340108    7.974184    6.301813

Unit cell:
           periodic     x           y           z      points  spacing
  1. axis:    yes   16.000000    0.000000    0.000000    80     0.2000
  2. axis:    yes    0.000000   16.000000    0.000000    80     0.2000
  3. axis:    yes    0.000000    0.000000   10.000000    48     0.2083

Effective grid spacing dv^(1/3) = 0.2027

                     log10-error:    total        iterations:
           time      wfs    density  energy       fermi  poisson
iter:   1  09:53:34          +inf  -185.427672    2      5      
iter:   2  09:53:35         -2.36  -185.413711    3      1      
iter:   3  09:53:35         -2.47  -185.392609    3      2      
iter:   4  09:53:36         -2.76  -185.405479    3      2      
iter:   5  09:53:37         -2.67  -185.397422    3      1      
iter:   6  09:53:37         -2.96  -185.391828    3      2      
iter:   7  09:53:38         -3.12  -185.395466    3      1      
iter:   8  09:53:39         -3.20  -185.393749    2      1      
iter:   9  09:53:39         -3.65  -185.393457    2      1      
iter:  10  09:53:40         -3.77  -185.394417    2      1      
iter:  11  09:53:40         -3.73  -185.393986    2      1      
iter:  12  09:53:41         -4.02  -185.393878    2      1      

Converged after 12 iterations.

Dipole moment: (0.382286, -0.678131, -0.193528) |e|*Ang

Energy contributions relative to reference atoms: (reference = -24663.074771)

Kinetic:       +118.055436
Potential:     -126.190785
External:        +0.000000
XC:            -180.171663
Entropy (-ST):   -0.186750
Local:           +3.006509
--------------------------
Free energy:   -185.487253
Extrapolated:  -185.393878

Fermi level: -4.36074

 Band  Eigenvalues  Occupancy
    0    -23.18787    2.00000
    1    -22.29357    2.00000
    2    -21.90610    2.00000
    3    -20.91000    2.00000
    4    -20.67515    2.00000
    5    -20.29670    2.00000
    6    -19.55611    2.00000
    7    -19.38504    2.00000
    8    -18.71844    2.00000
    9    -18.62559    2.00000
   10    -18.01179    2.00000
   11    -16.99550    2.00000
   12    -16.69153    2.00000
   13    -15.88233    2.00000
   14    -15.50147    2.00000
   15    -15.45534    2.00000
   16    -13.91653    2.00000
   17    -13.66263    2.00000
   18    -13.34985    2.00000
   19    -12.94565    2.00000
   20    -12.70587    2.00000
   21    -12.05797    2.00000
   22    -11.79712    2.00000
   23    -11.62643    2.00000
   24    -11.15537    2.00000
   25    -11.09729    2.00000
   26    -10.84904    2.00000
   27    -10.47259    2.00000
   28     -9.94754    2.00000
   29     -9.92863    2.00000
   30     -9.73208    2.00000
   31     -9.48531    2.00000
   32     -8.96817    2.00000
   33     -8.60216    2.00000
   34     -8.46764    2.00000
   35     -8.16679    2.00000
   36     -7.27879    2.00000
   37     -7.11842    2.00000
   38     -7.01365    2.00000
   39     -6.81404    2.00000
   40     -6.69665    2.00000
   41     -6.67008    2.00000
   42     -6.59895    2.00000
   43     -6.46003    2.00000
   44     -6.36689    2.00000
   45     -5.42336    1.99995
   46     -4.68236    1.92288
   47     -4.56913    1.77867
   48     -4.18661    0.29831
   49     -3.42659    0.00018
   50     -3.14326    0.00001
   51     -2.87349    0.00000
   52     -2.80486    0.00000
   53     -2.69257    0.00000
   54     -2.26502    0.00000
   55     -1.78641    0.00000
   56     -1.40779    0.00000
   57     -1.17495    0.00000
   58     -0.31244    0.00000
   59     -0.03611    0.00000
   60      0.75895    0.00000
   61      2.14784    0.00000
   62      2.44536    0.00000
   63      3.14053    0.00000
   64      3.40767    0.00000
   65      3.68701    0.00000
   66      3.94684    0.00000
   67      4.09549    0.00000
   68      4.23309    0.00000
   69      4.87352    0.00000
   70      5.16352    0.00000
   71      5.89080    0.00000
   72      6.03153    0.00000
   73      6.60349    0.00000
   74      6.78628    0.00000
   75      6.91202    0.00000
   76      7.11437    0.00000
   77      7.54384    0.00000
   78      7.73704    0.00000
   79      8.04911    0.00000
   80      8.16351    0.00000
   81      8.41020    0.00000
   82      8.53605    0.00000
   83      8.94867    0.00000
   84      9.04873    0.00000
   85      9.07859    0.00000
   86      9.15757    0.00000
   87      9.34337    0.00000
   88      9.39653    0.00000
   89      9.42582    0.00000
   90      9.54077    0.00000
   91      9.56858    0.00000
   92      9.88781    0.00000
   93     10.10694    0.00000
   94     10.17050    0.00000
   95     10.30241    0.00000
   96     10.41124    0.00000
   97     10.45258    0.00000


Forces in eV/Ang:
  0 C    -0.21271   -0.04051    0.55476
  1 C    -0.24617   -0.13700   -0.14648
  2 C     0.03440    0.23344   -0.13798
  3 C    -0.76459   -0.20916    0.19461
  4 C     0.30324   -0.06862    0.00054
  5 C     0.62748    0.08914    1.00464
  6 C    -0.81045    0.47140    0.03537
  7 C     0.07696   -0.11969   -0.27093
  8 C     0.46781    0.23518   -0.14314
  9 C     0.32707    0.15103    0.32830
 10 C     0.41683   -0.04273    0.12603
 11 C     0.40409    0.03041    0.20358
 12 C     0.08920   -0.11435    0.09514
 13 C     0.07820   -0.14679    0.07774
 14 C     0.01024    0.01177    0.12490
 15 C    -0.06060   -0.00279    0.07714
 16 C    -0.10202    0.00268    0.03371
 17 C     0.05890   -0.06288    0.03578
 18 C     0.03146    0.00717   -0.12112
 19 C    -0.07155    0.11043   -0.35774
 20 C     0.12568    0.01045   -0.09198
 21 C    -0.34257   -0.20053   -0.20190
 22 C     0.12079   -0.00018   -0.65726
 23 C    -0.53591   -0.14905   -0.76794

System changes: positions 

Initializing position-dependent things.

Density initialized from wave functions
           .--------------------------------------.  
          /|                                      |  
         / |                                      |  
        /  |                                      |  
       /   |                                      |  
      /    |                                      |  
     /     |                                      |  
    /      |             C  C C                   |  
   /       |           C                          |  
  /        |    C       C     C C                 |  
 *         |  C     C     C    C                  |  
 |         | C       C   C  C                     |  
 |         .---C---C--C---------------------------.  
 |        /    C    C  C  C                      /   
 |       /       C                              /    
 |      /                                      /     
 |     /                                      /      
 |    /                                      /       
 |   /                                      /        
 |  /                                      /         
 | /                                      /          
 |/                                      /           
 *--------------------------------------*            

Positions:
   0 C      5.419555    8.668262    5.874488
   1 C      5.672101    3.348094    5.285392
   2 C      3.529470    7.558485    5.648515
   3 C      5.909759    6.039330    5.546315
   4 C      4.490152    5.480044    5.430745
   5 C      6.116646    7.416727    5.695371
   6 C      4.031083    8.776191    5.855841
   7 C      4.653504    4.080922    5.324832
   8 C      3.316974    6.266965    5.563265
   9 C      6.999149    3.760764    5.476482
  10 C      7.109124    5.228304    5.700335
  11 C      8.254308    3.150519    5.560929
  12 C      9.650040    9.299664    7.350783
  13 C     10.768325    6.966371    6.976910
  14 C      9.724938    7.929852    7.020085
  15 C     10.737384    5.744081    6.676237
  16 C      8.559576    9.996514    7.262565
  17 C      7.309859   10.459527    7.009116
  18 C      9.613626    4.984485    6.259459
  19 C      8.495579    7.221535    6.546051
  20 C      8.387149    5.815191    6.149142
  21 C      9.352817    3.651342    5.911760
  22 C      6.728716    9.284744    6.479075
  23 C      7.346536    7.975291    6.274227

Unit cell:
           periodic     x           y           z      points  spacing
  1. axis:    yes   16.000000    0.000000    0.000000    80     0.2000
  2. axis:    yes    0.000000   16.000000    0.000000    80     0.2000
  3. axis:    yes    0.000000    0.000000   10.000000    48     0.2083

Effective grid spacing dv^(1/3) = 0.2027

                     log10-error:    total        iterations:
           time      wfs    density  energy       fermi  poisson
iter:   1  09:53:44          +inf  -185.528300    3      5      
iter:   2  09:53:44         -2.32  -185.510806    3      1      
iter:   3  09:53:45         -2.44  -185.487337    3      2      
iter:   4  09:53:46         -2.72  -185.498466    3      2      
iter:   5  09:53:46         -2.69  -185.493147    3      2      
iter:   6  09:53:47         -2.91  -185.485263    3      2      
iter:   7  09:53:48         -2.97  -185.492885    3      2      
iter:   8  09:53:48         -3.04  -185.488726    3      1      
iter:   9  09:53:49         -3.61  -185.488057    2      1      
iter:  10  09:53:49         -3.66  -185.488768    2      1      
iter:  11  09:53:50         -3.87  -185.488220    2      1      
iter:  12  09:53:51         -3.77  -185.488468    2      1      
iter:  13  09:53:51         -4.11  -185.488987    2      1      

Converged after 13 iterations.

Dipole moment: (0.392690, -0.701520, -0.193794) |e|*Ang

Energy contributions relative to reference atoms: (reference = -24663.074771)

Kinetic:       +119.265719
Potential:     -127.221712
External:        +0.000000
XC:            -180.448027
Entropy (-ST):   -0.178104
Local:           +3.004085
--------------------------
Free energy:   -185.578040
Extrapolated:  -185.488987

Fermi level: -4.35511

 Band  Eigenvalues  Occupancy
    0    -23.17607    2.00000
    1    -22.30169    2.00000
    2    -21.92759    2.00000
    3    -20.92583    2.00000
    4    -20.68479    2.00000
    5    -20.30553    2.00000
    6    -19.56733    2.00000
    7    -19.39409    2.00000
    8    -18.72912    2.00000
    9    -18.66159    2.00000
   10    -18.00850    2.00000
   11    -17.00604    2.00000
   12    -16.69257    2.00000
   13    -15.88159    2.00000
   14    -15.53154    2.00000
   15    -15.47235    2.00000
   16    -13.89698    2.00000
   17    -13.64837    2.00000
   18    -13.34806    2.00000
   19    -12.96112    2.00000
   20    -12.73459    2.00000
   21    -12.05935    2.00000
   22    -11.83149    2.00000
   23    -11.61505    2.00000
   24    -11.15608    2.00000
   25    -11.10487    2.00000
   26    -10.87148    2.00000
   27    -10.49382    2.00000
   28     -9.94583    2.00000
   29     -9.90598    2.00000
   30     -9.75566    2.00000
   31     -9.51458    2.00000
   32     -8.92684    2.00000
   33     -8.61163    2.00000
   34     -8.47446    2.00000
   35     -8.17931    2.00000
   36     -7.26593    2.00000
   37     -7.13045    2.00000
   38     -7.05029    2.00000
   39     -6.82357    2.00000
   40     -6.73570    2.00000
   41     -6.66905    2.00000
   42     -6.59850    2.00000
   43     -6.47845    2.00000
   44     -6.39003    2.00000
   45     -5.42705    1.99996
   46     -4.68122    1.92615
   47     -4.57288    1.79647
   48     -4.17244    0.27729
   49     -3.39128    0.00013
   50     -3.14414    0.00001
   51     -2.86548    0.00000
   52     -2.77901    0.00000
   53     -2.67895    0.00000
   54     -2.26860    0.00000
   55     -1.79023    0.00000
   56     -1.41869    0.00000
   57     -1.17119    0.00000
   58     -0.28157    0.00000
   59      0.00055    0.00000
   60      0.77056    0.00000
   61      2.15408    0.00000
   62      2.48802    0.00000
   63      3.16453    0.00000
   64      3.42671    0.00000
   65      3.67938    0.00000
   66      3.88624    0.00000
   67      4.11501    0.00000
   68      4.22375    0.00000
   69      4.92772    0.00000
   70      5.13313    0.00000
   71      5.89234    0.00000
   72      6.06405    0.00000
   73      6.55125    0.00000
   74      6.74136    0.00000
   75      6.91237    0.00000
   76      7.14555    0.00000
   77      7.52880    0.00000
   78      7.73721    0.00000
   79      8.03869    0.00000
   80      8.12318    0.00000
   81      8.40460    0.00000
   82      8.54572    0.00000
   83      8.95819    0.00000
   84      9.06447    0.00000
   85      9.07843    0.00000
   86      9.15456    0.00000
   87      9.33802    0.00000
   88      9.40772    0.00000
   89      9.43446    0.00000
   90      9.52606    0.00000
   91      9.58154    0.00000
   92      9.86970    0.00000
   93     10.11356    0.00000
   94     10.16208    0.00000
   95     10.31351    0.00000
   96     10.42024    0.00000
   97     10.45465    0.00000


Forces in eV/Ang:
  0 C    -0.07622   -0.07220    0.51662
  1 C    -0.19621   -0.32807   -0.10458
  2 C     0.04822    0.18814   -0.03805
  3 C    -0.89862   -0.13756    0.14260
  4 C     0.28856   -0.07552    0.08890
  5 C     1.13382    0.28701    0.83205
  6 C    -0.68903    0.32634    0.01078
  7 C    -0.15884   -0.02424   -0.24838
  8 C     0.37095    0.27879   -0.21542
  9 C     0.49684    0.10943    0.08941
 10 C     0.28942   -0.13150    0.29486
 11 C    -0.29187   -0.29318    0.01117
 12 C     0.03294   -0.05718    0.15486
 13 C     0.01244    0.01099    0.12164
 14 C    -0.00610   -0.03102    0.04902
 15 C    -0.04447   -0.13832    0.03420
 16 C     0.00108   -0.09656   -0.03083
 17 C     0.05761   -0.11390   -0.03282
 18 C     0.03271   -0.07314   -0.14835
 19 C    -0.05085    0.19264   -0.52453
 20 C     0.19113    0.02780   -0.02138
 21 C     0.40338    0.23280    0.05365
 22 C    -0.04962   -0.02620   -0.53644
 23 C    -0.78187   -0.15343   -0.50041

System changes: positions 

Initializing position-dependent things.

Density initialized from wave functions
           .--------------------------------------.  
          /|                                      |  
         / |                                      |  
        /  |                                      |  
       /   |                                      |  
      /    |                                      |  
     /     |                                      |  
    /      |             C  C C                   |  
   /       |           C                          |  
  /        |    C             C C                 |  
 *         |        C   C C    C                  |  
 |         | CC          C  C                     |  
 |         .---C---C--C---------------------------.  
 |        /    C    C  C  C                      /   
 |       /       C                              /    
 |      /                                      /     
 |     /                                      /      
 |    /                                      /       
 |   /                                      /        
 |  /                                      /         
 | /                                      /          
 |/                                      /           
 *--------------------------------------*            

Positions:
   0 C      5.400481    8.663281    5.897831
   1 C      5.679703    3.346173    5.278826
   2 C      3.528718    7.568690    5.639973
   3 C      5.906253    6.030289    5.562321
   4 C      4.498809    5.475232    5.426944
   5 C      6.096859    7.407681    5.728937
   6 C      4.008440    8.798398    5.857712
   7 C      4.657223    4.078224    5.312957
   8 C      3.337600    6.275702    5.558526
   9 C      7.001649    3.762060    5.496558
  10 C      7.115295    5.228430    5.698481
  11 C      8.248649    3.146143    5.562893
  12 C      9.650986    9.298063    7.354544
  13 C     10.770460    6.964676    6.981367
  14 C      9.725982    7.927822    7.025036
  15 C     10.734707    5.740489    6.678545
  16 C      8.559650    9.994796    7.266021
  17 C      7.310857   10.456017    7.009199
  18 C      9.613845    4.982421    6.254244
  19 C      8.497224    7.223396    6.537474
  20 C      8.392296    5.816373    6.143185
  21 C      9.356259    3.653860    5.907762
  22 C      6.738102    9.287208    6.452569
  23 C      7.349179    7.976244    6.245634

Unit cell:
           periodic     x           y           z      points  spacing
  1. axis:    yes   16.000000    0.000000    0.000000    80     0.2000
  2. axis:    yes    0.000000   16.000000    0.000000    80     0.2000
  3. axis:    yes    0.000000    0.000000   10.000000    48     0.2083

Effective grid spacing dv^(1/3) = 0.2027

                     log10-error:    total        iterations:
           time      wfs    density  energy       fermi  poisson
iter:   1  09:53:54          +inf  -185.592817    3      5      
iter:   2  09:53:54         -2.38  -185.583948    3      1      
iter:   3  09:53:55         -2.47  -185.567254    3      2      
iter:   4  09:53:56         -2.73  -185.585033    3      2      
iter:   5  09:53:56         -2.60  -185.578293    3      1      
iter:   6  09:53:57         -2.80  -185.568313    3      2      
iter:   7  09:53:58         -3.20  -185.569266    2      1      
iter:   8  09:53:58         -3.27  -185.568937    2      1      
iter:   9  09:53:59         -3.49  -185.567791    2      1      
iter:  10  09:54:00         -3.67  -185.567618    2      1      
iter:  11  09:54:00         -3.75  -185.567716    2      1      
iter:  12  09:54:01         -3.88  -185.567988    2      1      
iter:  13  09:54:01         -3.92  -185.568059    2      1      
iter:  14  09:54:02         -4.03  -185.567960    1      1      

Converged after 14 iterations.

Dipole moment: (0.407015, -0.728702, -0.192286) |e|*Ang

Energy contributions relative to reference atoms: (reference = -24663.074771)

Kinetic:       +118.592271
Potential:     -126.751174
External:        +0.000000
XC:            -180.318681
Entropy (-ST):   -0.173165
Local:           +2.996207
--------------------------
Free energy:   -185.654542
Extrapolated:  -185.567960

Fermi level: -4.35256

 Band  Eigenvalues  Occupancy
    0    -23.17289    2.00000
    1    -22.31137    2.00000
    2    -21.94606    2.00000
    3    -20.93870    2.00000
    4    -20.69028    2.00000
    5    -20.30406    2.00000
    6    -19.55947    2.00000
    7    -19.41695    2.00000
    8    -18.71761    2.00000
    9    -18.67442    2.00000
   10    -18.01123    2.00000
   11    -16.99873    2.00000
   12    -16.69087    2.00000
   13    -15.89514    2.00000
   14    -15.53979    2.00000
   15    -15.48870    2.00000
   16    -13.87205    2.00000
   17    -13.65055    2.00000
   18    -13.34074    2.00000
   19    -12.97463    2.00000
   20    -12.75433    2.00000
   21    -12.05185    2.00000
   22    -11.86856    2.00000
   23    -11.61593    2.00000
   24    -11.16736    2.00000
   25    -11.11695    2.00000
   26    -10.89344    2.00000
   27    -10.50144    2.00000
   28     -9.94219    2.00000
   29     -9.87870    2.00000
   30     -9.77986    2.00000
   31     -9.52787    2.00000
   32     -8.91181    2.00000
   33     -8.61734    2.00000
   34     -8.48029    2.00000
   35     -8.17868    2.00000
   36     -7.24478    2.00000
   37     -7.15149    2.00000
   38     -7.08323    2.00000
   39     -6.81987    2.00000
   40     -6.73215    2.00000
   41     -6.65398    2.00000
   42     -6.58556    2.00000
   43     -6.48332    2.00000
   44     -6.38335    2.00000
   45     -5.43369    1.99996
   46     -4.67755    1.92535
   47     -4.57783    1.80978
   48     -4.16451    0.26468
   49     -3.44357    0.00023
   50     -3.13670    0.00001
   51     -2.88495    0.00000
   52     -2.82314    0.00000
   53     -2.69130    0.00000
   54     -2.27545    0.00000
   55     -1.78854    0.00000
   56     -1.42312    0.00000
   57     -1.15745    0.00000
   58     -0.29545    0.00000
   59      0.02106    0.00000
   60      0.74482    0.00000
   61      2.15264    0.00000
   62      2.49957    0.00000
   63      3.20687    0.00000
   64      3.45186    0.00000
   65      3.66845    0.00000
   66      3.85494    0.00000
   67      4.13263    0.00000
   68      4.22633    0.00000
   69      4.95035    0.00000
   70      5.10045    0.00000
   71      5.87530    0.00000
   72      6.06083    0.00000
   73      6.54118    0.00000
   74      6.73122    0.00000
   75      6.94162    0.00000
   76      7.19658    0.00000
   77      7.50482    0.00000
   78      7.73382    0.00000
   79      7.98289    0.00000
   80      8.11088    0.00000
   81      8.39125    0.00000
   82      8.58285    0.00000
   83      8.96259    0.00000
   84      9.06180    0.00000
   85      9.08046    0.00000
   86      9.16335    0.00000
   87      9.33201    0.00000
   88      9.41387    0.00000
   89      9.44006    0.00000
   90      9.51345    0.00000
   91      9.57693    0.00000
   92      9.83764    0.00000
   93     10.12467    0.00000
   94     10.15102    0.00000
   95     10.32069    0.00000
   96     10.41528    0.00000
   97     10.46331    0.00000


Forces in eV/Ang:
  0 C     0.00799   -0.05600    0.39515
  1 C    -0.46080   -0.18550   -0.04801
  2 C     0.04047    0.08403    0.07420
  3 C    -0.75799   -0.01920    0.12913
  4 C     0.15380   -0.00600    0.15972
  5 C     1.24969    0.37436    0.56022
  6 C    -0.46199    0.27941    0.01944
  7 C     0.02430   -0.24830   -0.26187
  8 C     0.25924    0.30664   -0.29740
  9 C     0.34062    0.06477   -0.19000
 10 C     0.14511   -0.07467    0.44188
 11 C     0.55962   -0.06229    0.24268
 12 C     0.01983   -0.08618    0.19641
 13 C    -0.02015   -0.18994    0.08485
 14 C    -0.05160    0.01736   -0.05146
 15 C     0.02191    0.10548    0.09285
 16 C     0.00206   -0.12810   -0.09858
 17 C     0.05683   -0.14233   -0.10298
 18 C     0.11765    0.04176   -0.10584
 19 C    -0.04305    0.25166   -0.64224
 20 C     0.06791    0.05562   -0.00054
 21 C    -0.21556   -0.21232   -0.14375
 22 C    -0.23326    0.03176   -0.31947
 23 C    -0.81113   -0.16816   -0.19752

System changes: positions 

Initializing position-dependent things.

Density initialized from wave functions
           .--------------------------------------.  
          /|                                      |  
         / |                                      |  
        /  |                                      |  
       /   |                                      |  
      /    |                                      |  
     /     |                                      |  
    /      |             C  C C                   |  
   /       |           C                          |  
  /        |    C   C         C C                 |  
 *         |        C   C C    C                  |  
 |         | CC          C  C                     |  
 |         .---C---C--C---------------------------.  
 |        /    C    C  C  C                      /   
 |       /       C                              /    
 |      /                                      /     
 |     /                                      /      
 |    /                                      /       
 |   /                                      /        
 |  /                                      /         
 | /                                      /          
 |/                                      /           
 *--------------------------------------*            

Positions:
   0 C      5.378879    8.656933    5.927244
   1 C      5.682070    3.342889    5.271654
   2 C      3.527826    7.579094    5.632550
   3 C      5.898237    6.022143    5.582340
   4 C      4.507944    5.470488    5.425376
   5 C      6.085344    7.400749    5.766611
   6 C      3.982542    8.826477    5.860098
   7 C      4.662671    4.070372    5.296455
   8 C      3.362310    6.289478    5.548625
   9 C      7.006033    3.763234    5.513409
  10 C      7.120271    5.228123    5.703003
  11 C      8.253464    3.141058    5.569084
  12 C      9.651337    9.295789    7.361729
  13 C     10.771879    6.959312    6.987231
  14 C      9.725881    7.925649    7.028440
  15 C     10.732685    5.739551    6.682628
  16 C      8.561006    9.990206    7.267969
  17 C      7.312294   10.449565    7.006839
  18 C      9.616391    4.981239    6.247487
  19 C      8.498877    7.229401    6.518991
  20 C      8.397878    5.818953    6.136879
  21 C      9.355613    3.652178    5.900981
  22 C      6.743626    9.291956    6.422233
  23 C      7.346752    7.976254    6.217846

Unit cell:
           periodic     x           y           z      points  spacing
  1. axis:    yes   16.000000    0.000000    0.000000    80     0.2000
  2. axis:    yes    0.000000   16.000000    0.000000    80     0.2000
  3. axis:    yes    0.000000    0.000000   10.000000    48     0.2083

Effective grid spacing dv^(1/3) = 0.2027

                     log10-error:    total        iterations:
           time      wfs    density  energy       fermi  poisson
iter:   1  09:54:05          +inf  -185.681579    3      5      
iter:   2  09:54:05         -2.27  -185.662600    3      2      
iter:   3  09:54:06         -2.39  -185.640359    3      2      
iter:   4  09:54:07         -2.64  -185.641778    2      2      
iter:   5  09:54:07         -2.74  -185.639635    3      1      
iter:   6  09:54:08         -2.84  -185.641198    2      2      
iter:   7  09:54:09         -3.16  -185.642260    3      1      
iter:   8  09:54:09         -3.11  -185.639102    3      1      
iter:   9  09:54:10         -3.55  -185.639541    2      1      
iter:  10  09:54:10         -3.59  -185.639989    2      1      
iter:  11  09:54:11         -3.72  -185.639642    2      1      
iter:  12  09:54:12         -3.94  -185.639965    2      1      
iter:  13  09:54:12         -4.03  -185.640062    2      1      

Converged after 13 iterations.

Dipole moment: (0.420846, -0.753997, -0.187095) |e|*Ang

Energy contributions relative to reference atoms: (reference = -24663.074771)

Kinetic:       +118.868054
Potential:     -127.048079
External:        +0.000000
XC:            -180.374979
Entropy (-ST):   -0.173321
Local:           +3.001602
--------------------------
Free energy:   -185.726722
Extrapolated:  -185.640062

Fermi level: -4.36023

 Band  Eigenvalues  Occupancy
    0    -23.17454    2.00000
    1    -22.31087    2.00000
    2    -21.95292    2.00000
    3    -20.95455    2.00000
    4    -20.68435    2.00000
    5    -20.30429    2.00000
    6    -19.56730    2.00000
    7    -19.40930    2.00000
    8    -18.71125    2.00000
    9    -18.69135    2.00000
   10    -18.00934    2.00000
   11    -17.01063    2.00000
   12    -16.68342    2.00000
   13    -15.89385    2.00000
   14    -15.56641    2.00000
   15    -15.47977    2.00000
   16    -13.86019    2.00000
   17    -13.61850    2.00000
   18    -13.33360    2.00000
   19    -12.97066    2.00000
   20    -12.76357    2.00000
   21    -12.03887    2.00000
   22    -11.90991    2.00000
   23    -11.61460    2.00000
   24    -11.16773    2.00000
   25    -11.11171    2.00000
   26    -10.90504    2.00000
   27    -10.50497    2.00000
   28     -9.93652    2.00000
   29     -9.83801    2.00000
   30     -9.79533    2.00000
   31     -9.50509    2.00000
   32     -8.93520    2.00000
   33     -8.63080    2.00000
   34     -8.47852    2.00000
   35     -8.17973    2.00000
   36     -7.22422    2.00000
   37     -7.17777    2.00000
   38     -7.10062    2.00000
   39     -6.80987    2.00000
   40     -6.76639    2.00000
   41     -6.66400    2.00000
   42     -6.58669    2.00000
   43     -6.50843    2.00000
   44     -6.40283    2.00000
   45     -5.44226    1.99996
   46     -4.67538    1.91794
   47     -4.59059    1.81836
   48     -4.17170    0.26356
   49     -3.42405    0.00017
   50     -3.13221    0.00001
   51     -2.87499    0.00000
   52     -2.81238    0.00000
   53     -2.68137    0.00000
   54     -2.26515    0.00000
   55     -1.80966    0.00000
   56     -1.42350    0.00000
   57     -1.13163    0.00000
   58     -0.27795    0.00000
   59      0.02367    0.00000
   60      0.75625    0.00000
   61      2.15123    0.00000
   62      2.54862    0.00000
   63      3.26044    0.00000
   64      3.49425    0.00000
   65      3.65308    0.00000
   66      3.89568    0.00000
   67      4.16836    0.00000
   68      4.23829    0.00000
   69      4.98276    0.00000
   70      5.07131    0.00000
   71      5.83249    0.00000
   72      6.07193    0.00000
   73      6.46359    0.00000
   74      6.67378    0.00000
   75      6.86132    0.00000
   76      7.24935    0.00000
   77      7.47045    0.00000
   78      7.71949    0.00000
   79      7.89258    0.00000
   80      8.11078    0.00000
   81      8.35538    0.00000
   82      8.59722    0.00000
   83      8.96473    0.00000
   84      9.06587    0.00000
   85      9.06891    0.00000
   86      9.16057    0.00000
   87      9.32437    0.00000
   88      9.41954    0.00000
   89      9.43980    0.00000
   90      9.49506    0.00000
   91      9.57189    0.00000
   92      9.79970    0.00000
   93     10.13275    0.00000
   94     10.14195    0.00000
   95     10.31897    0.00000
   96     10.39279    0.00000
   97     10.45409    0.00000


Forces in eV/Ang:
  0 C     0.06715    0.02806    0.18653
  1 C     0.09076   -0.31870    0.01584
  2 C     0.08831    0.27822    0.21627
  3 C    -0.31119    0.09223    0.18444
  4 C     0.01054   -0.11043    0.19118
  5 C     0.85832    0.22935    0.22655
  6 C    -0.16993    0.07243   -0.01066
  7 C    -0.38990    0.09336   -0.20015
  8 C     0.15744    0.13534   -0.40030
  9 C     0.19005   -0.12255   -0.37010
 10 C    -0.07516   -0.10223    0.45221
 11 C     0.01615   -0.20665    0.11797
 12 C     0.11947   -0.21298    0.21073
 13 C    -0.10407    0.16527    0.16930
 14 C    -0.03370    0.00953   -0.18332
 15 C     0.02134   -0.17672    0.00394
 16 C    -0.15061   -0.03766   -0.16871
 17 C     0.10387   -0.17566   -0.15047
 18 C     0.12623    0.04305   -0.08210
 19 C     0.02957    0.22812   -0.61151
 20 C     0.00014    0.01892    0.00682
 21 C     0.26729    0.05848    0.07036
 22 C    -0.37208    0.03200   -0.03094
 23 C    -0.56083   -0.01063    0.13278

System changes: positions 

Initializing position-dependent things.

Density initialized from wave functions
           .--------------------------------------.  
          /|                                      |  
         / |                                      |  
        /  |                                      |  
       /   |                                      |  
      /    |                                      |  
     /     |                                      |  
    /      |             C  C C                   |  
   /       |                                      |  
  /        |    C  C   C      C C                 |  
 *         |  C     C   C C    C                  |  
 |         | C           C  C                     |  
 |         .---C---C--C---------------------------.  
 |        /    C    C  C  C                      /   
 |       /       C                              /    
 |      /                                      /     
 |     /                                      /      
 |    /                                      /       
 |   /                                      /        
 |  /                                      /         
 | /                                      /          
 |/                                      /           
 *--------------------------------------*            

Positions:
   0 C      5.364203    8.653405    5.950367
   1 C      5.687436    3.334710    5.267144
   2 C      3.528840    7.591955    5.631857
   3 C      5.890422    6.019245    5.600257
   4 C      4.513384    5.465054    5.427907
   5 C      6.087999    7.397754    5.793783
   6 C      3.963425    8.847155    5.861504
[...]
External:        +0.000000
XC:            -180.278341
Entropy (-ST):   -0.196070
Local:           +3.004209
--------------------------
Free energy:   -185.872221
Extrapolated:  -185.774186

Fermi level: -4.39555

 Band  Eigenvalues  Occupancy
    0    -23.22188    2.00000
    1    -22.30805    2.00000
    2    -21.92881    2.00000
    3    -20.95459    2.00000
    4    -20.67325    2.00000
    5    -20.31949    2.00000
    6    -19.56032    2.00000
    7    -19.42161    2.00000
    8    -18.72846    2.00000
    9    -18.64050    2.00000
   10    -17.97758    2.00000
   11    -17.02432    2.00000
   12    -16.72433    2.00000
   13    -15.88935    2.00000
   14    -15.56145    2.00000
   15    -15.43951    2.00000
   16    -13.91146    2.00000
   17    -13.57546    2.00000
   18    -13.35499    2.00000
   19    -12.94228    2.00000
   20    -12.74986    2.00000
   21    -12.05823    2.00000
   22    -11.91973    2.00000
   23    -11.60192    2.00000
   24    -11.16916    2.00000
   25    -11.08940    2.00000
   26    -10.92870    2.00000
   27    -10.50475    2.00000
   28     -9.93121    2.00000
   29     -9.84877    2.00000
   30     -9.80193    2.00000
   31     -9.46778    2.00000
   32     -9.01943    2.00000
   33     -8.64188    2.00000
   34     -8.46810    2.00000
   35     -8.19715    2.00000
   36     -7.19066    2.00000
   37     -7.17492    2.00000
   38     -7.11269    2.00000
   39     -6.76817    2.00000
   40     -6.75514    2.00000
   41     -6.65183    2.00000
   42     -6.59902    2.00000
   43     -6.48855    2.00000
   44     -6.42932    2.00000
   45     -5.41397    1.99992
   46     -4.66968    1.87884
   47     -4.61964    1.80773
   48     -4.22725    0.31338
   49     -3.42670    0.00012
   50     -3.12945    0.00001
   51     -2.90137    0.00000
   52     -2.83777    0.00000
   53     -2.65918    0.00000
   54     -2.20704    0.00000
   55     -1.82456    0.00000
   56     -1.42262    0.00000
   57     -1.10799    0.00000
   58     -0.24030    0.00000
   59      0.00883    0.00000
   60      0.74959    0.00000
   61      2.16733    0.00000
   62      2.63438    0.00000
   63      3.27308    0.00000
   64      3.64338    0.00000
   65      3.70692    0.00000
   66      4.11246    0.00000
   67      4.16648    0.00000
   68      4.29975    0.00000
   69      5.03183    0.00000
   70      5.22886    0.00000
   71      5.75097    0.00000
   72      6.00863    0.00000
   73      6.42268    0.00000
   74      6.64296    0.00000
   75      6.67699    0.00000
   76      7.29064    0.00000
   77      7.41158    0.00000
   78      7.69041    0.00000
   79      7.82671    0.00000
   80      8.14970    0.00000
   81      8.27923    0.00000
   82      8.58555    0.00000
   83      8.96688    0.00000
   84      9.04565    0.00000
   85      9.08779    0.00000
   86      9.16816    0.00000
   87      9.33577    0.00000
   88      9.44170    0.00000
   89      9.46448    0.00000
   90      9.49523    0.00000
   91      9.53565    0.00000
   92      9.77348    0.00000
   93     10.15626    0.00000
   94     10.18094    0.00000
   95     10.30029    0.00000
   96     10.34585    0.00000
   97     10.43691    0.00000


Forces in eV/Ang:
  0 C    -0.10616   -0.03074    0.05219
  1 C    -0.08757    0.14020    0.01044
  2 C     0.02287    0.01452   -0.03894
  3 C     0.19465    0.00816    0.00341
  4 C    -0.03255   -0.02324   -0.11434
  5 C    -0.22285   -0.04246    0.03812
  6 C     0.04229   -0.03120   -0.01981
  7 C     0.15821   -0.11841   -0.03715
  8 C     0.02919   -0.02962   -0.00698
  9 C    -0.04828   -0.04478   -0.06476
 10 C    -0.03934   -0.08450   -0.02638
 11 C    -0.12292    0.00869   -0.00313
 12 C     0.08913    0.01401   -0.09111
 13 C     0.04363   -0.00268   -0.01086
 14 C     0.12244   -0.00374    0.04085
 15 C    -0.04033   -0.01547   -0.00247
 16 C    -0.02605    0.00560   -0.01824
 17 C    -0.00597    0.10844    0.01220
 18 C    -0.04683    0.00110   -0.02395
 19 C     0.01187    0.04452    0.12362
 20 C    -0.00644   -0.01479    0.08616
 21 C     0.03151    0.00435    0.02767
 22 C    -0.03983    0.06534    0.01517
 23 C     0.03972    0.03765   -0.03103

System changes: positions 

Initializing position-dependent things.

Density initialized from wave functions
           .--------------------------------------.  
          /|                                      |  
         / |                                      |  
        /  |                                      |  
       /   |                                      |  
      /    |                                      |  
     /     |                                      |  
    /      |             C  C C                   |  
   /       |           C                          |  
  /        |    C  C          C C                 |  
 *         |  C     C   C C    C                  |  
 |         |       C     C  C                     |  
 |         .-C-C------C---------------------------.  
 |        /    C    C  C  C                      /   
 |       /       C                              /    
 |      /                                      /     
 |     /                                      /      
 |    /                                      /       
 |   /                                      /        
 |  /                                      /         
 | /                                      /          
 |/                                      /           
 *--------------------------------------*            

Positions:
   0 C      5.357961    8.645435    6.016720
   1 C      5.685442    3.339439    5.240439
   2 C      3.531742    7.616754    5.636614
   3 C      5.883205    6.005473    5.660635
   4 C      4.506853    5.468315    5.418724
   5 C      6.075151    7.380922    5.865552
   6 C      3.970437    8.867984    5.897081
   7 C      4.658064    4.070379    5.222394
   8 C      3.396780    6.342087    5.423248
   9 C      7.019183    3.743884    5.505871
  10 C      7.115186    5.207960    5.749755
  11 C      8.270220    3.121663    5.606609
  12 C      9.636711    9.278779    7.368005
  13 C     10.750918    6.954484    7.007770
  14 C      9.715953    7.925178    6.982112
  15 C     10.749958    5.735283    6.692860
  16 C      8.562741    9.990296    7.219994
  17 C      7.319114   10.450952    6.956324
  18 C      9.636485    4.982558    6.238305
  19 C      8.507855    7.237972    6.435371
  20 C      8.407207    5.814802    6.111355
  21 C      9.375840    3.646270    5.919377
  22 C      6.716048    9.283221    6.445610
  23 C      7.324405    7.968302    6.252268

Unit cell:
           periodic     x           y           z      points  spacing
  1. axis:    yes   16.000000    0.000000    0.000000    80     0.2000
  2. axis:    yes    0.000000   16.000000    0.000000    80     0.2000
  3. axis:    yes    0.000000    0.000000   10.000000    48     0.2083

Effective grid spacing dv^(1/3) = 0.2027

                     log10-error:    total        iterations:
           time      wfs    density  energy       fermi  poisson
iter:   1  09:55:45          +inf  -185.778552    3      5      
iter:   2  09:55:46         -2.91  -185.777647    2      1      
iter:   3  09:55:47         -3.07  -185.777206    2      1      
iter:   4  09:55:47         -3.26  -185.776950    2      1      
iter:   5  09:55:48         -3.45  -185.776723    2      1      
iter:   6  09:55:49         -3.55  -185.776504    2      1      
iter:   7  09:55:49         -3.68  -185.777030    2      1      
iter:   8  09:55:50         -3.35  -185.776808    2      1      
iter:   9  09:55:50         -3.94  -185.776937    2      1      
iter:  10  09:55:51         -4.28  -185.776975    1      1      

Converged after 10 iterations.

Dipole moment: (0.412153, -0.756621, -0.146217) |e|*Ang

Energy contributions relative to reference atoms: (reference = -24663.074771)

Kinetic:       +118.190652
Potential:     -126.536565
External:        +0.000000
XC:            -180.333988
Entropy (-ST):   -0.195989
Local:           +3.000920
--------------------------
Free energy:   -185.874969
Extrapolated:  -185.776975

Fermi level: -4.39283

 Band  Eigenvalues  Occupancy
    0    -23.22094    2.00000
    1    -22.31030    2.00000
    2    -21.93316    2.00000
    3    -20.95513    2.00000
    4    -20.67643    2.00000
    5    -20.31992    2.00000
    6    -19.56215    2.00000
    7    -19.42507    2.00000
    8    -18.72902    2.00000
    9    -18.64427    2.00000
   10    -17.97978    2.00000
   11    -17.02470    2.00000
   12    -16.72512    2.00000
   13    -15.89392    2.00000
   14    -15.56231    2.00000
   15    -15.44400    2.00000
   16    -13.90876    2.00000
   17    -13.57906    2.00000
   18    -13.35666    2.00000
   19    -12.94410    2.00000
   20    -12.75261    2.00000
   21    -12.06130    2.00000
   22    -11.92503    2.00000
   23    -11.59897    2.00000
   24    -11.16680    2.00000
   25    -11.09195    2.00000
   26    -10.93214    2.00000
   27    -10.50728    2.00000
   28     -9.93239    2.00000
   29     -9.84799    2.00000
   30     -9.80532    2.00000
   31     -9.47512    2.00000
   32     -9.00683    2.00000
   33     -8.64305    2.00000
   34     -8.47063    2.00000
   35     -8.19770    2.00000
   36     -7.19146    2.00000
   37     -7.17223    2.00000
   38     -7.11478    2.00000
   39     -6.77343    2.00000
   40     -6.75523    2.00000
   41     -6.65485    2.00000
   42     -6.59669    2.00000
   43     -6.48844    2.00000
   44     -6.43007    2.00000
   45     -5.41658    1.99993
   46     -4.66782    1.87981
   47     -4.61640    1.80683
   48     -4.22449    0.31330
   49     -3.42637    0.00013
   50     -3.12857    0.00001
   51     -2.89546    0.00000
   52     -2.83264    0.00000
   53     -2.66231    0.00000
   54     -2.20872    0.00000
   55     -1.82148    0.00000
   56     -1.42269    0.00000
   57     -1.10857    0.00000
   58     -0.24185    0.00000
   59      0.01389    0.00000
   60      0.75202    0.00000
   61      2.16915    0.00000
   62      2.63503    0.00000
   63      3.27405    0.00000
   64      3.65038    0.00000
   65      3.72117    0.00000
   66      4.09889    0.00000
   67      4.15745    0.00000
   68      4.30314    0.00000
   69      5.03594    0.00000
   70      5.23751    0.00000
   71      5.75262    0.00000
   72      6.00523    0.00000
   73      6.43244    0.00000
   74      6.64542    0.00000
   75      6.67028    0.00000
   76      7.28419    0.00000
   77      7.41291    0.00000
   78      7.69713    0.00000
   79      7.82537    0.00000
   80      8.14557    0.00000
   81      8.28156    0.00000
   82      8.58344    0.00000
   83      8.96714    0.00000
   84      9.04966    0.00000
   85      9.08671    0.00000
   86      9.16676    0.00000
   87      9.34206    0.00000
   88      9.44100    0.00000
   89      9.46638    0.00000
   90      9.49543    0.00000
   91      9.53115    0.00000
   92      9.77483    0.00000
   93     10.16086    0.00000
   94     10.18142    0.00000
   95     10.29656    0.00000
   96     10.34797    0.00000
   97     10.43709    0.00000


Forces in eV/Ang:
  0 C    -0.07133   -0.00954    0.05646
  1 C    -0.07775    0.08911    0.01333
  2 C     0.01282    0.00033   -0.03294
  3 C     0.11367   -0.01209    0.02016
  4 C     0.00970   -0.01836   -0.09888
  5 C    -0.11180   -0.02004    0.01994
  6 C    -0.03161    0.04056   -0.02543
  7 C     0.09465   -0.10229   -0.04170
  8 C     0.05007   -0.03181   -0.00358
  9 C    -0.01927   -0.04565   -0.08370
 10 C    -0.00930   -0.06220   -0.01630
 11 C    -0.07806    0.01807    0.01448
 12 C     0.08254    0.02470   -0.06618
 13 C     0.06554    0.00574    0.00140
 14 C     0.11595    0.02273    0.02410
 15 C    -0.06127   -0.04342   -0.01488
 16 C    -0.01098   -0.01695   -0.03550
 17 C     0.02530    0.04720    0.02885
 18 C    -0.04632    0.00116   -0.01638
 19 C     0.01579    0.04676    0.10687
 20 C    -0.02159   -0.00262    0.09611
 21 C     0.00653   -0.00771    0.00238
 22 C    -0.04687    0.07351    0.01816
 23 C    -0.04431    0.06066   -0.04190

System changes: positions 

Initializing position-dependent things.

Density initialized from wave functions
           .--------------------------------------.  
          /|                                      |  
         / |                                      |  
        /  |                                      |  
       /   |                                      |  
      /    |                                      |  
     /     |                                      |  
    /      |             C  C C                   |  
   /       |           C                          |  
  /        |    C  C          C C                 |  
 *         |  C     C   C C    C                  |  
 |         |       C     C  C                     |  
 |         .-C-C------C---------------------------.  
 |        /    C    C  C  C                      /   
 |       /       C                              /    
 |      /                                      /     
 |     /                                      /      
 |    /                                      /       
 |   /                                      /        
 |  /                                      /         
 | /                                      /          
 |/                                      /           
 *--------------------------------------*            

Positions:
   0 C      5.354859    8.642822    6.027310
   1 C      5.686215    3.341919    5.237415
   2 C      3.532647    7.617604    5.631480
   3 C      5.885565    6.005070    5.659452
   4 C      4.506985    5.468808    5.410725
   5 C      6.070557    7.378883    5.876429
   6 C      3.969297    8.868346    5.899723
   7 C      4.659770    4.070629    5.216630
   8 C      3.398314    6.343426    5.416512
   9 C      7.017941    3.743075    5.505480
  10 C      7.114864    5.206336    5.750297
  11 C      8.267747    3.121510    5.608822
  12 C      9.638583    9.280768    7.358645
  13 C     10.753437    6.953984    7.006183
  14 C      9.718433    7.924521    6.983726
  15 C     10.749136    5.734463    6.693140
  16 C      8.562734    9.992433    7.215931
  17 C      7.318344   10.454344    6.953668
  18 C      9.636352    4.981396    6.237475
  19 C      8.508376    7.236840    6.440232
  20 C      8.407068    5.813062    6.114335
  21 C      9.374940    3.643848    5.921941
  22 C      6.714785    9.284214    6.448002
  23 C      7.323934    7.968220    6.256757

Unit cell:
           periodic     x           y           z      points  spacing
  1. axis:    yes   16.000000    0.000000    0.000000    80     0.2000
  2. axis:    yes    0.000000   16.000000    0.000000    80     0.2000
  3. axis:    yes    0.000000    0.000000   10.000000    48     0.2083

Effective grid spacing dv^(1/3) = 0.2027

                     log10-error:    total        iterations:
           time      wfs    density  energy       fermi  poisson
iter:   1  09:55:54          +inf  -185.784993    3      5      
iter:   2  09:55:54         -2.94  -185.783671    2      1      
iter:   3  09:55:55         -3.05  -185.781986    3      1      
iter:   4  09:55:55         -3.27  -185.781951    2      1      
iter:   5  09:55:56         -3.44  -185.782050    2      1      
iter:   6  09:55:57         -3.59  -185.782427    2      1      
iter:   7  09:55:57         -3.70  -185.781946    2      1      
iter:   8  09:55:58         -3.95  -185.781778    2      1      
iter:   9  09:55:59         -4.06  -185.781874    2      1      

Converged after 9 iterations.

Dipole moment: (0.413278, -0.763369, -0.144033) |e|*Ang

Energy contributions relative to reference atoms: (reference = -24663.074771)

Kinetic:       +118.129383
Potential:     -126.489627
External:        +0.000000
XC:            -180.319364
Entropy (-ST):   -0.195108
Local:           +2.995288
--------------------------
Free energy:   -185.879428
Extrapolated:  -185.781874

Fermi level: -4.39061

 Band  Eigenvalues  Occupancy
    0    -23.21280    2.00000
    1    -22.31197    2.00000
    2    -21.93475    2.00000
    3    -20.95305    2.00000
    4    -20.68054    2.00000
    5    -20.31647    2.00000
    6    -19.56376    2.00000
    7    -19.42937    2.00000
    8    -18.72902    2.00000
    9    -18.64381    2.00000
   10    -17.98372    2.00000
   11    -17.02274    2.00000
   12    -16.72259    2.00000
   13    -15.89637    2.00000
   14    -15.56465    2.00000
   15    -15.44668    2.00000
   16    -13.90482    2.00000
   17    -13.58443    2.00000
   18    -13.35475    2.00000
   19    -12.94846    2.00000
   20    -12.75299    2.00000
   21    -12.06597    2.00000
   22    -11.92918    2.00000
   23    -11.59646    2.00000
   24    -11.16387    2.00000
   25    -11.09487    2.00000
   26    -10.93032    2.00000
   27    -10.51192    2.00000
   28     -9.93362    2.00000
   29     -9.84702    2.00000
   30     -9.80738    2.00000
   31     -9.48649    2.00000
   32     -8.98913    2.00000
   33     -8.64288    2.00000
   34     -8.47449    2.00000
   35     -8.19581    2.00000
   36     -7.19329    2.00000
   37     -7.16889    2.00000
   38     -7.11535    2.00000
   39     -6.77853    2.00000
   40     -6.75431    2.00000
   41     -6.65825    2.00000
   42     -6.59357    2.00000
   43     -6.48873    2.00000
   44     -6.43033    2.00000
   45     -5.42076    1.99993
   46     -4.66690    1.88128
   47     -4.61451    1.80740
   48     -4.22149    0.31125
   49     -3.42632    0.00013
   50     -3.12788    0.00001
   51     -2.88861    0.00000
   52     -2.82363    0.00000
   53     -2.66746    0.00000
   54     -2.21279    0.00000
   55     -1.81856    0.00000
   56     -1.42256    0.00000
   57     -1.10494    0.00000
   58     -0.24443    0.00000
   59      0.01686    0.00000
   60      0.75381    0.00000
   61      2.17033    0.00000
   62      2.63238    0.00000
   63      3.26679    0.00000
   64      3.65769    0.00000
   65      3.72733    0.00000
   66      4.07407    0.00000
   67      4.15593    0.00000
   68      4.29709    0.00000
   69      5.03704    0.00000
   70      5.23139    0.00000
   71      5.74500    0.00000
   72      5.99804    0.00000
   73      6.43717    0.00000
   74      6.64775    0.00000
   75      6.66042    0.00000
   76      7.26678    0.00000
   77      7.40922    0.00000
   78      7.70251    0.00000
   79      7.82157    0.00000
   80      8.13738    0.00000
   81      8.27738    0.00000
   82      8.58626    0.00000
   83      8.96858    0.00000
   84      9.04910    0.00000
   85      9.08290    0.00000
   86      9.16571    0.00000
   87      9.34032    0.00000
   88      9.44068    0.00000
   89      9.46821    0.00000
   90      9.49504    0.00000
   91      9.52717    0.00000
   92      9.77386    0.00000
   93     10.16176    0.00000
   94     10.18111    0.00000
   95     10.29109    0.00000
   96     10.33863    0.00000
   97     10.43751    0.00000


Forces in eV/Ang:
  0 C    -0.03064    0.01713    0.04531
  1 C    -0.03239   -0.03767    0.00118
  2 C    -0.00503    0.00065   -0.01430
  3 C    -0.02708   -0.04020    0.04107
  4 C     0.07774   -0.01117   -0.04591
  5 C     0.04857   -0.00862    0.03662
  6 C    -0.06952    0.03327   -0.02964
  7 C    -0.02524   -0.00975   -0.04810
  8 C     0.04951   -0.03772   -0.01525
  9 C     0.02146   -0.01701   -0.06726
 10 C     0.03353   -0.01272   -0.01006
 11 C    -0.00065    0.00129    0.02264
 12 C     0.03912    0.05866   -0.04311
 13 C     0.06684    0.01101    0.01143
 14 C     0.07436    0.03255   -0.02450
 15 C    -0.04852   -0.05758   -0.02691
 16 C     0.04498   -0.05728   -0.04915
 17 C     0.04282    0.03786    0.03934
 18 C    -0.04875   -0.01708    0.01626
 19 C    -0.03298    0.05954    0.07162
 20 C    -0.03414    0.02264    0.08393
 21 C    -0.03019   -0.00487   -0.01838
 22 C    -0.04304    0.02889    0.05047
 23 C    -0.09484    0.02070   -0.00650

