
  ___ ___ ___ _ _ _  
 |   |   |_  | | | | 
 | | | | | . | | | | 
 |__ |  _|___|_____|  1.3.0b1
 |___|_|             

User:   esb@s65n31.grendel.cscaa.dk
Date:   Thu Nov  9 11:33:17 2017
Arch:   x86_64
Pid:    17925
Python: 2.7.13
gpaw:   /home/esb/DFT/gpaw_git/gpaw
_gpaw:  /home/esb/DFT/gpaw_git/build/bin.linux-x86_64-2.7/gpaw-python
ase:    /home/esb/DFT/ase_git/ase (version 3.15.0b1)
numpy:  /comm/swstack/core/python/2.7.13/lib/python2.7/site-packages/numpy (version 1.13.3)
scipy:  /comm/swstack/core/python/2.7.13/lib/python2.7/site-packages/scipy (version 0.19.1)
units:  Angstrom and eV
cores:  16
Extra parameters: {'blacs': True}

Input parameters:
  basis: dzp
  gpts: [80 80 48]
  kpts: [1 1 1]
  maxiter: 99
  mixer: {backend: pulay,
          beta: 0.05,
          method: separate,
          nmaxold: 5,
          weight: 75}
  mode: lcao
  nbands: -50
  occupations: {name: fermi-dirac,
                width: 0.1}
  poissonsolver: {eps: 1e-07,
                  name: fd,
                  nn: 3,
                  relax: GS}
  xc: PBE

System changes: positions, numbers, cell, pbc, initial_charges, initial_magmoms 

Initialize ...

C-setup:
  name: Carbon
  id: 4aa54d4b901d75f77cc0ea3eec22967b
  Z: 6
  valence: 4
  core: 2
  charge: 0.0
  file: /home/esb/DFT/gpaw-setups-0.8.7929/C.PBE.gz
  cutoffs: 0.64(comp), 1.14(filt), 1.14(core), lmax=2
  valence states:
                energy  radius
    2s(2.00)   -13.751   0.635
    2p(2.00)    -5.284   0.635
    *s          13.461   0.635
    *p          21.927   0.635
    *d           0.000   0.635

  LCAO basis set for C:
    Name: dzp
    File: /home/esb/DFT/gpaw-setups-0.8.7929/C.dzp.basis.gz
    Number of radial functions: 5
    Number of spherical harmonics: 13
      l=0, rc=5.5469 Bohr: 2s-sz confined orbital
      l=1, rc=6.6719 Bohr: 2p-sz confined orbital
      l=0, rc=3.0312 Bohr: 2s-dz split-valence wave
      l=1, rc=3.7500 Bohr: 2p-dz split-valence wave
      l=2, rc=6.6719 Bohr: d-type Gaussian polarization

Reference energy: -24663.074771

Spin-paired calculation

Occupation numbers:
  Fermi-Dirac: width=0.1000 eV

Convergence criteria:
  Maximum total energy change: 0.0005 eV / electron
  Maximum integral of absolute density change: 0.0001 electrons
  Maximum integral of absolute eigenstate change: 4e-08 eV^2
  Maximum number of iterations: 99

Symmetries present (total): 1

  ( 1  0  0)
  ( 0  1  0)
  ( 0  0  1)

1 k-point (Gamma)
1 k-point in the irreducible part of the Brillouin zone
       k-points in crystal coordinates                weights
   0:     0.00000000    0.00000000    0.00000000          1/1

Wave functions: LCAO
  Diagonalizer: Serial LAPACK
  Atomic Correction: dense with blas
  Datatype: float
  Eigensolver: None 

LCAO using direct dense diagonalizer 

Densities:
  Coarse grid: 80*80*48 grid
  Fine grid: 160*160*96 grid
  Total Charge: 0.000000 

Density mixing:
  Method: separate
  Backend: pulay
  Linear mixing parameter: 0.05
  Mixing with 5 old densities
  Damping of long wave oscillations: 75 

Hamiltonian:
  XC and Coulomb potentials evaluated on a 160*160*96 grid
  Using the PBE Exchange-Correlation functional
  Interpolation: tri-quintic (5. degree polynomial)
  Poisson solver: Gauss-Seidel solver with 6 multi-grid levels
    Coarsest grid: 5 x 5 x 3 points
    Stencil: 6*3+1=19 point O(h^6) finite-difference Laplacian
    Max iterations: 1000
    Tolerance: 1.000000e-07 

Memory estimate:
  Process memory now: 77.57 MiB
  Calculator: 15.59 MiB
    Density: 6.13 MiB
      Arrays: 3.81 MiB
      Localized functions: 0.86 MiB
      Mixer: 1.46 MiB
    Hamiltonian: 5.40 MiB
      Arrays: 2.49 MiB
      XC: 0.00 MiB
      Poisson: 2.85 MiB
      vbar: 0.07 MiB
    Wavefunctions: 4.05 MiB
      C [qnM]: 0.23 MiB
      S, T [2 x qmm]: 1.49 MiB
      P [aqMi]: 0.01 MiB
      TCI: 0.00 MiB
      BasisFunctions: 2.33 MiB
      Eigensolver: 0.00 MiB

Total number of cores used: 16
Domain decomposition: 2 x 4 x 2

Number of atoms: 24
Number of atomic orbitals: 312
Number of bands in calculation: 98
Bands to converge: occupied states only
Number of valence electrons: 96

... initialized

Initializing position-dependent things.

Density initialized from atomic densities
           .--------------------------------------.  
          /|                                      |  
         / |                                      |  
        /  |                                      |  
       /   |                                      |  
      /    |                                      |  
     /     |           C                          |  
    /      |             C   C                    |  
   /       |       C           C                  |  
  /        |      C C   C                         |  
 *         |   CC         C   C                   |  
 |         |       C            C                 |  
 |         .-C-C------C--C-----C------------------.  
 |        /                 C                    /   
 |       /       C  C     C                     /    
 |      /              C                       /     
 |     /                                      /      
 |    /                                      /       
 |   /                                      /        
 |  /                                      /         
 | /                                      /          
 |/                                      /           
 *--------------------------------------*            

Positions:
   0 C      3.452536    6.449881    5.329125
   1 C      4.509466    5.510854    5.398143
   2 C      3.598071    7.694019    5.817577
   3 C      4.765502    9.527786    6.367555
   4 C      4.886975    8.061701    6.382060
   5 C      3.695002    9.171620    5.480076
   6 C     10.692401    5.970584    4.880153
   7 C      9.255071    3.886307    4.346313
   8 C      9.564880    5.142666    4.880196
   9 C     10.811222    7.104521    5.404637
  10 C      8.159939    3.277575    4.418648
  11 C      9.844170    7.819532    6.118883
  12 C      8.409757    5.753245    5.621567
  13 C      6.989294    3.696174    5.058286
  14 C      8.549781    7.066304    6.239489
  15 C      7.146232    5.035173    5.719325
  16 C      9.799762    9.063655    6.756290
  17 C      5.708739    3.158161    5.223853
  18 C      6.435183    9.389219    8.317726
  19 C      7.584756    8.996214    7.623858
  20 C      6.179866    6.917527    7.096930
  21 C      7.436440    7.646826    6.979654
  22 C      6.031018    5.618635    6.452140
  23 C      8.840903    9.566706    7.392013

Unit cell:
           periodic     x           y           z      points  spacing
  1. axis:    yes   16.000000    0.000000    0.000000    80     0.2000
  2. axis:    yes    0.000000   16.000000    0.000000    80     0.2000
  3. axis:    yes    0.000000    0.000000   10.000000    48     0.2083

Effective grid spacing dv^(1/3) = 0.2027

                     log10-error:    total        iterations:
           time      wfs    density  energy       fermi  poisson
iter:   1  11:33:18          +inf  -176.806660    2      6      
iter:   2  11:33:19         -0.89  -175.968689    3      3      
iter:   3  11:33:20         -0.92  -173.925573    33     4      
iter:   4  11:33:20         -1.11  -173.808304    2      2      
iter:   5  11:33:21         -1.12  -172.857798    32     3      
iter:   6  11:33:22         -1.39  -172.709414    4      3      
iter:   7  11:33:22         -1.53  -172.609070    3      3      
iter:   8  11:33:23         -1.71  -172.524407    3      3      
iter:   9  11:33:24         -1.84  -172.514963    3      3      
iter:  10  11:33:24         -1.92  -172.501116    3      2      
iter:  11  11:33:25         -1.98  -172.498169    3      2      
iter:  12  11:33:26         -2.15  -172.462727    3      2      
iter:  13  11:33:26         -2.43  -172.463195    3      2      
iter:  14  11:33:27         -2.75  -172.474847    3      1      
iter:  15  11:33:28         -2.87  -172.456755    3      2      
iter:  16  11:33:28         -3.04  -172.456842    3      1      
iter:  17  11:33:29         -3.15  -172.458156    3      1      
iter:  18  11:33:29         -3.26  -172.458767    2      1      
iter:  19  11:33:30         -3.44  -172.456265    2      1      
iter:  20  11:33:31         -3.68  -172.452864    2      1      
iter:  21  11:33:31         -3.85  -172.453940    2      1      
iter:  22  11:33:32         -4.00  -172.454501    2      1      
iter:  23  11:33:33         -4.07  -172.453378    2      1      

Converged after 23 iterations.

Dipole moment: (0.594609, -0.021790, 0.112160) |e|*Ang

Energy contributions relative to reference atoms: (reference = -24663.074771)

Kinetic:        +85.844908
Potential:      -97.220764
External:        +0.000000
XC:            -163.830383
Entropy (-ST):   -0.322373
Local:           +2.914046
--------------------------
Free energy:   -172.614565
Extrapolated:  -172.453378

Fermi level: -4.35322

 Band  Eigenvalues  Occupancy
    0    -23.05949    2.00000
    1    -22.64692    2.00000
    2    -21.79443    2.00000
    3    -21.13313    2.00000
    4    -20.35165    2.00000
    5    -19.82796    2.00000
    6    -19.34208    2.00000
    7    -18.95279    2.00000
    8    -18.46672    2.00000
    9    -18.19085    2.00000
   10    -17.07833    2.00000
   11    -16.27755    2.00000
   12    -15.71534    2.00000
   13    -15.39805    2.00000
   14    -15.08875    2.00000
   15    -14.23031    2.00000
   16    -14.04070    2.00000
   17    -13.91520    2.00000
   18    -12.99098    2.00000
   19    -12.62339    2.00000
   20    -12.51976    2.00000
   21    -12.27266    2.00000
   22    -11.70025    2.00000
   23    -10.99526    2.00000
   24    -10.78291    2.00000
   25    -10.60776    2.00000
   26    -10.38580    2.00000
   27    -10.02962    2.00000
   28     -9.99780    2.00000
   29     -9.73834    2.00000
   30     -9.55392    2.00000
   31     -8.81065    2.00000
   32     -8.58094    2.00000
   33     -8.01349    2.00000
   34     -7.59422    2.00000
   35     -7.45181    2.00000
   36     -7.16540    2.00000
   37     -7.02600    2.00000
   38     -6.86529    2.00000
   39     -6.62809    2.00000
   40     -6.40414    2.00000
   41     -6.35389    2.00000
   42     -6.34030    2.00000
   43     -5.97094    2.00000
   44     -5.76474    2.00000
   45     -5.30197    1.99985
   46     -4.71624    1.94834
   47     -4.44145    1.41456
   48     -4.22573    0.43682
   49     -4.12176    0.17983
   50     -3.89284    0.01983
   51     -3.52766    0.00052
   52     -3.41950    0.00018
   53     -3.31805    0.00006
   54     -3.08747    0.00001
   55     -2.84938    0.00000
   56     -2.70474    0.00000
   57     -2.13993    0.00000
   58     -1.89910    0.00000
   59     -1.05831    0.00000
   60     -0.57888    0.00000
   61     -0.35227    0.00000
   62      0.31232    0.00000
   63      0.71882    0.00000
   64      1.45989    0.00000
   65      1.76259    0.00000
   66      3.41807    0.00000
   67      3.49291    0.00000
   68      4.23278    0.00000
   69      4.40265    0.00000
   70      4.77492    0.00000
   71      5.12987    0.00000
   72      5.22099    0.00000
   73      5.37323    0.00000
   74      6.07030    0.00000
   75      6.17286    0.00000
   76      6.74681    0.00000
   77      7.05760    0.00000
   78      7.14089    0.00000
   79      7.27407    0.00000
   80      7.62325    0.00000
   81      8.12895    0.00000
   82      8.26859    0.00000
   83      8.49502    0.00000
   84      8.51309    0.00000
   85      8.86747    0.00000
   86      8.96282    0.00000
   87      9.07569    0.00000
   88      9.16748    0.00000
   89      9.26550    0.00000
   90      9.29065    0.00000
   91      9.56756    0.00000
   92      9.58804    0.00000
   93      9.69538    0.00000
   94      9.81660    0.00000
   95     10.00553    0.00000
   96     10.05188    0.00000
   97     10.12605    0.00000


Forces in eV/Ang:
  0 C     2.56398   -4.59135    0.75003
  1 C    -0.09875    1.07982    1.32824
  2 C     1.42738    0.72793   -0.95497
  3 C     0.92492   -0.58330    0.57146
  4 C     1.19916    0.71138    2.68462
  5 C     0.01587   -0.55250    0.49041
  6 C    -0.36814   -0.75873   -0.26985
  7 C    -0.37745   -0.62212   -0.25068
  8 C     0.38499    0.49571    0.11503
  9 C    -0.22830    0.76918    0.39442
 10 C     0.70550   -0.07516   -0.14889
 11 C     0.44139   -0.32019   -0.25900
 12 C    -0.06105   -0.13269    0.40896
 13 C    -2.18437    0.42077    0.59868
 14 C    -0.05668   -0.10761    0.44000
 15 C    -0.20604    0.43717    0.86434
 16 C    -0.09983    0.43856    0.21512
 17 C     0.07485    0.16502   -0.42459
 18 C     0.03809    0.21558   -0.18522
 19 C    -1.62820   -0.57324   -0.04233
 20 C    -2.10469    0.57560   -3.98119
 21 C     0.43433   -0.45856    0.24313
 22 C    -1.24753    2.50549   -2.45643
 23 C     0.52282    0.21159   -0.10887

System changes: positions 

Initializing position-dependent things.

Density initialized from wave functions
           .--------------------------------------.  
          /|                                      |  
         / |                                      |  
        /  |                                      |  
       /   |                                      |  
      /    |                                      |  
     /     |           C                          |  
    /      |             C   C                    |  
   /       |       C           C                  |  
  /        |      C C   C                         |  
 *         |   CC         C   C                   |  
 |         |       C            C                 |  
 |         .-C-C------C--C-----C------------------.  
 |        /                 C                    /   
 |       /       C  C     C                     /    
 |      /              C                       /     
 |     /                                      /      
 |    /                                      /       
 |   /                                      /        
 |  /                                      /         
 | /                                      /          
 |/                                      /           
 *--------------------------------------*            

Positions:
   0 C      3.471843    6.415307    5.334773
   1 C      4.508723    5.518985    5.408145
   2 C      3.608820    7.699500    5.810386
   3 C      4.772466    9.523394    6.371858
   4 C      4.896005    8.067058    6.402276
   5 C      3.695122    9.167459    5.483769
   6 C     10.689629    5.964870    4.878121
   7 C      9.252228    3.881622    4.344425
   8 C      9.567779    5.146399    4.881062
   9 C     10.809503    7.110313    5.407607
  10 C      8.165252    3.277009    4.417527
  11 C      9.847494    7.817121    6.116933
  12 C      8.409298    5.752246    5.624646
  13 C      6.972846    3.699342    5.062794
  14 C      8.549355    7.065493    6.242802
  15 C      7.144680    5.038464    5.725834
  16 C      9.799010    9.066958    6.757910
  17 C      5.709302    3.159403    5.220656
  18 C      6.435470    9.390842    8.316332
  19 C      7.572495    8.991898    7.623540
  20 C      6.164018    6.921862    7.066951
  21 C      7.439710    7.643373    6.981485
  22 C      6.021624    5.637502    6.433643
  23 C      8.844840    9.568299    7.391193

Unit cell:
           periodic     x           y           z      points  spacing
  1. axis:    yes   16.000000    0.000000    0.000000    80     0.2000
  2. axis:    yes    0.000000   16.000000    0.000000    80     0.2000
  3. axis:    yes    0.000000    0.000000   10.000000    48     0.2083

Effective grid spacing dv^(1/3) = 0.2027

                     log10-error:    total        iterations:
           time      wfs    density  energy       fermi  poisson
iter:   1  11:33:35          +inf  -173.274758    3      5      
iter:   2  11:33:35         -1.82  -173.157579    3      2      
iter:   3  11:33:36         -2.04  -173.105174    3      2      
iter:   4  11:33:37         -2.32  -173.096344    3      2      
iter:   5  11:33:37         -2.44  -173.091330    3      2      
iter:   6  11:33:38         -2.58  -173.091148    3      2      
iter:   7  11:33:39         -2.75  -173.090827    2      2      
iter:   8  11:33:39         -2.90  -173.089974    2      2      
iter:   9  11:33:40         -3.14  -173.087519    2      1      
iter:  10  11:33:41         -3.36  -173.088459    2      1      
iter:  11  11:33:41         -3.52  -173.090446    2      1      
iter:  12  11:33:42         -3.61  -173.090704    2      1      
iter:  13  11:33:43         -3.80  -173.090700    2      1      
iter:  14  11:33:43         -3.87  -173.090513    2      1      
iter:  15  11:33:44         -3.94  -173.090266    2      1      
iter:  16  11:33:44         -4.08  -173.090266    2      1      

Converged after 16 iterations.

Dipole moment: (0.571266, -0.029563, 0.126383) |e|*Ang

Energy contributions relative to reference atoms: (reference = -24663.074771)

Kinetic:        +86.077688
Potential:      -97.562863
External:        +0.000000
XC:            -164.368742
Entropy (-ST):   -0.315191
Local:           +2.921247
--------------------------
Free energy:   -173.247861
Extrapolated:  -173.090266

Fermi level: -4.36545

 Band  Eigenvalues  Occupancy
    0    -23.06826    2.00000
    1    -22.64094    2.00000
    2    -21.74540    2.00000
    3    -21.16108    2.00000
    4    -20.34869    2.00000
    5    -19.83547    2.00000
    6    -19.39557    2.00000
    7    -18.95815    2.00000
    8    -18.45151    2.00000
    9    -18.26474    2.00000
   10    -17.14390    2.00000
   11    -16.25544    2.00000
   12    -15.80389    2.00000
   13    -15.45578    2.00000
   14    -15.14413    2.00000
   15    -14.23567    2.00000
   16    -14.05882    2.00000
   17    -13.90318    2.00000
   18    -12.94503    2.00000
   19    -12.62304    2.00000
   20    -12.50460    2.00000
   21    -12.29328    2.00000
   22    -11.68545    2.00000
   23    -11.03031    2.00000
   24    -10.82394    2.00000
   25    -10.63991    2.00000
   26    -10.41574    2.00000
   27    -10.05509    2.00000
   28    -10.01203    2.00000
   29     -9.76840    2.00000
   30     -9.53074    2.00000
   31     -8.89804    2.00000
   32     -8.60354    2.00000
   33     -8.03170    2.00000
   34     -7.61250    2.00000
   35     -7.45965    2.00000
   36     -7.13433    2.00000
   37     -7.07013    2.00000
   38     -6.87381    2.00000
   39     -6.62218    2.00000
   40     -6.42810    2.00000
   41     -6.41212    2.00000
   42     -6.36216    2.00000
   43     -6.02321    2.00000
   44     -5.79756    2.00000
   45     -5.32535    1.99986
   46     -4.72422    1.94616
   47     -4.46197    1.44835
   48     -4.22852    0.40547
   49     -4.13534    0.18207
   50     -3.89200    0.01742
   51     -3.51949    0.00042
   52     -3.44168    0.00019
   53     -3.30540    0.00005
   54     -3.05322    0.00000
   55     -2.84772    0.00000
   56     -2.63545    0.00000
   57     -2.08370    0.00000
   58     -1.87100    0.00000
   59     -1.01588    0.00000
   60     -0.47226    0.00000
   61     -0.27061    0.00000
   62      0.36375    0.00000
   63      0.86691    0.00000
   64      1.49961    0.00000
   65      1.76604    0.00000
   66      3.47451    0.00000
   67      3.51711    0.00000
   68      4.17788    0.00000
   69      4.42258    0.00000
   70      4.75539    0.00000
   71      5.16331    0.00000
   72      5.23595    0.00000
   73      5.38689    0.00000
   74      6.12467    0.00000
   75      6.16056    0.00000
   76      6.83479    0.00000
   77      7.06905    0.00000
   78      7.18138    0.00000
   79      7.21899    0.00000
   80      7.57616    0.00000
   81      8.15111    0.00000
   82      8.32037    0.00000
   83      8.49096    0.00000
   84      8.51282    0.00000
   85      8.89570    0.00000
   86      8.97620    0.00000
   87      9.05423    0.00000
   88      9.20473    0.00000
   89      9.26371    0.00000
   90      9.29371    0.00000
   91      9.55937    0.00000
   92      9.57077    0.00000
   93      9.70917    0.00000
   94      9.84548    0.00000
   95      9.97286    0.00000
   96     10.08276    0.00000
   97     10.11531    0.00000


Forces in eV/Ang:
  0 C     2.15448   -2.64150    1.01194
  1 C     0.60102    0.53891    1.56989
  2 C     1.32594   -0.04878   -0.92924
  3 C     0.94963   -0.43190    0.75723
  4 C     1.20398   -0.07848    2.52121
  5 C    -0.26294   -0.57501    0.05099
  6 C    -0.10869    0.17259    0.09344
  7 C     0.13529   -0.09440   -0.15652
  8 C     0.10501    0.07823    0.01486
  9 C    -0.14634   -0.13407   -0.09685
 10 C    -0.44167   -0.21249    0.18915
 11 C     0.25896    0.00272   -0.02725
 12 C    -0.03466   -0.10157    0.44375
 13 C    -1.06680    0.39134    0.25540
 14 C     0.01424   -0.18370    0.39730
 15 C    -0.32428    0.35759    0.72936
 16 C     0.11109    0.13601   -0.01292
 17 C    -0.26634   -0.03396   -0.37721
 18 C    -0.13341    0.32713   -0.05066
 19 C    -0.86352   -0.43454   -0.19422
 20 C    -1.85646    1.22508   -3.78416
 21 C     0.02331   -0.50087    0.24646
 22 C    -1.20160    1.98733   -2.77315
 23 C    -0.22992    0.16913    0.16731

System changes: positions 

Initializing position-dependent things.

Density initialized from wave functions
           .--------------------------------------.  
          /|                                      |  
         / |                                      |  
        /  |                                      |  
       /   |                                      |  
      /    |                                      |  
     /     |           C                          |  
    /      |             C   C                    |  
   /       |       C           C                  |  
  /        |      C C   C                         |  
 *         |   CC         C   C                   |  
 |         |       C            C                 |  
 |         .--CC------C--C-----C------------------.  
 |        /                 C                    /   
 |       /       C  C     C                     /    
 |      /              C                       /     
 |     /                                      /      
 |    /                                      /       
 |   /                                      /        
 |  /                                      /         
 | /                                      /          
 |/                                      /           
 *--------------------------------------*            

Positions:
   0 C      3.491735    6.389883    5.343791
   1 C      4.513689    5.524275    5.422253
   2 C      3.620954    7.699612    5.801915
   3 C      4.781087    9.519357    6.378614
   4 C      4.906954    8.066909    6.425328
   5 C      3.692929    9.162245    5.484547
   6 C     10.688455    5.965774    4.878711
   7 C      9.253092    3.880386    4.342934
   8 C      9.568935    5.147409    4.881269
   9 C     10.808113    7.109740    5.407077
  10 C      8.162055    3.275174    4.419005
  11 C      9.849980    7.816915    6.116519
  12 C      8.408963    5.751299    5.628658
  13 C      6.962341    3.702923    5.065363
  14 C      8.549433    7.063877    6.246446
  15 C      7.141815    5.041774    5.732565
  16 C      9.799870    9.068411    6.757955
  17 C      5.707124    3.159237    5.217191
  18 C      6.434379    9.393738    8.315774
  19 C      7.564093    8.987845    7.621881
  20 C      6.146952    6.932541    7.032387
  21 C      7.440217    7.638847    6.983724
  22 C      6.010661    5.655951    6.408643
  23 C      8.843287    9.569868    7.392517

Unit cell:
           periodic     x           y           z      points  spacing
  1. axis:    yes   16.000000    0.000000    0.000000    80     0.2000
  2. axis:    yes    0.000000   16.000000    0.000000    80     0.2000
  3. axis:    yes    0.000000    0.000000   10.000000    48     0.2083

Effective grid spacing dv^(1/3) = 0.2027

                     log10-error:    total        iterations:
           time      wfs    density  energy       fermi  poisson
iter:   1  11:33:47          +inf  -173.870920    3      5      
iter:   2  11:33:47         -1.83  -173.744869    3      2      
iter:   3  11:33:48         -2.03  -173.675877    3      2      
iter:   4  11:33:49         -2.40  -173.671325    3      2      
iter:   5  11:33:49         -2.50  -173.665467    3      2      
iter:   6  11:33:50         -2.65  -173.665138    2      2      
iter:   7  11:33:51         -2.80  -173.665408    2      2      
iter:   8  11:33:51         -2.90  -173.664135    2      2      
iter:   9  11:33:52         -3.19  -173.661857    2      1      
iter:  10  11:33:52         -3.37  -173.663810    2      1      
iter:  11  11:33:53         -3.51  -173.664889    2      1      
iter:  12  11:33:54         -3.64  -173.663692    2      1      
iter:  13  11:33:54         -3.82  -173.664861    2      1      
iter:  14  11:33:55         -3.90  -173.664934    2      1      
iter:  15  11:33:56         -4.03  -173.664277    2      1      

Converged after 15 iterations.

Dipole moment: (0.559133, -0.053083, 0.140725) |e|*Ang

Energy contributions relative to reference atoms: (reference = -24663.074771)

Kinetic:        +86.244112
Potential:      -97.869421
External:        +0.000000
XC:            -164.809095
Entropy (-ST):   -0.305934
Local:           +2.923094
--------------------------
Free energy:   -173.817244
Extrapolated:  -173.664277

Fermi level: -4.36266

 Band  Eigenvalues  Occupancy
    0    -23.00308    2.00000
    1    -22.63300    2.00000
    2    -21.71280    2.00000
    3    -21.19674    2.00000
    4    -20.35843    2.00000
    5    -19.84384    2.00000
    6    -19.47024    2.00000
    7    -18.97505    2.00000
    8    -18.43679    2.00000
    9    -18.32443    2.00000
   10    -17.16125    2.00000
   11    -16.27079    2.00000
   12    -15.86523    2.00000
   13    -15.53401    2.00000
   14    -15.18221    2.00000
   15    -14.25015    2.00000
   16    -14.05903    2.00000
   17    -13.90283    2.00000
   18    -12.91559    2.00000
   19    -12.63476    2.00000
   20    -12.48985    2.00000
   21    -12.29743    2.00000
   22    -11.70711    2.00000
   23    -11.06062    2.00000
   24    -10.87528    2.00000
   25    -10.68031    2.00000
   26    -10.44414    2.00000
   27    -10.05846    2.00000
   28    -10.01389    2.00000
   29     -9.78038    2.00000
   30     -9.50731    2.00000
   31     -9.01166    2.00000
   32     -8.64472    2.00000
   33     -8.04709    2.00000
   34     -7.64033    2.00000
   35     -7.48644    2.00000
   36     -7.11823    2.00000
   37     -7.09457    2.00000
   38     -6.89787    2.00000
   39     -6.64537    2.00000
   40     -6.48269    2.00000
   41     -6.42161    2.00000
   42     -6.36257    2.00000
   43     -6.05772    2.00000
   44     -5.81398    2.00000
   45     -5.32171    1.99986
   46     -4.71243    1.94125
   47     -4.47144    1.49594
   48     -4.21307    0.36610
   49     -4.12975    0.17749
   50     -3.89652    0.01873
   51     -3.49849    0.00035
   52     -3.45539    0.00023
   53     -3.28470    0.00004
   54     -3.05639    0.00000
   55     -2.85395    0.00000
   56     -2.59221    0.00000
   57     -2.02258    0.00000
   58     -1.87556    0.00000
   59     -0.98799    0.00000
   60     -0.38908    0.00000
   61     -0.20634    0.00000
   62      0.40609    0.00000
   63      1.08770    0.00000
   64      1.56603    0.00000
   65      1.79465    0.00000
   66      3.44758    0.00000
   67      3.63417    0.00000
   68      4.10697    0.00000
   69      4.40757    0.00000
   70      4.73461    0.00000
   71      5.18522    0.00000
   72      5.26329    0.00000
   73      5.39391    0.00000
   74      6.13884    0.00000
   75      6.20806    0.00000
   76      6.82913    0.00000
   77      7.06290    0.00000
   78      7.18745    0.00000
   79      7.21656    0.00000
   80      7.56488    0.00000
   81      8.14588    0.00000
   82      8.34619    0.00000
   83      8.46630    0.00000
   84      8.51202    0.00000
   85      8.91168    0.00000
   86      8.99645    0.00000
   87      9.04159    0.00000
   88      9.23390    0.00000
   89      9.25394    0.00000
   90      9.31179    0.00000
   91      9.54649    0.00000
   92      9.56854    0.00000
   93      9.71772    0.00000
   94      9.86100    0.00000
   95      9.94970    0.00000
   96     10.08403    0.00000
   97     10.12410    0.00000


Forces in eV/Ang:
  0 C     1.55443   -1.34443    1.02607
  1 C     1.43644   -0.05710    1.78159
  2 C     1.36323   -0.16171   -0.72346
  3 C     0.86666   -0.50038    0.81993
  4 C     1.23493   -0.62131    2.37624
  5 C    -0.39478   -0.56293   -0.21630
  6 C    -0.10061    0.06438    0.03114
  7 C    -0.20397   -0.19274   -0.09424
  8 C    -0.00512   -0.03453    0.01591
  9 C    -0.09453   -0.02593   -0.06309
 10 C    -0.32194    0.04095    0.26294
 11 C     0.15260    0.08191    0.06557
 12 C    -0.00802   -0.13251    0.43980
 13 C    -0.59572    0.38988    0.14798
 14 C     0.06054   -0.18847    0.39315
 15 C    -0.30191    0.29097    0.54598
 16 C    -0.07271    0.15188    0.07352
 17 C    -0.45320   -0.10457   -0.34646
 18 C    -0.24987    0.40088   -0.01655
 19 C    -0.51051   -0.37186   -0.24513
 20 C    -1.68249    1.77629   -3.55134
 21 C    -0.19352   -0.45203    0.17985
 22 C    -1.27953    1.51636   -3.01621
 23 C    -0.28172   -0.00843    0.10672

System changes: positions 

Initializing position-dependent things.

Density initialized from wave functions
           .--------------------------------------.  
          /|                                      |  
         / |                                      |  
        /  |                                      |  
       /   |                                      |  
      /    |                                      |  
     /     |           C                          |  
    /      |             C   C                    |  
   /       |       C           C                  |  
  /        |      C C   C                         |  
 *         |   CC         C   C                   |  
 |         |       C            C                 |  
 |         .--CC------C--C-----C------------------.  
 |        /                 C                    /   
 |       /       C  C     C                     /    
 |      /              C                       /     
 |     /                                      /      
 |    /                                      /       
 |   /                                      /        
 |  /                                      /         
 | /                                      /          
 |/                                      /           
 *--------------------------------------*            

Positions:
   0 C      3.507768    6.371614    5.352710
   1 C      4.524411    5.525669    5.437951
   2 C      3.633736    7.699914    5.794899
   3 C      4.789162    9.514493    6.385725
   4 C      4.918331    8.063543    6.447852
   5 C      3.690040    9.157068    5.483827
   6 C     10.686961    5.964529    4.878307
   7 C      9.250554    3.877608    4.341781
   8 C      9.569625    5.148124    4.881628
   9 C     10.806997    7.111281    5.407495
  10 C      8.161360    3.275517    4.420624
  11 C      9.851918    7.816884    6.116513
  12 C      8.408799    5.750047    5.632659
  13 C      6.953842    3.706596    5.067602
  14 C      8.549783    7.062301    6.250181
  15 C      7.139244    5.044723    5.738142
  16 C      9.798987    9.070440    6.759009
  17 C      5.703898    3.158784    5.213844
  18 C      6.432583    9.397115    8.315291
  19 C      7.557285    8.984028    7.620002
  20 C      6.130630    6.946883    6.998803
  21 C      7.439581    7.634691    6.985468
  22 C      5.998823    5.671695    6.381720
  23 C      8.842348    9.570111    7.392996

Unit cell:
           periodic     x           y           z      points  spacing
  1. axis:    yes   16.000000    0.000000    0.000000    80     0.2000
  2. axis:    yes    0.000000   16.000000    0.000000    80     0.2000
  3. axis:    yes    0.000000    0.000000   10.000000    48     0.2083

Effective grid spacing dv^(1/3) = 0.2027

                     log10-error:    total        iterations:
           time      wfs    density  energy       fermi  poisson
iter:   1  11:33:58          +inf  -174.350280    3      5      
iter:   2  11:33:59         -1.92  -174.260494    3      2      
iter:   3  11:33:59         -2.10  -174.205856    3      2      
iter:   4  11:34:00         -2.46  -174.201653    3      2      
iter:   5  11:34:00         -2.60  -174.197360    3      2      
iter:   6  11:34:01         -2.73  -174.198567    2      2      
iter:   7  11:34:02         -2.83  -174.197788    2      2      
iter:   8  11:34:02         -2.98  -174.197459    2      2      
iter:   9  11:34:03         -3.16  -174.196730    1      2      
iter:  10  11:34:04         -3.43  -174.196627    2      1      
iter:  11  11:34:04         -3.54  -174.196843    2      1      
iter:  12  11:34:05         -3.72  -174.197582    2      1      
iter:  13  11:34:06         -3.87  -174.197677    2      1      
iter:  14  11:34:06         -3.98  -174.197462    2      1      
iter:  15  11:34:07         -4.05  -174.197295    2      1      

Converged after 15 iterations.

Dipole moment: (0.553830, -0.067977, 0.155803) |e|*Ang

Energy contributions relative to reference atoms: (reference = -24663.074771)

Kinetic:        +86.558904
Potential:      -98.324340
External:        +0.000000
XC:            -165.213384
Entropy (-ST):   -0.289249
Local:           +2.926151
--------------------------
Free energy:   -174.341919
Extrapolated:  -174.197295

Fermi level: -4.36669

 Band  Eigenvalues  Occupancy
    0    -22.94154    2.00000
    1    -22.61953    2.00000
    2    -21.69130    2.00000
    3    -21.22548    2.00000
    4    -20.37037    2.00000
    5    -19.85501    2.00000
    6    -19.51999    2.00000
    7    -18.98208    2.00000
    8    -18.44528    2.00000
    9    -18.36252    2.00000
   10    -17.17999    2.00000
   11    -16.27952    2.00000
   12    -15.90646    2.00000
   13    -15.60996    2.00000
   14    -15.20711    2.00000
   15    -14.27204    2.00000
   16    -14.06052    2.00000
   17    -13.89969    2.00000
   18    -12.90204    2.00000
   19    -12.64686    2.00000
   20    -12.48103    2.00000
   21    -12.28360    2.00000
   22    -11.74527    2.00000
   23    -11.08798    2.00000
   24    -10.92710    2.00000
   25    -10.71819    2.00000
   26    -10.46463    2.00000
   27    -10.07207    2.00000
   28    -10.01055    2.00000
   29     -9.77460    2.00000
   30     -9.48960    2.00000
   31     -9.13788    2.00000
   32     -8.68090    2.00000
   33     -8.06158    2.00000
   34     -7.67278    2.00000
   35     -7.51440    2.00000
   36     -7.12684    2.00000
   37     -7.09846    2.00000
   38     -6.91145    2.00000
   39     -6.65877    2.00000
   40     -6.52676    2.00000
   41     -6.42680    2.00000
   42     -6.36749    2.00000
   43     -6.08868    2.00000
   44     -5.82728    2.00000
   45     -5.30542    1.99983
   46     -4.70623    1.93513
   47     -4.49380    1.56188
   48     -4.20300    0.32579
   49     -4.12130    0.15831
   50     -3.89914    0.01847
   51     -3.49255    0.00032
   52     -3.46014    0.00023
   53     -3.26261    0.00003
   54     -3.04877    0.00000
   55     -2.85442    0.00000
   56     -2.53800    0.00000
   57     -1.97011    0.00000
   58     -1.86800    0.00000
   59     -0.97333    0.00000
   60     -0.34292    0.00000
   61     -0.16179    0.00000
   62      0.45354    0.00000
   63      1.35151    0.00000
   64      1.64877    0.00000
   65      1.82632    0.00000
   66      3.43945    0.00000
   67      3.74631    0.00000
   68      4.02671    0.00000
   69      4.38079    0.00000
   70      4.72697    0.00000
   71      5.17421    0.00000
   72      5.33228    0.00000
   73      5.39870    0.00000
   74      6.13602    0.00000
   75      6.27491    0.00000
   76      6.83038    0.00000
   77      7.03724    0.00000
   78      7.17862    0.00000
   79      7.21022    0.00000
   80      7.57031    0.00000
   81      8.12615    0.00000
   82      8.37826    0.00000
   83      8.44522    0.00000
   84      8.51249    0.00000
   85      8.92246    0.00000
   86      9.00982    0.00000
   87      9.03274    0.00000
   88      9.23455    0.00000
   89      9.26645    0.00000
   90      9.32314    0.00000
   91      9.53847    0.00000
   92      9.57317    0.00000
   93      9.72210    0.00000
   94      9.86767    0.00000
   95      9.93056    0.00000
   96     10.07706    0.00000
   97     10.13131    0.00000


Forces in eV/Ang:
  0 C     1.16360   -0.54870    0.98451
  1 C     2.01803   -0.42937    1.92973
  2 C     1.37913   -0.21792   -0.50483
  3 C     0.75666   -0.62268    0.83202
  4 C     1.36661   -1.05366    2.22619
  5 C    -0.46553   -0.50701   -0.36952
  6 C    -0.03583    0.27521    0.10947
  7 C    -0.00681    0.02608   -0.05587
  8 C    -0.13645   -0.19897    0.00147
  9 C    -0.05889   -0.23301   -0.18062
 10 C    -0.68884    0.00054    0.36233
 11 C     0.04724    0.17417    0.16897
 12 C     0.03306   -0.13505    0.44499
 13 C    -0.26488    0.36455    0.05859
 14 C     0.07872   -0.20684    0.38992
 15 C    -0.29140    0.23547    0.35544
 16 C    -0.04217    0.05993    0.02351
 17 C    -0.53348   -0.12587   -0.32237
 18 C    -0.29460    0.45072   -0.03165
 19 C    -0.27686   -0.30489   -0.23544
 20 C    -1.57201    2.22356   -3.33824
 21 C    -0.34065   -0.36322    0.09734
 22 C    -1.39981    1.15873   -3.12793
 23 C    -0.49513   -0.05853    0.17185

System changes: positions 

Initializing position-dependent things.

Density initialized from wave functions
           .--------------------------------------.  
          /|                                      |  
         / |                                      |  
        /  |                                      |  
       /   |                                      |  
      /    |                                      |  
     /     |           C                          |  
    /      |             C   C                    |  
   /       |       C           C                  |  
  /        |      C C   C                         |  
 *         |   CC         C   C                   |  
 |         |       C            C                 |  
 |         .--C-C-----C--C-----C------------------.  
 |        /                 C                    /   
 |       /       C  C     C                     /    
 |      /              C                       /     
 |     /                                      /      
 |    /                                      /       
 |   /                                      /        
 |  /                                      /         
 | /                                      /          
 |/                                      /           
 *--------------------------------------*            

Positions:
   0 C      3.522141    6.355249    5.360967
   1 C      4.537869    5.525615    5.454370
   2 C      3.646821    7.700941    5.789337
   3 C      4.796453    9.508443    6.392639
   4 C      4.930900    8.058379    6.469715
   5 C      3.687113    9.152351    5.482822
   6 C     10.685679    5.964143    4.878242
   7 C      9.249725    3.876250    4.340718
   8 C      9.569731    5.148143    4.881989
   9 C     10.805982    7.111963    5.407446
  10 C      8.158667    3.275198    4.422557
  11 C      9.853377    7.817100    6.116945
  12 C      8.408911    5.748781    5.636700
  13 C      6.945859    3.710114    5.069716
  14 C      8.550116    7.060657    6.253979
  15 C      7.136855    5.047433    5.742601
  16 C      9.798445    9.072031    6.759758
  17 C      5.700733    3.158531    5.210564
  18 C      6.430820    9.400675    8.314431
  19 C      7.550829    8.980475    7.618487
  20 C      6.114502    6.963408    6.966140
  21 C      7.438583    7.631250    6.986617
  22 C      5.985916    5.685967    6.354468
  23 C      8.840585    9.570305    7.393813

Unit cell:
           periodic     x           y           z      points  spacing
  1. axis:    yes   16.000000    0.000000    0.000000    80     0.2000
  2. axis:    yes    0.000000   16.000000    0.000000    80     0.2000
  3. axis:    yes    0.000000    0.000000   10.000000    48     0.2083

Effective grid spacing dv^(1/3) = 0.2027

                     log10-error:    total        iterations:
           time      wfs    density  energy       fermi  poisson
iter:   1  11:34:09          +inf  -174.841859    3      5      
iter:   2  11:34:10         -1.97  -174.768144    2      2      
iter:   3  11:34:10         -2.14  -174.719994    3      2      
iter:   4  11:34:11         -2.48  -174.714575    3      2      
iter:   5  11:34:12         -2.64  -174.711033    3      2      
iter:   6  11:34:12         -2.76  -174.713702    2      2      
iter:   7  11:34:13         -2.85  -174.708795    2      1      
iter:   8  11:34:14         -3.01  -174.711563    2      2      
iter:   9  11:34:14         -3.17  -174.709111    2      1      
iter:  10  11:34:15         -3.36  -174.709248    2      1      
iter:  11  11:34:16         -3.53  -174.712954    2      1      
iter:  12  11:34:16         -3.62  -174.710653    2      1      
iter:  13  11:34:17         -3.80  -174.710831    2      1      
iter:  14  11:34:17         -3.92  -174.712722    2      1      
iter:  15  11:34:18         -3.92  -174.711065    2      1      
iter:  16  11:34:19         -4.26  -174.711379    2      1      

Converged after 16 iterations.

Dipole moment: (0.556322, -0.079482, 0.169600) |e|*Ang

Energy contributions relative to reference atoms: (reference = -24663.074771)

Kinetic:        +86.632620
Potential:      -98.598543
External:        +0.000000
XC:            -165.536585
Entropy (-ST):   -0.272920
Local:           +2.927589
--------------------------
Free energy:   -174.847839
Extrapolated:  -174.711379

Fermi level: -4.37273

 Band  Eigenvalues  Occupancy
    0    -22.89425    2.00000
    1    -22.59686    2.00000
    2    -21.67670    2.00000
    3    -21.25275    2.00000
    4    -20.38109    2.00000
    5    -19.87324    2.00000
    6    -19.55277    2.00000
    7    -18.99431    2.00000
    8    -18.46151    2.00000
    9    -18.38080    2.00000
   10    -17.19533    2.00000
   11    -16.29789    2.00000
   12    -15.95437    2.00000
   13    -15.67638    2.00000
   14    -15.22975    2.00000
   15    -14.29851    2.00000
   16    -14.06171    2.00000
   17    -13.90044    2.00000
   18    -12.89793    2.00000
   19    -12.66114    2.00000
   20    -12.47565    2.00000
   21    -12.25349    2.00000
   22    -11.79948    2.00000
   23    -11.11606    2.00000
   24    -10.97781    2.00000
   25    -10.75184    2.00000
   26    -10.48749    2.00000
   27    -10.09164    2.00000
   28    -10.00258    2.00000
   29     -9.76087    2.00000
   30     -9.47937    2.00000
   31     -9.26069    2.00000
   32     -8.71643    2.00000
   33     -8.07091    2.00000
   34     -7.70988    2.00000
   35     -7.53843    2.00000
   36     -7.13800    2.00000
   37     -7.09195    2.00000
   38     -6.92277    2.00000
   39     -6.67703    2.00000
   40     -6.55720    2.00000
   41     -6.43235    2.00000
   42     -6.36805    2.00000
   43     -6.11564    2.00000
   44     -5.83720    2.00000
   45     -5.28814    1.99979
   46     -4.69794    1.92550
   47     -4.51967    1.62594
   48     -4.19563    0.29085
   49     -4.11296    0.13858
   50     -3.90676    0.01876
   51     -3.50475    0.00034
   52     -3.45766    0.00021
   53     -3.24083    0.00002
   54     -3.05585    0.00000
   55     -2.86087    0.00000
   56     -2.49078    0.00000
   57     -1.92987    0.00000
   58     -1.85548    0.00000
   59     -0.96289    0.00000
   60     -0.30242    0.00000
   61     -0.13060    0.00000
   62      0.48429    0.00000
   63      1.53829    0.00000
   64      1.77146    0.00000
   65      1.95205    0.00000
   66      3.42560    0.00000
   67      3.83122    0.00000
   68      3.92217    0.00000
   69      4.36173    0.00000
   70      4.73035    0.00000
   71      5.15066    0.00000
   72      5.38175    0.00000
   73      5.43878    0.00000
   74      6.13686    0.00000
   75      6.38663    0.00000
   76      6.82432    0.00000
   77      7.01154    0.00000
   78      7.16472    0.00000
   79      7.23448    0.00000
   80      7.57286    0.00000
   81      8.09095    0.00000
   82      8.39725    0.00000
   83      8.44781    0.00000
   84      8.51118    0.00000
   85      8.92606    0.00000
   86      9.01950    0.00000
   87      9.02438    0.00000
   88      9.22350    0.00000
   89      9.28655    0.00000
   90      9.33476    0.00000
   91      9.53312    0.00000
   92      9.57833    0.00000
   93      9.72749    0.00000
   94      9.87341    0.00000
   95      9.91631    0.00000
   96     10.06937    0.00000
   97     10.13410    0.00000


Forces in eV/Ang:
  0 C     0.89133    0.12363    0.96896
  1 C     2.41533   -0.64537    2.00713
  2 C     1.40730   -0.31832   -0.30752
  3 C     0.63528   -0.71427    0.80887
  4 C     1.38952   -1.39268    2.01748
  5 C    -0.49503   -0.40632   -0.46803
  6 C    -0.00903    0.35575    0.13889
  7 C    -0.12879    0.01949   -0.02217
  8 C    -0.21436   -0.27721    0.01108
  9 C    -0.03664   -0.31212   -0.22720
 10 C    -0.69757    0.10554    0.40755
 11 C    -0.03232    0.22434    0.24227
 12 C     0.05901   -0.14733    0.44109
 13 C     0.02409    0.36807   -0.00056
 14 C     0.09329   -0.20562    0.37806
 15 C    -0.31439    0.22195    0.19553
 16 C    -0.08873    0.02604    0.03358
 17 C    -0.63437   -0.14059   -0.28408
 18 C    -0.36053    0.49880   -0.04231
 19 C    -0.05685   -0.25668   -0.23718
 20 C    -1.37179    2.45487   -3.09490
 21 C    -0.47288   -0.28173    0.01532
 22 C    -1.42634    0.87795   -3.16755
 23 C    -0.59484   -0.13149    0.18454

System changes: positions 

Initializing position-dependent things.

Density initialized from wave functions
           .--------------------------------------.  
          /|                                      |  
         / |                                      |  
        /  |                                      |  
       /   |                                      |  
      /    |                                      |  
     /     |           C                          |  
    /      |             C   C                    |  
   /       |       C           C                  |  
  /        |      C C   C                         |  
 *         |   CC         C   C                   |  
 |         |       C            C                 |  
 |         .--C-C-----C--C-----C------------------.  
 |        /                 C                    /   
 |       /       C  C     C                     /    
 |      /              C                       /     
 |     /                                      /      
 |    /                                      /       
 |   /                                      /        
 |  /                                      /         
 | /                                      /          
 |/                                      /           
 *--------------------------------------*            

Positions:
   0 C      3.536338    6.340698    5.369432
   1 C      4.553334    5.525324    5.471648
   2 C      3.660840    7.701512    5.784868
   3 C      4.803104    9.501383    6.399399
   4 C      4.943961    8.051416    6.490935
   5 C      3.684242    9.148436    5.481688
   6 C     10.684348    5.963924    4.878272
   7 C      9.247256    3.874097    4.339744
   8 C      9.569592    5.148064    4.882565
   9 C     10.804954    7.112487    5.407307
  10 C      8.157012    3.275825    4.424577
  11 C      9.854521    7.817391    6.117723
  12 C      8.409168    5.747354    5.640878
  13 C      6.938679    3.713938    5.071819
  14 C      8.550475    7.059036    6.257863
  15 C      7.134050    5.050428    5.746288
  16 C      9.797482    9.073650    6.760741
  17 C      5.696910    3.158363    5.207434
  18 C      6.428588    9.404672    8.313319
  19 C      7.545062    8.976959    7.617007
  20 C      6.099227    6.981020    6.933637
  21 C      7.436929    7.628295    6.987189
  22 C      5.972490    5.699670    6.326248
  23 C      8.838541    9.570118    7.394639

Unit cell:
           periodic     x           y           z      points  spacing
  1. axis:    yes   16.000000    0.000000    0.000000    80     0.2000
  2. axis:    yes    0.000000   16.000000    0.000000    80     0.2000
  3. axis:    yes    0.000000    0.000000   10.000000    48     0.2083

Effective grid spacing dv^(1/3) = 0.2027

                     log10-error:    total        iterations:
           time      wfs    density  energy       fermi  poisson
iter:   1  11:34:21          +inf  -175.333731    3      5      
iter:   2  11:34:22         -2.00  -175.266022    2      2      
iter:   3  11:34:22         -2.16  -175.221032    3      2      
iter:   4  11:34:23         -2.48  -175.214218    3      2      
iter:   5  11:34:24         -2.67  -175.211119    2      2      
iter:   6  11:34:24         -2.79  -175.214421    2      2      
iter:   7  11:34:25         -2.87  -175.210412    2      1      
iter:   8  11:34:26         -3.04  -175.212006    2      2      
iter:   9  11:34:26         -3.17  -175.212102    2      2      
iter:  10  11:34:27         -3.34  -175.209996    2      1      
iter:  11  11:34:28         -3.47  -175.212161    2      1      
iter:  12  11:34:28         -3.68  -175.211680    2      1      
iter:  13  11:34:29         -3.78  -175.211531    2      1      
iter:  14  11:34:29         -3.84  -175.212294    2      1      
iter:  15  11:34:30         -3.94  -175.211371    2      1      
iter:  16  11:34:31         -4.02  -175.211863    2      1      

Converged after 16 iterations.

Dipole moment: (0.563398, -0.086352, 0.182198) |e|*Ang

Energy contributions relative to reference atoms: (reference = -24663.074771)

Kinetic:        +87.214281
Potential:      -99.286699
External:        +0.000000
XC:            -165.943045
Entropy (-ST):   -0.255672
Local:           +2.931435
--------------------------
Free energy:   -175.339699
Extrapolated:  -175.211863

Fermi level: -4.37995

 Band  Eigenvalues  Occupancy
    0    -22.86670    2.00000
    1    -22.56212    2.00000
    2    -21.66715    2.00000
    3    -21.27705    2.00000
    4    -20.39643    2.00000
    5    -19.89327    2.00000
    6    -19.58021    2.00000
    7    -19.00612    2.00000
    8    -18.49225    2.00000
    9    -18.38533    2.00000
   10    -17.20921    2.00000
   11    -16.32263    2.00000
   12    -16.03167    2.00000
   13    -15.71039    2.00000
   14    -15.25007    2.00000
   15    -14.32416    2.00000
   16    -14.06129    2.00000
   17    -13.90079    2.00000
   18    -12.90944    2.00000
   19    -12.67694    2.00000
   20    -12.47256    2.00000
   21    -12.21162    2.00000
   22    -11.86752    2.00000
   23    -11.14387    2.00000
   24    -11.01994    2.00000
   25    -10.78472    2.00000
   26    -10.50965    2.00000
   27    -10.11117    2.00000
   28     -9.99572    2.00000
   29     -9.74522    2.00000
   30     -9.48962    2.00000
   31     -9.35662    2.00000
   32     -8.74605    2.00000
   33     -8.08013    2.00000
   34     -7.74885    2.00000
   35     -7.55820    2.00000
   36     -7.15002    2.00000
   37     -7.09111    2.00000
   38     -6.93180    2.00000
   39     -6.69716    2.00000
   40     -6.58105    2.00000
   41     -6.44063    2.00000
   42     -6.36831    2.00000
   43     -6.14119    2.00000
   44     -5.84685    2.00000
   45     -5.27502    1.99974
   46     -4.69156    1.91510
   47     -4.54841    1.68701
   48     -4.18941    0.25899
   49     -4.10518    0.12043
   50     -3.91062    0.01815
   51     -3.52293    0.00038
   52     -3.45054    0.00018
   53     -3.21684    0.00002
   54     -3.05956    0.00000
   55     -2.86260    0.00000
   56     -2.44163    0.00000
   57     -1.91594    0.00000
   58     -1.80461    0.00000
   59     -0.95536    0.00000
   60     -0.26270    0.00000
   61     -0.11200    0.00000
   62      0.51178    0.00000
   63      1.62199    0.00000
   64      1.82801    0.00000
   65      2.28515    0.00000
   66      3.43074    0.00000
   67      3.81096    0.00000
   68      3.88648    0.00000
   69      4.36613    0.00000
   70      4.74271    0.00000
   71      5.12400    0.00000
   72      5.37914    0.00000
   73      5.53719    0.00000
   74      6.13426    0.00000
   75      6.55688    0.00000
   76      6.81873    0.00000
   77      6.98750    0.00000
   78      7.14864    0.00000
   79      7.26599    0.00000
   80      7.57932    0.00000
   81      8.05103    0.00000
   82      8.40911    0.00000
   83      8.47470    0.00000
   84      8.51301    0.00000
   85      8.93198    0.00000
   86      9.01430    0.00000
   87      9.02755    0.00000
   88      9.21446    0.00000
   89      9.30670    0.00000
   90      9.34394    0.00000
   91      9.53136    0.00000
   92      9.58423    0.00000
   93      9.73111    0.00000
   94      9.87698    0.00000
   95      9.91544    0.00000
   96     10.06386    0.00000
   97     10.13544    0.00000


Forces in eV/Ang:
  0 C     0.64280    0.61985    0.95337
  1 C     2.64250   -0.81878    1.98323
  2 C     1.44025   -0.40806   -0.14193
  3 C     0.47304   -0.78344    0.74722
  4 C     1.34059   -1.60179    1.76784
  5 C    -0.45343   -0.30712   -0.50428
  6 C     0.00994    0.40093    0.15535
  7 C     0.00583    0.16873    0.00075
  8 C    -0.29644   -0.37195    0.01307
  9 C    -0.02095   -0.35815   -0.25390
 10 C    -0.93606    0.07693    0.47253
 11 C    -0.10029    0.26169    0.30406
 12 C     0.07990   -0.14956    0.43202
 13 C     0.24113    0.34588   -0.04343
 14 C     0.10063   -0.20108    0.35124
 15 C    -0.34081    0.20497    0.04762
 16 C    -0.09911   -0.01542    0.02766
 17 C    -0.67991   -0.13157   -0.24521
 18 C    -0.40150    0.52998   -0.06881
 19 C     0.10850   -0.21474   -0.23308
 20 C    -1.12170    2.56395   -2.78314
 21 C    -0.57025   -0.20202   -0.06713
 22 C    -1.39641    0.61331   -3.13195
 23 C    -0.68313   -0.18619    0.20414

System changes: positions 

Initializing position-dependent things.

Density initialized from wave functions
           .--------------------------------------.  
          /|                                      |  
         / |                                      |  
        /  |                                      |  
       /   |                                      |  
      /    |                                      |  
     /     |           C                          |  
    /      |             C   C                    |  
   /       |       C           C                  |  
  /        |      C C   C                         |  
 *         |   CC         C   C                   |  
 |         |       C            C                 |  
 |         .--C-C-----C--C-----C------------------.  
 |        /                 C                    /   
 |       /       C  C     C                     /    
 |      /              C                       /     
 |     /                                      /      
 |    /                                      /       
 |   /                                      /        
 |  /                                      /         
 | /                                      /          
 |/                                      /           
 *--------------------------------------*            

Positions:
   0 C      3.550471    6.326790    5.378503
   1 C      4.570359    5.524541    5.489467
   2 C      3.676541    7.701599    5.781187
   3 C      4.808700    9.493190    6.405849
   4 C      4.957163    8.043304    6.511636
   5 C      3.682094    9.145183    5.480853
   6 C     10.682832    5.963313    4.878168
   7 C      9.246123    3.873094    4.338760
   8 C      9.568970    5.147474    4.883279
   9 C     10.803851    7.113397    5.407349
  10 C      8.153262    3.275931    4.427164
  11 C      9.855391    7.817720    6.118875
  12 C      8.409553    5.745799    5.645304
  13 C      6.931711    3.717885    5.074065
  14 C      8.550840    7.057404    6.261791
  15 C      7.130670    5.053707    5.749241
  16 C      9.796319    9.075259    6.761883
  17 C      5.692740    3.158501    5.204374
  18 C      6.425958    9.409164    8.311730
  19 C      7.539514    8.973339    7.615510
  20 C      6.085100    6.999615    6.901161
  21 C      7.434695    7.625762    6.987090
  22 C      5.958612    5.712942    6.296507
  23 C      8.836152    9.569547    7.395547

Unit cell:
           periodic     x           y           z      points  spacing
  1. axis:    yes   16.000000    0.000000    0.000000    80     0.2000
  2. axis:    yes    0.000000   16.000000    0.000000    80     0.2000
  3. axis:    yes    0.000000    0.000000   10.000000    48     0.2083

Effective grid spacing dv^(1/3) = 0.2027

                     log10-error:    total        iterations:
           time      wfs    density  energy       fermi  poisson
iter:   1  11:34:33          +inf  -175.804396    3      5      
iter:   2  11:34:34         -2.02  -175.742996    2      2      
iter:   3  11:34:34         -2.17  -175.698736    3      2      
iter:   4  11:34:35         -2.49  -175.691301    3      2      
iter:   5  11:34:36         -2.69  -175.688912    2      2      
iter:   6  11:34:36         -2.79  -175.692339    2      2      
iter:   7  11:34:37         -2.90  -175.689843    2      1      
iter:   8  11:34:37         -3.05  -175.687154    2      1      
iter:   9  11:34:38         -3.19  -175.689897    2      2      
iter:  10  11:34:39         -3.38  -175.688713    2      1      
iter:  11  11:34:39         -3.27  -175.688828    2      1      
iter:  12  11:34:40         -3.73  -175.689569    2      1      
iter:  13  11:34:41         -3.78  -175.689393    2      1      
iter:  14  11:34:41         -3.73  -175.689594    2      1      
iter:  15  11:34:42         -3.97  -175.689702    2      1      
iter:  16  11:34:43         -4.20  -175.689514    2      1      

Converged after 16 iterations.

Dipole moment: (0.574458, -0.093180, 0.192252) |e|*Ang

Energy contributions relative to reference atoms: (reference = -24663.074771)

Kinetic:        +87.982775
Potential:     -100.116183
External:        +0.000000
XC:            -166.369669
Entropy (-ST):   -0.240653
Local:           +2.933890
--------------------------
Free energy:   -175.809840
Extrapolated:  -175.689514

Fermi level: -4.38611

 Band  Eigenvalues  Occupancy
    0    -22.86340    2.00000
    1    -22.52381    2.00000
    2    -21.66302    2.00000
    3    -21.29951    2.00000
    4    -20.41504    2.00000
    5    -19.92053    2.00000
    6    -19.60630    2.00000
    7    -19.01725    2.00000
    8    -18.52164    2.00000
    9    -18.38684    2.00000
   10    -17.22327    2.00000
   11    -16.35616    2.00000
   12    -16.13353    2.00000
   13    -15.71890    2.00000
   14    -15.26906    2.00000
   15    -14.35014    2.00000
   16    -14.06395    2.00000
   17    -13.90528    2.00000
   18    -12.93673    2.00000
   19    -12.69349    2.00000
   20    -12.47109    2.00000
   21    -12.16307    2.00000
   22    -11.94682    2.00000
   23    -11.17766    2.00000
   24    -11.05283    2.00000
   25    -10.81732    2.00000
   26    -10.53438    2.00000
   27    -10.12971    2.00000
   28     -9.99572    2.00000
   29     -9.73859    2.00000
   30     -9.54646    2.00000
   31     -9.38972    2.00000
   32     -8.76964    2.00000
   33     -8.08801    2.00000
   34     -7.79171    2.00000
   35     -7.57509    2.00000
   36     -7.16167    2.00000
   37     -7.08949    2.00000
   38     -6.93790    2.00000
   39     -6.71493    2.00000
   40     -6.59642    2.00000
   41     -6.44710    2.00000
   42     -6.36705    2.00000
   43     -6.16459    2.00000
   44     -5.85555    2.00000
   45     -5.26615    1.99970
   46     -4.68809    1.90692
   47     -4.57414    1.73529
   48     -4.18332    0.23262
   49     -4.09828    0.10647
   50     -3.91801    0.01837
   51     -3.54291    0.00044
   52     -3.45173    0.00017
   53     -3.19325    0.00001
   54     -3.07478    0.00000
   55     -2.86992    0.00000
   56     -2.40121    0.00000
   57     -1.92004    0.00000
   58     -1.73276    0.00000
   59     -0.95539    0.00000
   60     -0.21821    0.00000
   61     -0.10247    0.00000
   62      0.52809    0.00000
   63      1.67229    0.00000
   64      1.87668    0.00000
   65      2.63649    0.00000
   66      3.47017    0.00000
   67      3.70559    0.00000
   68      3.91703    0.00000
   69      4.39229    0.00000
   70      4.76929    0.00000
   71      5.09463    0.00000
   72      5.37179    0.00000
   73      5.62225    0.00000
   74      6.13326    0.00000
   75      6.71370    0.00000
   76      6.87776    0.00000
   77      6.99679    0.00000
   78      7.14349    0.00000
   79      7.32097    0.00000
   80      7.58833    0.00000
   81      8.01213    0.00000
   82      8.43035    0.00000
   83      8.49349    0.00000
   84      8.53730    0.00000
   85      8.93580    0.00000
   86      9.00568    0.00000
   87      9.03333    0.00000
   88      9.20783    0.00000
   89      9.32887    0.00000
   90      9.35275    0.00000
   91      9.53344    0.00000
   92      9.59009    0.00000
   93      9.73823    0.00000
   94      9.87879    0.00000
   95      9.93657    0.00000
   96     10.06326    0.00000
   97     10.13718    0.00000


Forces in eV/Ang:
  0 C     0.47111    1.08539    0.91707
  1 C     2.72887   -0.91423    1.89652
  2 C     1.42446   -0.52237   -0.00424
  3 C     0.31533   -0.78121    0.71517
  4 C     1.19460   -1.73104    1.44254
  5 C    -0.44616   -0.15151   -0.56032
  6 C     0.03971    0.50969    0.20209
  7 C    -0.14793    0.11252    0.02520
  8 C    -0.35139   -0.41897    0.03379
  9 C    -0.00683   -0.46679   -0.31040
 10 C    -0.85305    0.19071    0.49213
 11 C    -0.16733    0.29654    0.36251
 12 C     0.06632   -0.14777    0.43147
 13 C     0.40241    0.32274   -0.07130
 14 C     0.10087   -0.19794    0.31902
 15 C    -0.34042    0.19027   -0.10071
 16 C    -0.09814   -0.05417    0.01935
 17 C    -0.72097   -0.10829   -0.20836
 18 C    -0.43482    0.56062   -0.10629
 19 C     0.24262   -0.17183   -0.23534
 20 C    -0.81312    2.53299   -2.41636
 21 C    -0.63399   -0.11192   -0.15710
 22 C    -1.23027    0.41185   -2.94758
 23 C    -0.75580   -0.22782    0.22597

System changes: positions 

Initializing position-dependent things.

Density initialized from wave functions
           .--------------------------------------.  
          /|                                      |  
         / |                                      |  
        /  |                                      |  
       /   |                                      |  
      /    |                                      |  
     /     |           C                          |  
    /      |             C   C                    |  
   /       |       C           C                  |  
  /        |      C C   C                         |  
 *         |   CC         C   C                   |  
 |         |       C            C                 |  
 |         .--C-C-----C--C-----C------------------.  
 |        /                 C                    /   
 |       /       C  C     C                     /    
 |      /              C                       /     
 |     /                                      /      
 |    /                                      /       
 |   /                                      /        
 |  /                                      /         
 | /                                      /          
 |/                                      /           
 *--------------------------------------*            

Positions:
   0 C      3.565615    6.314297    5.388369
   1 C      4.588782    5.523620    5.508030
   2 C      3.693991    7.700438    5.778052
   3 C      4.813368    9.484376    6.412795
   4 C      4.969871    8.033908    6.531362
   5 C      3.679905    9.143364    5.479625
   6 C     10.681409    5.963879    4.878625
   7 C      9.242707    3.870825    4.337829
   8 C      9.567910    5.146611    4.884378
   9 C     10.802676    7.113169    5.406778
  10 C      8.150778    3.277414    4.430084
  11 C      9.855812    7.818327    6.120658
  12 C      8.409653    5.744112    5.650341
  13 C      6.924712    3.722069    5.076523
  14 C      8.551176    7.055604    6.265841
  15 C      7.126895    5.057353    5.751241
  16 C      9.795216    9.076711    6.763032
  17 C      5.687853    3.159074    5.201268
  18 C      6.422783    9.414484    8.309433
  19 C      7.534093    8.969604    7.613787
  20 C      6.072638    7.018905    6.868411
  21 C      7.431888    7.623812    6.986059
  22 C      5.945483    5.726601    6.265722
  23 C      8.832907    9.568666    7.396830

Unit cell:
           periodic     x           y           z      points  spacing
  1. axis:    yes   16.000000    0.000000    0.000000    80     0.2000
  2. axis:    yes    0.000000   16.000000    0.000000    80     0.2000
  3. axis:    yes    0.000000    0.000000   10.000000    48     0.2083

Effective grid spacing dv^(1/3) = 0.2027

                     log10-error:    total        iterations:
           time      wfs    density  energy       fermi  poisson
iter:   1  11:34:45          +inf  -176.260267    2      5      
iter:   2  11:34:46         -2.00  -176.183561    2      2      
iter:   3  11:34:46         -2.16  -176.140494    2      2      
iter:   4  11:34:47         -2.43  -176.130145    3      2      
iter:   5  11:34:47         -2.69  -176.122879    2      1      
iter:   6  11:34:48         -2.75  -176.128118    2      2      
iter:   7  11:34:49         -2.87  -176.124486    2      1      
iter:   8  11:34:49         -3.02  -176.128249    2      2      
iter:   9  11:34:50         -3.17  -176.126475    2      1      
iter:  10  11:34:51         -3.35  -176.126414    2      1      
iter:  11  11:34:51         -3.50  -176.128409    2      1      
iter:  12  11:34:52         -3.60  -176.126515    2      1      
iter:  13  11:34:53         -3.81  -176.127342    2      1      
iter:  14  11:34:53         -3.89  -176.128480    2      1      
iter:  15  11:34:54         -4.07  -176.127589    2      1      

Converged after 15 iterations.

Dipole moment: (0.591190, -0.095395, 0.200432) |e|*Ang

Energy contributions relative to reference atoms: (reference = -24663.074771)

Kinetic:        +89.725902
Potential:     -101.715601
External:        +0.000000
XC:            -166.966897
Entropy (-ST):   -0.223757
Local:           +2.940885
--------------------------
Free energy:   -176.239468
Extrapolated:  -176.127589

Fermi level: -4.39349

 Band  Eigenvalues  Occupancy
    0    -22.87507    2.00000
    1    -22.48489    2.00000
    2    -21.66476    2.00000
    3    -21.31753    2.00000
    4    -20.44158    2.00000
    5    -19.94877    2.00000
    6    -19.62892    2.00000
    7    -19.03230    2.00000
    8    -18.56010    2.00000
    9    -18.38328    2.00000
   10    -17.23736    2.00000
   11    -16.41904    2.00000
   12    -16.22859    2.00000
   13    -15.70736    2.00000
   14    -15.28622    2.00000
   15    -14.37529    2.00000
   16    -14.06378    2.00000
   17    -13.90962    2.00000
   18    -12.97337    2.00000
   19    -12.71486    2.00000
   20    -12.47356    2.00000
   21    -12.11153    2.00000
   22    -12.02674    2.00000
   23    -11.21316    2.00000
   24    -11.07182    2.00000
   25    -10.84714    2.00000
   26    -10.56203    2.00000
   27    -10.14494    2.00000
   28    -10.00251    2.00000
   29     -9.75570    2.00000
   30     -9.59626    2.00000
   31     -9.38608    2.00000
   32     -8.78648    2.00000
   33     -8.10022    2.00000
   34     -7.83201    2.00000
   35     -7.58627    2.00000
   36     -7.17387    2.00000
   37     -7.09324    2.00000
   38     -6.94416    2.00000
   39     -6.73924    2.00000
   40     -6.60867    2.00000
   41     -6.46027    2.00000
   42     -6.36508    2.00000
   43     -6.18723    2.00000
   44     -5.86373    2.00000
   45     -5.26284    1.99966
   46     -4.68972    1.90168
   47     -4.60259    1.78005
   48     -4.17764    0.20707
   49     -4.09202    0.09353
   50     -3.91968    0.01736
   51     -3.56190    0.00049
   52     -3.44445    0.00015
   53     -3.17070    0.00001
   54     -3.08015    0.00000
   55     -2.87332    0.00000
   56     -2.35565    0.00000
   57     -1.92796    0.00000
   58     -1.64466    0.00000
   59     -0.95235    0.00000
   60     -0.16581    0.00000
   61     -0.10044    0.00000
   62      0.54654    0.00000
   63      1.70396    0.00000
   64      1.95686    0.00000
   65      2.86983    0.00000
   66      3.58992    0.00000
   67      3.61941    0.00000
   68      3.93620    0.00000
   69      4.43578    0.00000
   70      4.83768    0.00000
   71      5.07500    0.00000
   72      5.36924    0.00000
   73      5.68929    0.00000
   74      6.12977    0.00000
   75      6.72614    0.00000
   76      6.94162    0.00000
   77      7.09165    0.00000
   78      7.17119    0.00000
   79      7.42977    0.00000
   80      7.59649    0.00000
   81      7.99048    0.00000
   82      8.45089    0.00000
   83      8.51262    0.00000
   84      8.59287    0.00000
   85      8.94211    0.00000
   86      8.99764    0.00000
   87      9.03947    0.00000
   88      9.20968    0.00000
   89      9.35089    0.00000
   90      9.36185    0.00000
   91      9.54050    0.00000
   92      9.59622    0.00000
   93      9.74259    0.00000
   94      9.88151    0.00000
   95      9.97802    0.00000
   96     10.06944    0.00000
   97     10.14212    0.00000


Forces in eV/Ang:
  0 C     0.24023    1.43280    0.86713
  1 C     2.58642   -1.04008    1.63747
  2 C     1.37938   -0.61204    0.13656
  3 C     0.10147   -0.81296    0.67813
  4 C     0.92786   -1.64167    1.02373
  5 C    -0.24100   -0.16483   -0.43005
  6 C     0.01447    0.41926    0.17092
  7 C     0.03456    0.28513    0.04481
  8 C    -0.40030   -0.46932    0.04497
  9 C    -0.01090   -0.38743   -0.26325
 10 C    -1.11264    0.10939    0.54624
 11 C    -0.20513    0.28386    0.38274
 12 C     0.06898   -0.14934    0.39644
 13 C     0.56422    0.28930   -0.11388
 14 C     0.10073   -0.17395    0.28783
 15 C    -0.33086    0.17209   -0.24665
 16 C    -0.14748   -0.06184    0.04901
 17 C    -0.75487   -0.07777   -0.17719
 18 C    -0.46471    0.57933   -0.15675
 19 C     0.34167   -0.13418   -0.23391
 20 C    -0.36169    2.30561   -1.98674
 21 C    -0.65911   -0.03165   -0.23742
 22 C    -0.88529    0.21619   -2.65123
 23 C    -0.75571   -0.27103    0.21985

System changes: positions 

Initializing position-dependent things.

Density initialized from wave functions
           .--------------------------------------.  
          /|                                      |  
         / |                                      |  
        /  |                                      |  
       /   |                                      |  
      /    |                                      |  
     /     |           C                          |  
    /      |             C   C                    |  
   /       |       C           C                  |  
  /        |      C C   C                         |  
 *         |   CC         C   C                   |  
 |         |       C            C                 |  
 |         .--C-C-----C--C-----C------------------.  
 |        /                 C                    /   
 |       /       C  C     C                     /    
 |      /              C                       /     
 |     /                                      /      
 |    /                                      /       
 |   /                                      /        
 |  /                                      /         
 | /                                      /          
 |/                                      /           
 *--------------------------------------*            

Positions:
   0 C      3.580979    6.303254    5.399615
   1 C      4.607940    5.521020    5.526415
   2 C      3.714071    7.697821    5.775721
   3 C      4.816352    9.473693    6.420823
   4 C      4.981119    8.024730    6.549598
   5 C      3.680249    9.140457    5.480202
   6 C     10.679251    5.962914    4.878586
   7 C      9.241159    3.870403    4.336947
   8 C      9.566156    5.145073    4.885813
   9 C     10.801168    7.114372    5.406950
  10 C      8.144313    3.277949    4.434271
  11 C      9.855992    7.818767    6.122880
  12 C      8.409744    5.742075    5.655859
  13 C      6.918271    3.726641    5.078891
  14 C      8.551582    7.053793    6.270298
  15 C      7.122581    5.061476    5.752023
  16 C      9.793122    9.078491    6.764903
  17 C      5.681566    3.160110    5.197882
  18 C      6.418622    9.421032    8.306092
  19 C      7.528679    8.965557    7.611653
  20 C      6.063698    7.038248    6.834559
  21 C      7.428409    7.622308    6.983973
  22 C      5.934934    5.740834    6.233052
  23 C      8.829308    9.567095    7.398182

Unit cell:
           periodic     x           y           z      points  spacing
  1. axis:    yes   16.000000    0.000000    0.000000    80     0.2000
  2. axis:    yes    0.000000   16.000000    0.000000    80     0.2000
  3. axis:    yes    0.000000    0.000000   10.000000    48     0.2083

Effective grid spacing dv^(1/3) = 0.2027

                     log10-error:    total        iterations:
           time      wfs    density  energy       fermi  poisson
iter:   1  11:34:56          +inf  -176.598417    3      5      
iter:   2  11:34:57         -2.06  -176.552476    2      2      
iter:   3  11:34:57         -2.20  -176.511876    3      2      
iter:   4  11:34:58         -2.55  -176.507456    3      2      
iter:   5  11:34:59         -2.70  -176.506023    2      2      
iter:   6  11:34:59         -2.83  -176.507718    2      2      
iter:   7  11:35:00         -3.01  -176.506709    2      1      
iter:   8  11:35:01         -3.11  -176.504424    2      1      
iter:   9  11:35:01         -3.25  -176.504068    2      1      
iter:  10  11:35:02         -3.49  -176.505905    2      1      
iter:  11  11:35:03         -3.45  -176.505887    2      1      
iter:  12  11:35:03         -3.86  -176.506684    2      1      
iter:  13  11:35:04         -3.92  -176.506631    2      1      
iter:  14  11:35:05         -3.97  -176.506566    2      1      
iter:  15  11:35:05         -4.06  -176.506831    2      1      

Converged after 15 iterations.

Dipole moment: (0.608138, -0.098102, 0.204909) |e|*Ang

Energy contributions relative to reference atoms: (reference = -24663.074771)

Kinetic:        +91.905583
Potential:     -103.611667
External:        +0.000000
XC:            -167.640022
Entropy (-ST):   -0.210008
Local:           +2.944279
--------------------------
Free energy:   -176.611835
Extrapolated:  -176.506831

Fermi level: -4.39872

 Band  Eigenvalues  Occupancy
    0    -22.91162    2.00000
    1    -22.46918    2.00000
    2    -21.67358    2.00000
    3    -21.33632    2.00000
    4    -20.47225    2.00000
    5    -19.98268    2.00000
    6    -19.65156    2.00000
    7    -19.04009    2.00000
    8    -18.58818    2.00000
    9    -18.38504    2.00000
   10    -17.25113    2.00000
   11    -16.50273    2.00000
   12    -16.29884    2.00000
   13    -15.69535    2.00000
   14    -15.29882    2.00000
   15    -14.40203    2.00000
   16    -14.06942    2.00000
   17    -13.92277    2.00000
   18    -13.01968    2.00000
   19    -12.73477    2.00000
   20    -12.47651    2.00000
   21    -12.10236    2.00000
   22    -12.06843    2.00000
   23    -11.24954    2.00000
   24    -11.08951    2.00000
   25    -10.87793    2.00000
   26    -10.59261    2.00000
   27    -10.16058    2.00000
   28    -10.02450    2.00000
   29     -9.80527    2.00000
   30     -9.61115    2.00000
   31     -9.37706    2.00000
   32     -8.79939    2.00000
   33     -8.11526    2.00000
   34     -7.87022    2.00000
   35     -7.59499    2.00000
   36     -7.18561    2.00000
   37     -7.09571    2.00000
   38     -6.94445    2.00000
   39     -6.75283    2.00000
   40     -6.61077    2.00000
   41     -6.46555    2.00000
   42     -6.36369    2.00000
   43     -6.20609    2.00000
   44     -5.86809    2.00000
   45     -5.26137    1.99964
   46     -4.69671    1.90332
   47     -4.62258    1.80733
   48     -4.17297    0.18941
   49     -4.08418    0.08255
   50     -3.92309    0.01705
   51     -3.57584    0.00053
   52     -3.45553    0.00016
   53     -3.15072    0.00001
   54     -3.09341    0.00000
   55     -2.88447    0.00000
   56     -2.32262    0.00000
   57     -1.93360    0.00000
   58     -1.55359    0.00000
   59     -0.96254    0.00000
   60     -0.11295    0.00000
   61     -0.10069    0.00000
   62      0.56301    0.00000
   63      1.71488    0.00000
   64      2.07256    0.00000
   65      2.95394    0.00000
   66      3.56563    0.00000
   67      3.75276    0.00000
   68      3.96303    0.00000
   69      4.47225    0.00000
   70      4.97598    0.00000
   71      5.06680    0.00000
   72      5.37625    0.00000
   73      5.74647    0.00000
   74      6.13621    0.00000
   75      6.72535    0.00000
   76      6.98600    0.00000
   77      7.11365    0.00000
   78      7.28583    0.00000
   79      7.60031    0.00000
   80      7.62745    0.00000
   81      8.00294    0.00000
   82      8.45305    0.00000
   83      8.57226    0.00000
   84      8.66959    0.00000
   85      8.94541    0.00000
   86      8.99297    0.00000
   87      9.05020    0.00000
   88      9.22245    0.00000
   89      9.36729    0.00000
   90      9.37982    0.00000
   91      9.55597    0.00000
   92      9.60190    0.00000
   93      9.75313    0.00000
   94      9.89050    0.00000
   95     10.03666    0.00000
   96     10.08995    0.00000
   97     10.15258    0.00000


Forces in eV/Ang:
  0 C     0.10427    1.71207    0.81833
  1 C     2.19844   -1.15371    1.27492
  2 C     1.21723   -0.72508    0.22589
  3 C    -0.08284   -0.72062    0.67324
  4 C     0.60191   -1.46777    0.62676
  5 C    -0.10094   -0.09804   -0.39135
  6 C     0.04514    0.56927    0.24367
  7 C    -0.26919    0.11927    0.06828
  8 C    -0.42646   -0.47794    0.07327
  9 C    -0.00556   -0.54508   -0.33466
 10 C    -0.80946    0.26082    0.51271
 11 C    -0.26323    0.30891    0.42568
 12 C     0.04003   -0.12425    0.36279
 13 C     0.59110    0.25259   -0.11603
 14 C     0.09947   -0.16628    0.25471
 15 C    -0.24505    0.15657   -0.39833
 16 C    -0.11111   -0.11879    0.02267
 17 C    -0.75752   -0.01952   -0.15575
 18 C    -0.46867    0.59549   -0.21835
 19 C     0.39424   -0.07504   -0.20829
 20 C     0.15574    1.90817   -1.51112
 21 C    -0.63030    0.05426   -0.31851
 22 C    -0.43235    0.11565   -2.19847
 23 C    -0.82112   -0.27905    0.26061

System changes: positions 

Initializing position-dependent things.

Density initialized from wave functions
           .--------------------------------------.  
          /|                                      |  
         / |                                      |  
        /  |                                      |  
       /   |                                      |  
      /    |                                      |  
     /     |           C                          |  
    /      |             C  C                     |  
   /       |       C           C                  |  
  /        |      C C   C                         |  
[...]
External:        +0.000000
XC:            -181.342556
Entropy (-ST):   -0.143265
Local:           +3.031317
--------------------------
Free energy:   -184.868861
Extrapolated:  -184.797228

Fermi level: -4.42490

 Band  Eigenvalues  Occupancy
    0    -23.67768    2.00000
    1    -22.62387    2.00000
    2    -21.94475    2.00000
    3    -21.25898    2.00000
    4    -20.58974    2.00000
    5    -20.14125    2.00000
    6    -19.38849    2.00000
    7    -19.34225    2.00000
    8    -18.44328    2.00000
    9    -18.01885    2.00000
   10    -17.64564    2.00000
   11    -17.18519    2.00000
   12    -16.20751    2.00000
   13    -15.70151    2.00000
   14    -15.35870    2.00000
   15    -14.75632    2.00000
   16    -14.36250    2.00000
   17    -13.92894    2.00000
   18    -13.30964    2.00000
   19    -12.60378    2.00000
   20    -12.36747    2.00000
   21    -12.22398    2.00000
   22    -11.63774    2.00000
   23    -11.51714    2.00000
   24    -11.02198    2.00000
   25    -10.89284    2.00000
   26    -10.65420    2.00000
   27    -10.57983    2.00000
   28    -10.51762    2.00000
   29     -9.90942    2.00000
   30     -9.65766    2.00000
   31     -9.49370    2.00000
   32     -9.26860    2.00000
   33     -9.16271    2.00000
   34     -8.62511    2.00000
   35     -8.01170    2.00000
   36     -7.76272    2.00000
   37     -6.96843    2.00000
   38     -6.73352    2.00000
   39     -6.45298    2.00000
   40     -6.41276    2.00000
   41     -6.35366    2.00000
   42     -6.17127    2.00000
   43     -6.01136    2.00000
   44     -5.72595    2.00000
   45     -5.40344    1.99989
   46     -4.75710    1.93035
   47     -4.69542    1.87467
   48     -4.19993    0.19075
   49     -3.81187    0.00434
   50     -3.08283    0.00000
   51     -2.62780    0.00000
   52     -2.55834    0.00000
   53     -2.38671    0.00000
   54     -2.33408    0.00000
   55     -2.15680    0.00000
   56     -1.08177    0.00000
   57     -0.93934    0.00000
   58     -0.37171    0.00000
   59      0.24463    0.00000
   60      0.73362    0.00000
   61      2.00012    0.00000
   62      2.85394    0.00000
   63      3.21395    0.00000
   64      3.72312    0.00000
   65      4.15666    0.00000
   66      4.40533    0.00000
   67      4.49269    0.00000
   68      4.97167    0.00000
   69      5.26547    0.00000
   70      5.59580    0.00000
   71      6.04626    0.00000
   72      6.18450    0.00000
   73      6.44335    0.00000
   74      6.63894    0.00000
   75      6.90521    0.00000
   76      7.15902    0.00000
   77      7.40372    0.00000
   78      8.11107    0.00000
   79      8.29531    0.00000
   80      8.48348    0.00000
   81      8.72392    0.00000
   82      8.95590    0.00000
   83      9.15340    0.00000
   84      9.27584    0.00000
   85      9.30876    0.00000
   86      9.38547    0.00000
   87      9.42156    0.00000
   88      9.55122    0.00000
   89      9.68021    0.00000
   90      9.76792    0.00000
   91      9.83631    0.00000
   92     10.01066    0.00000
   93     10.06227    0.00000
   94     10.25893    0.00000
   95     10.31653    0.00000
   96     10.46283    0.00000
   97     10.48992    0.00000


Forces in eV/Ang:
  0 C     0.02056    0.01281   -0.05740
  1 C    -0.03915   -0.01063    0.01644
  2 C    -0.05626    0.02580    0.01004
  3 C    -0.03786    0.02800   -0.03861
  4 C    -0.01487    0.04457    0.00674
  5 C     0.02198    0.00366    0.04928
  6 C    -0.01505   -0.01393    0.02281
  7 C    -0.01793    0.01102   -0.04728
  8 C    -0.00636    0.00409    0.00370
  9 C     0.01027    0.00375    0.00074
 10 C    -0.00179   -0.03409   -0.02976
 11 C     0.01648   -0.00369   -0.00653
 12 C     0.02219   -0.00944    0.05102
 13 C     0.01833    0.00083    0.00740
 14 C     0.02905   -0.00635    0.02992
 15 C     0.02365    0.00937    0.01211
 16 C     0.01548    0.00935    0.01571
 17 C     0.05336    0.03631    0.01504
 18 C     0.00722    0.00371    0.02637
 19 C    -0.03188    0.00637   -0.01355
 20 C     0.02640   -0.01938   -0.01090
 21 C     0.00252    0.03653   -0.09726
 22 C     0.03740   -0.02930    0.05161
 23 C     0.00126    0.01090    0.01181

System changes: positions 

Initializing position-dependent things.

Density initialized from wave functions
           .--------------------------------------.  
          /|                                      |  
         / |                                      |  
        /  |                                      |  
       /   |                                      |  
      /    |                                      |  
     /     |                                      |  
    /      |          C     C                     |  
   /       |       C     C     C                  |  
  /        |    C C     C                         |  
 *         |   C    C     C   C                   |  
 |         |  C    C            C                 |  
 |         .----C-----C--C-----C------------------.  
 |        /                 C                    /   
 |       /      C   C     C                     /    
 |      /             C                        /     
 |     /                                      /      
 |    /                                      /       
 |   /                                      /        
 |  /                                      /         
 | /                                      /          
 |/                                      /           
 *--------------------------------------*            

Positions:
   0 C      3.755767    6.096692    5.665928
   1 C      4.800368    5.239388    5.426432
   2 C      3.750629    7.326296    6.285502
   3 C      4.908709    9.170891    7.012757
   4 C      4.936536    7.688460    7.125023
   5 C      3.915531    8.723878    5.991475
   6 C     10.780699    5.751354    5.274573
   7 C      9.132359    3.803431    4.461316
   8 C      9.610952    4.997076    5.082196
   9 C     10.924880    6.892350    5.813964
  10 C      7.924760    3.431835    4.352099
  11 C      9.941828    7.740823    6.348291
  12 C      8.482142    5.769736    5.652643
  13 C      6.709027    4.046503    4.759217
  14 C      8.607802    7.078473    6.267937
  15 C      7.178777    5.249974    5.472518
  16 C      9.788097    9.037477    6.893939
  17 C      5.295456    4.022969    4.807983
  18 C      6.095448    9.789446    7.066691
  19 C      7.374711    9.211378    7.106528
  20 C      6.154501    7.096368    6.644992
  21 C      7.418365    7.766159    6.714421
  22 C      6.047908    5.921380    5.919369
  23 C      8.723714    9.641621    7.204985

Unit cell:
           periodic     x           y           z      points  spacing
  1. axis:    yes   16.000000    0.000000    0.000000    80     0.2000
  2. axis:    yes    0.000000   16.000000    0.000000    80     0.2000
  3. axis:    yes    0.000000    0.000000   10.000000    48     0.2083

Effective grid spacing dv^(1/3) = 0.2027

                     log10-error:    total        iterations:
           time      wfs    density  energy       fermi  poisson
iter:   1  11:46:14          +inf  -184.802557    3      4      
iter:   2  11:46:15         -2.57  -184.799264    2      1      
iter:   3  11:46:15         -3.25  -184.799365    2      1      
iter:   4  11:46:16         -3.28  -184.798118    2      1      
iter:   5  11:46:17         -3.21  -184.801617    2      1      
iter:   6  11:46:17         -2.81  -184.800507    2      1      
iter:   7  11:46:18         -2.97  -184.798702    2      1      
iter:   8  11:46:19         -3.68  -184.798935    2      1      
iter:   9  11:46:19         -3.53  -184.798725    2      1      
iter:  10  11:46:20         -4.11  -184.798478    2      1      

Converged after 10 iterations.

Dipole moment: (0.036053, 0.212182, 0.226294) |e|*Ang

Energy contributions relative to reference atoms: (reference = -24663.074771)

Kinetic:       +117.688910
Potential:     -124.083698
External:        +0.000000
XC:            -181.362304
Entropy (-ST):   -0.142785
Local:           +3.030007
--------------------------
Free energy:   -184.869870
Extrapolated:  -184.798478

Fermi level: -4.42238

 Band  Eigenvalues  Occupancy
    0    -23.68037    2.00000
    1    -22.62438    2.00000
    2    -21.94412    2.00000
    3    -21.25921    2.00000
    4    -20.59016    2.00000
    5    -20.14011    2.00000
    6    -19.38945    2.00000
    7    -19.34408    2.00000
    8    -18.44133    2.00000
    9    -18.01878    2.00000
   10    -17.64735    2.00000
   11    -17.18814    2.00000
   12    -16.20357    2.00000
   13    -15.70450    2.00000
   14    -15.35796    2.00000
   15    -14.75667    2.00000
   16    -14.36094    2.00000
   17    -13.92788    2.00000
   18    -13.31575    2.00000
   19    -12.60141    2.00000
   20    -12.36573    2.00000
   21    -12.22786    2.00000
   22    -11.63917    2.00000
   23    -11.52093    2.00000
   24    -11.02042    2.00000
   25    -10.89311    2.00000
   26    -10.65276    2.00000
   27    -10.58797    2.00000
   28    -10.52073    2.00000
   29     -9.90890    2.00000
   30     -9.65809    2.00000
   31     -9.49309    2.00000
   32     -9.26751    2.00000
   33     -9.15964    2.00000
   34     -8.62564    2.00000
   35     -8.01208    2.00000
   36     -7.76256    2.00000
   37     -6.96913    2.00000
   38     -6.73583    2.00000
   39     -6.45197    2.00000
   40     -6.41217    2.00000
   41     -6.35211    2.00000
   42     -6.16876    2.00000
   43     -6.01161    2.00000
   44     -5.72415    2.00000
   45     -5.40190    1.99989
   46     -4.75171    1.92840
   47     -4.69553    1.87773
   48     -4.19683    0.18975
   49     -3.80681    0.00423
   50     -3.08010    0.00000
   51     -2.62559    0.00000
   52     -2.55111    0.00000
   53     -2.38293    0.00000
   54     -2.33266    0.00000
   55     -2.15567    0.00000
   56     -1.08256    0.00000
   57     -0.93936    0.00000
   58     -0.36959    0.00000
   59      0.24433    0.00000
   60      0.73637    0.00000
   61      2.00418    0.00000
   62      2.85397    0.00000
   63      3.21397    0.00000
   64      3.72293    0.00000
   65      4.15901    0.00000
   66      4.40395    0.00000
   67      4.48814    0.00000
   68      4.96549    0.00000
   69      5.26180    0.00000
   70      5.59708    0.00000
   71      6.03496    0.00000
   72      6.18931    0.00000
   73      6.43444    0.00000
   74      6.63651    0.00000
   75      6.90418    0.00000
   76      7.16400    0.00000
   77      7.40359    0.00000
   78      8.12380    0.00000
   79      8.29590    0.00000
   80      8.48656    0.00000
   81      8.73030    0.00000
   82      8.95529    0.00000
   83      9.15371    0.00000
   84      9.27667    0.00000
   85      9.30982    0.00000
   86      9.38956    0.00000
   87      9.42554    0.00000
   88      9.55170    0.00000
   89      9.68140    0.00000
   90      9.76711    0.00000
   91      9.83708    0.00000
   92     10.01432    0.00000
   93     10.06420    0.00000
   94     10.26318    0.00000
   95     10.31998    0.00000
   96     10.46324    0.00000
   97     10.48984    0.00000


Forces in eV/Ang:
  0 C     0.02881    0.02771   -0.04992
  1 C     0.02679    0.00965    0.01956
  2 C    -0.03243    0.03182    0.03382
  3 C     0.00593   -0.00017   -0.03031
  4 C     0.03400    0.03212   -0.03512
  5 C    -0.02985   -0.00953    0.09970
  6 C    -0.00302   -0.00967    0.01647
  7 C     0.00165    0.01614   -0.04616
  8 C    -0.00534   -0.00419    0.00127
  9 C     0.00390    0.01404    0.00563
 10 C     0.01072   -0.03159   -0.03426
 11 C    -0.00116   -0.00906   -0.00253
 12 C     0.01904   -0.00879    0.03898
 13 C    -0.00105   -0.01271    0.01418
 14 C     0.00963   -0.00747    0.01298
 15 C     0.01698   -0.00709    0.00440
 16 C     0.00352    0.00705    0.02544
 17 C    -0.07735   -0.13514   -0.10505
 18 C     0.01246   -0.01312    0.03885
 19 C    -0.00323   -0.00553   -0.01700
 20 C     0.00016    0.01175    0.00306
 21 C    -0.01524    0.00653   -0.06812
 22 C    -0.00693   -0.04149    0.04445
 23 C     0.00752    0.00666   -0.00353

System changes: positions 

Initializing position-dependent things.

Density initialized from wave functions
           .--------------------------------------.  
          /|                                      |  
         / |                                      |  
        /  |                                      |  
       /   |                                      |  
      /    |                                      |  
     /     |                                      |  
    /      |          C     C                     |  
   /       |       C     C     C                  |  
  /        |    C C     C                         |  
 *         |   C    C     C   C                   |  
 |         |  C    C            C                 |  
 |         .----C-----C--C-----C------------------.  
 |        /                 C                    /   
 |       /      C   C     C                     /    
 |      /             C                        /     
 |     /                                      /      
 |    /                                      /       
 |   /                                      /        
 |  /                                      /         
 | /                                      /          
 |/                                      /           
 *--------------------------------------*            

Positions:
   0 C      3.755948    6.096965    5.665121
   1 C      4.799111    5.238541    5.428023
   2 C      3.749428    7.326494    6.286017
   3 C      4.906463    9.171451    7.012771
   4 C      4.937179    7.688955    7.123939
   5 C      3.914266    8.723189    5.993542
   6 C     10.780722    5.749278    5.277945
   7 C      9.130981    3.805312    4.457583
   8 C      9.610652    4.996600    5.082940
   9 C     10.926740    6.890652    5.816319
  10 C      7.923868    3.432508    4.348003
  11 C      9.943844    7.740942    6.348433
  12 C      8.483122    5.769124    5.655454
  13 C      6.709330    4.047850    4.758155
  14 C      8.609802    7.078385    6.269448
  15 C      7.179688    5.249126    5.474924
  16 C      9.788624    9.039040    6.891559
  17 C      5.295470    4.023362    4.806112
  18 C      6.094761    9.787778    7.067144
  19 C      7.374254    9.212300    7.104907
  20 C      6.155654    7.096392    6.644812
  21 C      7.419280    7.767430    6.711494
  22 C      6.048440    5.919208    5.923049
  23 C      8.723896    9.642425    7.204087

Unit cell:
           periodic     x           y           z      points  spacing
  1. axis:    yes   16.000000    0.000000    0.000000    80     0.2000
  2. axis:    yes    0.000000   16.000000    0.000000    80     0.2000
  3. axis:    yes    0.000000    0.000000   10.000000    48     0.2083

Effective grid spacing dv^(1/3) = 0.2027

                     log10-error:    total        iterations:
           time      wfs    density  energy       fermi  poisson
iter:   1  11:46:23          +inf  -184.821865    2      4      
iter:   2  11:46:23         -2.33  -184.799835    3      2      
iter:   3  11:46:24         -3.41  -184.799915    2      1      
iter:   4  11:46:25         -3.48  -184.800214    2      1      
iter:   5  11:46:25         -3.60  -184.800057    2      1      
iter:   6  11:46:26         -3.33  -184.799779    2      1      
iter:   7  11:46:27         -3.89  -184.800496    2      1      
iter:   8  11:46:27         -3.29  -184.799751    2      1      
iter:   9  11:46:28         -4.28  -184.799549    2      1      

Converged after 9 iterations.

Dipole moment: (0.035732, 0.213425, 0.226762) |e|*Ang

Energy contributions relative to reference atoms: (reference = -24663.074771)

Kinetic:       +117.448017
Potential:     -123.881204
External:        +0.000000
XC:            -181.319024
Entropy (-ST):   -0.142343
Local:           +3.023834
--------------------------
Free energy:   -184.870721
Extrapolated:  -184.799549

Fermi level: -4.42120

 Band  Eigenvalues  Occupancy
    0    -23.68384    2.00000
    1    -22.62351    2.00000
    2    -21.93979    2.00000
    3    -21.25998    2.00000
    4    -20.58892    2.00000
    5    -20.13714    2.00000
    6    -19.39024    2.00000
    7    -19.34211    2.00000
    8    -18.44141    2.00000
    9    -18.01835    2.00000
   10    -17.64737    2.00000
   11    -17.18624    2.00000
   12    -16.20183    2.00000
   13    -15.70660    2.00000
   14    -15.35549    2.00000
   15    -14.75759    2.00000
   16    -14.35836    2.00000
   17    -13.92670    2.00000
   18    -13.31980    2.00000
   19    -12.60030    2.00000
   20    -12.36462    2.00000
   21    -12.23031    2.00000
   22    -11.63985    2.00000
   23    -11.52158    2.00000
   24    -11.01871    2.00000
   25    -10.89356    2.00000
   26    -10.65222    2.00000
   27    -10.58558    2.00000
   28    -10.52255    2.00000
   29     -9.90788    2.00000
   30     -9.66024    2.00000
   31     -9.49211    2.00000
   32     -9.26781    2.00000
   33     -9.15558    2.00000
   34     -8.62656    2.00000
   35     -8.01280    2.00000
   36     -7.76241    2.00000
   37     -6.96936    2.00000
   38     -6.73597    2.00000
   39     -6.45102    2.00000
   40     -6.41264    2.00000
   41     -6.35198    2.00000
   42     -6.16903    2.00000
   43     -6.01130    2.00000
   44     -5.71925    2.00000
   45     -5.39963    1.99989
   46     -4.75136    1.92897
   47     -4.69456    1.87796
   48     -4.19519    0.18898
   49     -3.80497    0.00421
   50     -3.07991    0.00000
   51     -2.62562    0.00000
   52     -2.54649    0.00000
   53     -2.37900    0.00000
   54     -2.33465    0.00000
   55     -2.15477    0.00000
   56     -1.08406    0.00000
   57     -0.93882    0.00000
   58     -0.36928    0.00000
   59      0.24577    0.00000
   60      0.73735    0.00000
   61      2.00197    0.00000
   62      2.85116    0.00000
   63      3.21222    0.00000
   64      3.72051    0.00000
   65      4.15530    0.00000
   66      4.40073    0.00000
   67      4.48131    0.00000
   68      4.95693    0.00000
   69      5.25701    0.00000
   70      5.59557    0.00000
   71      6.02580    0.00000
   72      6.19153    0.00000
   73      6.42691    0.00000
   74      6.64116    0.00000
   75      6.89822    0.00000
   76      7.17183    0.00000
   77      7.40191    0.00000
   78      8.12706    0.00000
   79      8.29747    0.00000
   80      8.48735    0.00000
   81      8.72979    0.00000
   82      8.95566    0.00000
   83      9.15514    0.00000
   84      9.27789    0.00000
   85      9.31105    0.00000
   86      9.39293    0.00000
   87      9.42767    0.00000
   88      9.55416    0.00000
   89      9.68204    0.00000
   90      9.76630    0.00000
   91      9.83747    0.00000
   92     10.01534    0.00000
   93     10.06369    0.00000
   94     10.26416    0.00000
   95     10.32148    0.00000
   96     10.46453    0.00000
   97     10.49014    0.00000


Forces in eV/Ang:
  0 C    -0.01838    0.03930   -0.03656
  1 C     0.08636    0.00481    0.01604
  2 C    -0.02000   -0.00451    0.02745
  3 C     0.06312    0.00527   -0.00199
  4 C     0.00992    0.02956   -0.01148
  5 C    -0.03889    0.01379    0.01996
  6 C     0.00504    0.00634    0.01370
  7 C     0.00890    0.02328   -0.03826
  8 C     0.00032   -0.01389   -0.00319
  9 C    -0.00018    0.01761    0.00292
 10 C     0.02365   -0.01869   -0.02869
 11 C    -0.00983   -0.00581    0.00908
 12 C     0.00758   -0.01739    0.02282
 13 C    -0.00742   -0.01912    0.01870
 14 C    -0.00894   -0.00319    0.00036
 15 C    -0.01457    0.00244    0.00452
 16 C    -0.01457    0.00424    0.02813
 17 C    -0.00450   -0.03995   -0.03710
 18 C    -0.02484    0.02646    0.02695
 19 C     0.03204   -0.01692   -0.02020
 20 C    -0.02026    0.03090    0.01356
 21 C    -0.02533   -0.00881   -0.03016
 22 C    -0.01149   -0.03597    0.01689
 23 C     0.01315   -0.00129   -0.01227

