
  ___ ___ ___ _ _ _  
 |   |   |_  | | | | 
 | | | | | . | | | | 
 |__ |  _|___|_____|  1.3.0b1
 |___|_|             

User:   esb@s65n31.grendel.cscaa.dk
Date:   Thu Nov  9 11:13:10 2017
Arch:   x86_64
Pid:    17589
Python: 2.7.13
gpaw:   /home/esb/DFT/gpaw_git/gpaw
_gpaw:  /home/esb/DFT/gpaw_git/build/bin.linux-x86_64-2.7/gpaw-python
ase:    /home/esb/DFT/ase_git/ase (version 3.15.0b1)
numpy:  /comm/swstack/core/python/2.7.13/lib/python2.7/site-packages/numpy (version 1.13.3)
scipy:  /comm/swstack/core/python/2.7.13/lib/python2.7/site-packages/scipy (version 0.19.1)
units:  Angstrom and eV
cores:  16
Extra parameters: {'blacs': True}

Input parameters:
  basis: dzp
  gpts: [80 80 48]
  kpts: [1 1 1]
  maxiter: 99
  mixer: {backend: pulay,
          beta: 0.05,
          method: separate,
          nmaxold: 5,
          weight: 75}
  mode: lcao
  nbands: -50
  occupations: {name: fermi-dirac,
                width: 0.1}
  poissonsolver: {eps: 1e-07,
                  name: fd,
                  nn: 3,
                  relax: GS}
  xc: PBE

System changes: positions, numbers, cell, pbc, initial_charges, initial_magmoms 

Initialize ...

C-setup:
  name: Carbon
  id: 4aa54d4b901d75f77cc0ea3eec22967b
  Z: 6
  valence: 4
  core: 2
  charge: 0.0
  file: /home/esb/DFT/gpaw-setups-0.8.7929/C.PBE.gz
  cutoffs: 0.64(comp), 1.14(filt), 1.14(core), lmax=2
  valence states:
                energy  radius
    2s(2.00)   -13.751   0.635
    2p(2.00)    -5.284   0.635
    *s          13.461   0.635
    *p          21.927   0.635
    *d           0.000   0.635

  LCAO basis set for C:
    Name: dzp
    File: /home/esb/DFT/gpaw-setups-0.8.7929/C.dzp.basis.gz
    Number of radial functions: 5
    Number of spherical harmonics: 13
      l=0, rc=5.5469 Bohr: 2s-sz confined orbital
      l=1, rc=6.6719 Bohr: 2p-sz confined orbital
      l=0, rc=3.0312 Bohr: 2s-dz split-valence wave
      l=1, rc=3.7500 Bohr: 2p-dz split-valence wave
      l=2, rc=6.6719 Bohr: d-type Gaussian polarization

Reference energy: -24663.074771

Spin-paired calculation

Occupation numbers:
  Fermi-Dirac: width=0.1000 eV

Convergence criteria:
  Maximum total energy change: 0.0005 eV / electron
  Maximum integral of absolute density change: 0.0001 electrons
  Maximum integral of absolute eigenstate change: 4e-08 eV^2
  Maximum number of iterations: 99

Symmetries present (total): 1

  ( 1  0  0)
  ( 0  1  0)
  ( 0  0  1)

1 k-point (Gamma)
1 k-point in the irreducible part of the Brillouin zone
       k-points in crystal coordinates                weights
   0:     0.00000000    0.00000000    0.00000000          1/1

Wave functions: LCAO
  Diagonalizer: Serial LAPACK
  Atomic Correction: dense with blas
  Datatype: float
  Eigensolver: None 

LCAO using direct dense diagonalizer 

Densities:
  Coarse grid: 80*80*48 grid
  Fine grid: 160*160*96 grid
  Total Charge: 0.000000 

Density mixing:
  Method: separate
  Backend: pulay
  Linear mixing parameter: 0.05
  Mixing with 5 old densities
  Damping of long wave oscillations: 75 

Hamiltonian:
  XC and Coulomb potentials evaluated on a 160*160*96 grid
  Using the PBE Exchange-Correlation functional
  Interpolation: tri-quintic (5. degree polynomial)
  Poisson solver: Gauss-Seidel solver with 6 multi-grid levels
    Coarsest grid: 5 x 5 x 3 points
    Stencil: 6*3+1=19 point O(h^6) finite-difference Laplacian
    Max iterations: 1000
    Tolerance: 1.000000e-07 

Memory estimate:
  Process memory now: 77.56 MiB
  Calculator: 15.59 MiB
    Density: 6.13 MiB
      Arrays: 3.81 MiB
      Localized functions: 0.86 MiB
      Mixer: 1.46 MiB
    Hamiltonian: 5.40 MiB
      Arrays: 2.49 MiB
      XC: 0.00 MiB
      Poisson: 2.85 MiB
      vbar: 0.07 MiB
    Wavefunctions: 4.05 MiB
      C [qnM]: 0.23 MiB
      S, T [2 x qmm]: 1.49 MiB
      P [aqMi]: 0.01 MiB
      TCI: 0.00 MiB
      BasisFunctions: 2.33 MiB
      Eigensolver: 0.00 MiB

Total number of cores used: 16
Domain decomposition: 2 x 4 x 2

Number of atoms: 24
Number of atomic orbitals: 312
Number of bands in calculation: 98
Bands to converge: occupied states only
Number of valence electrons: 96

... initialized

Initializing position-dependent things.

Density initialized from atomic densities
           .--------------------------------------.  
          /|                                      |  
         / |                                      |  
        /  |                                      |  
       /   |                                      |  
      /    |                                      |  
     /     |                                      |  
    /      |                                      |  
   /       |                                      |  
  /        |     C  C  C C                        |  
 *         |    C         C    C                  |  
 |         |     C C  C  C        C               |  
 |         C-----------C----------C---------------.  
 |        /C                C  C                 /   
 |       /   C  C   C              C            /    
 |      /             C   C                    /     
 |     /                                      /      
 |    /                                      /       
 |   /                                      /        
 |  /                                      /         
 | /                                      /          
 |/                                      /           
 *--------------------------------------*            

Positions:
   0 C      9.973854    9.361838    5.266605
   1 C      2.546639    6.112033    5.472372
   2 C     11.109510    8.736560    4.813124
   3 C      7.755534    3.983360    4.009813
   4 C      8.952012    4.366534    3.928409
   5 C      5.237694    4.324388    4.471930
   6 C      6.585516    4.702559    4.423678
   7 C     12.237015    6.343361    3.754586
   8 C      3.996697    4.330604    4.665500
   9 C      9.508981    5.654185    4.253378
  10 C     10.816857    6.227426    4.128124
  11 C      2.860389    4.956718    5.051592
  12 C     11.465383    7.421036    4.331556
  13 C      3.768232   11.167211    4.941976
  14 C      6.704463    7.641744    4.846146
  15 C      7.328004    6.296022    4.857131
  16 C      5.356259    7.954801    4.904032
  17 C      3.669239    9.889271    4.986511
  18 C      7.592231   10.028324    4.760504
  19 C      7.766382    8.661297    4.790218
  20 C      6.032913   12.054091    4.818448
  21 C      4.754116   12.072949    4.918193
  22 C      4.369973    8.753078    4.938765
  23 C      7.031688   11.163748    4.790239

Unit cell:
           periodic     x           y           z      points  spacing
  1. axis:    yes   16.000000    0.000000    0.000000    80     0.2000
  2. axis:    yes    0.000000   16.000000    0.000000    80     0.2000
  3. axis:    yes    0.000000    0.000000   10.000000    48     0.2083

Effective grid spacing dv^(1/3) = 0.2027

                     log10-error:    total        iterations:
           time      wfs    density  energy       fermi  poisson
iter:   1  11:13:12          +inf  -175.171030    3      6      
iter:   2  11:13:13         -0.88  -173.675590    3      3      
iter:   3  11:13:13         -0.92  -171.251654    32     3      
iter:   4  11:13:14         -1.04  -170.868098    3      2      
iter:   5  11:13:14         -1.08  -169.897957    35     4      
iter:   6  11:13:15         -1.32  -169.854361    34     3      
iter:   7  11:13:15         -1.52  -169.798813    3      2      
iter:   8  11:13:16         -1.66  -169.724577    3      3      
iter:   9  11:13:16         -1.79  -169.696272    3      2      
iter:  10  11:13:17         -1.93  -169.674768    3      3      
iter:  11  11:13:17         -2.11  -169.664234    3      2      
iter:  12  11:13:18         -2.20  -169.665737    3      2      
iter:  13  11:13:18         -2.47  -169.659362    3      2      
iter:  14  11:13:19         -2.78  -169.653566    3      2      
iter:  15  11:13:19         -2.93  -169.666410    3      1      
iter:  16  11:13:20         -3.03  -169.654027    2      1      
iter:  17  11:13:20         -3.22  -169.645536    2      1      
iter:  18  11:13:21         -3.42  -169.652389    2      1      
iter:  19  11:13:21         -3.57  -169.646998    2      1      
iter:  20  11:13:22         -3.70  -169.648115    2      1      
iter:  21  11:13:22         -3.81  -169.651582    2      1      
iter:  22  11:13:22         -3.90  -169.648745    2      1      
iter:  23  11:13:23         -4.12  -169.650398    2      1      

Converged after 23 iterations.

Dipole moment: (-0.055260, 0.302464, -0.220495) |e|*Ang

Energy contributions relative to reference atoms: (reference = -24663.074771)

Kinetic:        +73.139170
Potential:      -88.718505
External:        +0.000000
XC:            -156.817633
Entropy (-ST):   -0.428742
Local:           +2.960941
--------------------------
Free energy:   -169.864768
Extrapolated:  -169.650398

Fermi level: -4.85798

 Band  Eigenvalues  Occupancy
    0    -22.89901    2.00000
    1    -21.43704    2.00000
    2    -21.04177    2.00000
    3    -20.71351    2.00000
    4    -20.30242    2.00000
    5    -19.95723    2.00000
    6    -19.06350    2.00000
    7    -18.64316    2.00000
    8    -18.52025    2.00000
    9    -18.10957    2.00000
   10    -17.62165    2.00000
   11    -17.08327    2.00000
   12    -16.56692    2.00000
   13    -16.20280    2.00000
   14    -15.15457    2.00000
   15    -14.41689    2.00000
   16    -14.25145    2.00000
   17    -13.99537    2.00000
   18    -13.63708    2.00000
   19    -13.35658    2.00000
   20    -12.73396    2.00000
   21    -12.47509    2.00000
   22    -10.99893    2.00000
   23    -10.57101    2.00000
   24     -9.90924    2.00000
   25     -9.79085    2.00000
   26     -9.71931    2.00000
   27     -9.29246    2.00000
   28     -9.19009    2.00000
   29     -8.91863    2.00000
   30     -8.80556    2.00000
   31     -8.66169    2.00000
   32     -8.35523    2.00000
   33     -8.19442    2.00000
   34     -8.01136    2.00000
   35     -7.81997    2.00000
   36     -6.97420    2.00000
   37     -6.97002    2.00000
   38     -6.66626    2.00000
   39     -6.47351    2.00000
   40     -6.36996    2.00000
   41     -6.25000    2.00000
   42     -6.03681    1.99998
   43     -5.78675    1.99981
   44     -5.30407    1.97716
   45     -5.11382    1.85628
   46     -5.10408    1.84273
   47     -4.96204    1.47794
   48     -4.77814    0.62074
   49     -4.65152    0.22517
   50     -3.92729    0.00018
   51     -3.46308    0.00000
   52     -2.89688    0.00000
   53     -2.75121    0.00000
   54     -2.49274    0.00000
   55     -2.38223    0.00000
   56     -1.96933    0.00000
   57     -1.81902    0.00000
   58     -1.46156    0.00000
   59     -0.99643    0.00000
   60     -0.88618    0.00000
   61     -0.61091    0.00000
   62     -0.12230    0.00000
   63      0.05434    0.00000
   64      0.38167    0.00000
   65      1.58695    0.00000
   66      1.85079    0.00000
   67      2.19396    0.00000
   68      2.52151    0.00000
   69      2.68307    0.00000
   70      3.68294    0.00000
   71      4.22640    0.00000
   72      4.48296    0.00000
   73      4.94550    0.00000
   74      5.35253    0.00000
   75      5.53143    0.00000
   76      5.96389    0.00000
   77      6.75373    0.00000
   78      6.98109    0.00000
   79      7.45632    0.00000
   80      7.70050    0.00000
   81      8.06525    0.00000
   82      8.24931    0.00000
   83      8.52930    0.00000
   84      8.57951    0.00000
   85      8.66598    0.00000
   86      8.88771    0.00000
   87      9.00746    0.00000
   88      9.12032    0.00000
   89      9.25647    0.00000
   90      9.40597    0.00000
   91      9.43594    0.00000
   92      9.58657    0.00000
   93      9.62863    0.00000
   94      9.78705    0.00000
   95      9.93739    0.00000
   96     10.03026    0.00000
   97     10.13915    0.00000


Forces in eV/Ang:
  0 C     2.61865   -1.16032   -0.84091
  1 C    -1.45056    2.42858    1.02792
  2 C    -3.17768   -1.47226    0.08603
  3 C    -3.27489    0.25986    0.53474
  4 C     2.67717    4.11807    0.82570
  5 C     3.06243    0.61683   -0.18528
  6 C     1.06655   -0.37475   -0.23208
  7 C    -1.10741    0.45588    0.65790
  8 C    -0.99399    1.21615    0.57503
  9 C     0.12188   -2.63931   -0.93401
 10 C    -2.77913   -2.37784   -0.18027
 11 C     0.88754   -2.68606   -1.07255
 12 C     1.44277    3.92234    0.66566
 13 C     0.11360   -0.18492   -0.02542
 14 C     2.31872   -2.25970   -0.01598
 15 C    -0.78862   -0.40904   -1.04312
 16 C    -0.83200    0.02240   -0.01682
 17 C    -0.19417    0.16900    0.02029
 18 C     0.51895   -3.01420   -0.07408
 19 C     0.05960    2.17304    0.16929
 20 C     0.64058   -0.56890   -0.11398
 21 C    -0.46077    0.21532    0.09167
 22 C     0.19573   -0.16686   -0.02351
 23 C    -0.69894    1.74463    0.04615

System changes: positions 

Initializing position-dependent things.

Density initialized from wave functions
           .--------------------------------------.  
          /|                                      |  
         / |                                      |  
        /  |                                      |  
       /   |                                      |  
      /    |                                      |  
     /     |                                      |  
    /      |                                      |  
   /       |                                      |  
  /        |     C  C  C C                        |  
 *         |    C         C    C                  |  
 |         |     C C  C  C       C                |  
 |         C-----------C----------C---------------.  
 |        /C                C  C                 /   
 |       /   C   C  C              C            /    
 |      /             C   C                    /     
 |     /                                      /      
 |    /                                      /       
 |   /                                      /        
 |  /                                      /         
 | /                                      /          
 |/                                      /           
 *--------------------------------------*            

Positions:
   0 C      9.994884    9.352519    5.259852
   1 C      2.534990    6.131537    5.480628
   2 C     11.083990    8.724736    4.813814
   3 C      7.729233    3.985447    4.014107
   4 C      8.973512    4.399606    3.935041
   5 C      5.262288    4.329342    4.470442
   6 C      6.594082    4.699550    4.421814
   7 C     12.228121    6.347022    3.759870
   8 C      3.988714    4.340371    4.670118
   9 C      9.509960    5.632989    4.245877
  10 C     10.794537    6.208329    4.126676
  11 C      2.867517    4.935147    5.042978
  12 C     11.476970    7.452536    4.336902
  13 C      3.769144   11.165726    4.941772
  14 C      6.723085    7.623597    4.846018
  15 C      7.321671    6.292737    4.848754
  16 C      5.349577    7.954981    4.903896
  17 C      3.667679    9.890628    4.986674
  18 C      7.596399   10.004117    4.759909
  19 C      7.766861    8.678749    4.791577
  20 C      6.038057   12.049522    4.817533
  21 C      4.750415   12.074679    4.918929
  22 C      4.371545    8.751738    4.938576
  23 C      7.026075   11.177759    4.790610

Unit cell:
           periodic     x           y           z      points  spacing
  1. axis:    yes   16.000000    0.000000    0.000000    80     0.2000
  2. axis:    yes    0.000000   16.000000    0.000000    80     0.2000
  3. axis:    yes    0.000000    0.000000   10.000000    48     0.2083

Effective grid spacing dv^(1/3) = 0.2027

                     log10-error:    total        iterations:
           time      wfs    density  energy       fermi  poisson
iter:   1  11:13:24          +inf  -170.927494    31     5      
iter:   2  11:13:25         -1.56  -170.571523    3      2      
iter:   3  11:13:25         -1.88  -170.497959    3      2      
iter:   4  11:13:26         -2.03  -170.463409    3      2      
iter:   5  11:13:26         -2.16  -170.444968    3      2      
iter:   6  11:13:27         -2.33  -170.451604    2      2      
iter:   7  11:13:27         -2.45  -170.445265    2      2      
iter:   8  11:13:28         -2.68  -170.442442    2      2      
iter:   9  11:13:28         -2.91  -170.442979    2      1      
iter:  10  11:13:29         -2.97  -170.442748    2      2      
iter:  11  11:13:29         -3.25  -170.442455    2      1      
iter:  12  11:13:30         -3.32  -170.442777    2      1      
iter:  13  11:13:30         -3.53  -170.442553    2      1      
iter:  14  11:13:31         -3.61  -170.442257    2      1      
iter:  15  11:13:31         -3.90  -170.442476    2      1      
iter:  16  11:13:32         -4.09  -170.442331    2      1      

Converged after 16 iterations.

Dipole moment: (-0.103878, 0.296264, -0.215712) |e|*Ang

Energy contributions relative to reference atoms: (reference = -24663.074771)

Kinetic:        +70.582685
Potential:      -87.071303
External:        +0.000000
XC:            -156.669115
Entropy (-ST):   -0.406451
Local:           +2.918627
--------------------------
Free energy:   -170.645557
Extrapolated:  -170.442331

Fermi level: -4.78924

 Band  Eigenvalues  Occupancy
    0    -22.50055    2.00000
    1    -21.41072    2.00000
    2    -21.03245    2.00000
    3    -20.69140    2.00000
    4    -20.28502    2.00000
    5    -19.92688    2.00000
    6    -19.04255    2.00000
    7    -18.80882    2.00000
    8    -18.59518    2.00000
    9    -18.28614    2.00000
   10    -17.58596    2.00000
   11    -17.14771    2.00000
   12    -16.44106    2.00000
   13    -16.09279    2.00000
   14    -15.13577    2.00000
   15    -14.62940    2.00000
   16    -14.42345    2.00000
   17    -13.94612    2.00000
   18    -13.68518    2.00000
   19    -13.41932    2.00000
   20    -12.70647    2.00000
   21    -12.42879    2.00000
   22    -10.95031    2.00000
   23    -10.53628    2.00000
   24     -9.88488    2.00000
   25     -9.72238    2.00000
   26     -9.68394    2.00000
   27     -9.30640    2.00000
   28     -9.23526    2.00000
   29     -8.88348    2.00000
   30     -8.80391    2.00000
   31     -8.66921    2.00000
   32     -8.33838    2.00000
   33     -8.16010    2.00000
   34     -8.03672    2.00000
   35     -7.83883    2.00000
   36     -7.01281    2.00000
   37     -6.92557    2.00000
   38     -6.74619    2.00000
   39     -6.40407    2.00000
   40     -6.34888    2.00000
   41     -6.26418    2.00000
   42     -6.06464    1.99999
   43     -5.88659    1.99997
   44     -5.17249    1.95761
   45     -5.07864    1.89510
   46     -5.03740    1.84569
   47     -4.91335    1.55154
   48     -4.69059    0.54322
   49     -4.57293    0.20624
   50     -3.98606    0.00065
   51     -3.41873    0.00000
   52     -2.82606    0.00000
   53     -2.72063    0.00000
   54     -2.37092    0.00000
   55     -2.30016    0.00000
   56     -1.95807    0.00000
   57     -1.83982    0.00000
   58     -1.58532    0.00000
   59     -1.11284    0.00000
   60     -0.99215    0.00000
   61     -0.55751    0.00000
   62     -0.19450    0.00000
   63      0.05331    0.00000
   64      0.38846    0.00000
   65      1.62329    0.00000
   66      2.00843    0.00000
   67      2.23888    0.00000
   68      2.61493    0.00000
   69      2.65090    0.00000
   70      3.57718    0.00000
   71      4.11912    0.00000
   72      4.50144    0.00000
   73      4.92661    0.00000
   74      5.43300    0.00000
   75      5.88089    0.00000
   76      5.96765    0.00000
   77      6.72334    0.00000
   78      7.03524    0.00000
   79      7.51704    0.00000
   80      7.77915    0.00000
   81      8.08122    0.00000
   82      8.29471    0.00000
   83      8.50185    0.00000
   84      8.65922    0.00000
   85      8.69784    0.00000
   86      8.93093    0.00000
   87      9.06325    0.00000
   88      9.16842    0.00000
   89      9.21523    0.00000
   90      9.43448    0.00000
   91      9.49311    0.00000
   92      9.58803    0.00000
   93      9.65668    0.00000
   94      9.90611    0.00000
   95      9.95603    0.00000
   96     10.08670    0.00000
   97     10.28320    0.00000


Forces in eV/Ang:
  0 C     1.40474   -0.37630   -0.26648
  1 C    -0.70823   -0.25462    0.03537
  2 C    -1.96588   -1.55021   -0.18091
  3 C     0.81361    0.60510   -0.05803
  4 C    -1.30284    1.71951    0.73733
  5 C     0.17988    0.54178    0.21889
  6 C     0.70973   -0.04244   -0.07056
  7 C    -1.72783    0.75177    0.93558
  8 C     2.27343    0.64950   -0.11441
  9 C     0.60617   -1.45334   -0.62270
 10 C    -0.66114   -0.34290   -0.08873
 11 C    -0.96290    0.54893    0.28820
 12 C     0.65956    1.06819   -0.00416
 13 C     0.29630    0.09370   -0.03505
 14 C     1.16365   -1.47479   -0.04682
 15 C    -0.52804   -0.23227   -0.85737
 16 C     0.42826   -0.61309   -0.08217
 17 C    -0.18986   -0.19599    0.02546
 18 C    -0.58087    0.14271   -0.06809
 19 C    -0.09339    0.64848    0.19468
 20 C    -0.04818   -0.28031   -0.06920
 21 C    -0.38307    0.29455    0.07237
 22 C    -0.16319    0.23378    0.00541
 23 C     0.77187   -0.59642   -0.02619

System changes: positions 

Initializing position-dependent things.

Density initialized from wave functions
           .--------------------------------------.  
          /|                                      |  
         / |                                      |  
        /  |                                      |  
       /   |                                      |  
      /    |                                      |  
     /     |                                      |  
    /      |                                      |  
   /       |                                      |  
  /        |     C  C  C C                        |  
 *         |    C         C    C                  |  
 |         |     C C  C  C       C                |  
 |         C-----------C----------C---------------.  
 |        /C                C  C   C             /   
 |       /    C  C  C     C                     /    
 |      /             C                        /     
 |     /                                      /      
 |    /                                      /       
 |   /                                      /        
 |  /                                      /         
 | /                                      /          
 |/                                      /           
 *--------------------------------------*            

Positions:
   0 C     10.018789    9.345132    5.254580
   1 C      2.522658    6.133424    5.483291
   2 C     11.051580    8.701394    4.811643
   3 C      7.732812    3.993884    4.014497
   4 C      8.962282    4.430823    3.946412
   5 C      5.271192    4.337719    4.472895
   6 C      6.605610    4.698194    4.420398
   7 C     12.203247    6.357789    3.773464
   8 C      4.016191    4.351435    4.669860
   9 C      9.518115    5.608407    4.235766
  10 C     10.779973    6.198769    4.125134
  11 C      2.856879    4.936540    5.044433
  12 C     11.488651    7.474851    4.338274
  13 C      3.773246   11.166550    4.941261
  14 C      6.743207    7.599549    4.845374
  15 C      7.313105    6.288836    4.835354
  16 C      5.353372    7.947045    4.902790
  17 C      3.664791    9.888438    4.987049
  18 C      7.589947    9.999517    4.758864
  19 C      7.765772    8.691850    4.794475
  20 C      6.038802   12.044653    4.816387
  21 C      4.744439   12.078976    4.920068
  22 C      4.369840    8.754425    4.938596
  23 C      7.034629   11.173730    4.790368

Unit cell:
           periodic     x           y           z      points  spacing
  1. axis:    yes   16.000000    0.000000    0.000000    80     0.2000
  2. axis:    yes    0.000000   16.000000    0.000000    80     0.2000
  3. axis:    yes    0.000000    0.000000   10.000000    48     0.2083

Effective grid spacing dv^(1/3) = 0.2027

                     log10-error:    total        iterations:
           time      wfs    density  energy       fermi  poisson
iter:   1  11:13:33          +inf  -171.628605    4      5      
iter:   2  11:13:34         -1.45  -171.016840    3      2      
iter:   3  11:13:34         -1.85  -170.908514    3      2      
iter:   4  11:13:34         -2.05  -170.884025    2      2      
iter:   5  11:13:35         -2.17  -170.859441    2      2      
iter:   6  11:13:35         -2.38  -170.857476    3      2      
iter:   7  11:13:36         -2.51  -170.856013    3      2      
iter:   8  11:13:36         -2.62  -170.854592    3      2      
iter:   9  11:13:37         -2.77  -170.853516    3      2      
iter:  10  11:13:37         -2.98  -170.853878    2      2      
iter:  11  11:13:38         -3.22  -170.853181    2      1      
iter:  12  11:13:38         -3.38  -170.855148    2      1      
iter:  13  11:13:39         -3.56  -170.855282    2      1      
iter:  14  11:13:39         -3.60  -170.855458    2      1      
iter:  15  11:13:40         -3.85  -170.855415    2      1      
iter:  16  11:13:40         -4.02  -170.854453    2      1      

Converged after 16 iterations.

Dipole moment: (0.031930, 0.312831, -0.236503) |e|*Ang

Energy contributions relative to reference atoms: (reference = -24663.074771)

Kinetic:        +77.418209
Potential:      -92.462865
External:        +0.000000
XC:            -158.584622
Entropy (-ST):   -0.385282
Local:           +2.967467
--------------------------
Free energy:   -171.047093
Extrapolated:  -170.854453

Fermi level: -4.78504

 Band  Eigenvalues  Occupancy
    0    -22.53966    2.00000
    1    -21.40581    2.00000
    2    -21.09756    2.00000
    3    -20.74843    2.00000
    4    -20.28052    2.00000
    5    -19.90776    2.00000
    6    -19.11666    2.00000
    7    -18.87982    2.00000
    8    -18.62698    2.00000
    9    -18.46394    2.00000
   10    -17.65839    2.00000
   11    -17.22212    2.00000
   12    -16.49120    2.00000
   13    -16.08556    2.00000
   14    -15.13973    2.00000
   15    -14.96157    2.00000
   16    -14.47067    2.00000
   17    -13.92262    2.00000
   18    -13.68991    2.00000
   19    -13.43133    2.00000
   20    -12.68305    2.00000
   21    -12.47607    2.00000
   22    -11.01974    2.00000
   23    -10.56550    2.00000
   24     -9.90028    2.00000
   25     -9.77338    2.00000
   26     -9.72706    2.00000
   27     -9.54766    2.00000
   28     -9.27786    2.00000
   29     -8.90288    2.00000
   30     -8.80280    2.00000
   31     -8.70211    2.00000
   32     -8.29961    2.00000
   33     -8.17450    2.00000
   34     -8.09517    2.00000
   35     -7.80277    2.00000
   36     -7.09577    2.00000
   37     -6.94160    2.00000
   38     -6.81664    2.00000
   39     -6.41828    2.00000
   40     -6.33987    2.00000
   41     -6.20369    2.00000
   42     -6.12749    2.00000
   43     -5.85194    1.99995
   44     -5.13266    1.94001
   45     -5.07722    1.89782
   46     -5.04827    1.86582
   47     -4.93367    1.63104
   48     -4.66788    0.47312
   49     -4.56062    0.19170
   50     -3.96486    0.00055
   51     -3.43003    0.00000
   52     -2.82036    0.00000
   53     -2.69795    0.00000
   54     -2.32838    0.00000
   55     -2.14734    0.00000
   56     -1.97888    0.00000
   57     -1.75996    0.00000
   58     -1.42243    0.00000
   59     -1.07417    0.00000
   60     -0.98797    0.00000
   61     -0.46188    0.00000
   62     -0.15892    0.00000
   63      0.21555    0.00000
   64      0.48230    0.00000
   65      1.63820    0.00000
   66      2.29863    0.00000
   67      2.35428    0.00000
   68      2.64198    0.00000
   69      2.82816    0.00000
   70      3.50450    0.00000
   71      4.19149    0.00000
   72      4.64351    0.00000
   73      4.89105    0.00000
   74      5.44840    0.00000
   75      5.98340    0.00000
   76      6.06804    0.00000
   77      6.75113    0.00000
   78      7.07064    0.00000
   79      7.57259    0.00000
   80      7.86321    0.00000
   81      8.00828    0.00000
   82      8.26569    0.00000
   83      8.52558    0.00000
   84      8.63542    0.00000
   85      8.67556    0.00000
   86      8.97849    0.00000
   87      9.05840    0.00000
   88      9.15714    0.00000
   89      9.23713    0.00000
   90      9.43206    0.00000
   91      9.49142    0.00000
   92      9.58886    0.00000
   93      9.65564    0.00000
   94      9.94236    0.00000
   95      9.97895    0.00000
   96     10.08155    0.00000
   97     10.27914    0.00000


Forces in eV/Ang:
  0 C    -0.25341    0.52540    0.36142
  1 C    -0.61840   -0.43757   -0.03348
  2 C    -0.51439   -1.64887   -0.51903
  3 C     0.51504    0.10704   -0.15866
  4 C    -1.58458    0.25592    0.32466
  5 C     1.04779    0.51855    0.08421
  6 C     0.66529    0.25465    0.00256
  7 C    -1.50935    0.67458    0.84291
  8 C    -0.02626    1.18757    0.41584
  9 C     1.32373    0.21317   -0.19254
 10 C     0.03102    0.23493   -0.08148
 11 C     0.21767    0.13139   -0.06510
 12 C     0.27061   -0.31783   -0.31381
 13 C     0.16736   -0.24120   -0.01309
 14 C     0.19542   -0.34145   -0.04072
 15 C    -0.24290   -0.67485   -0.71552
 16 C     0.28537   -0.37231   -0.09275
 17 C    -0.29119    0.07280    0.02271
 18 C    -0.51633    0.39497   -0.07488
 19 C     0.01401   -0.28536    0.23604
 20 C    -0.10495   -0.53297   -0.03619
 21 C     0.16379    0.44045    0.02449
 22 C     0.60997   -0.36633   -0.01925
 23 C     0.19168    0.13108   -0.02194

System changes: positions 

Initializing position-dependent things.

Density initialized from wave functions
           .--------------------------------------.  
          /|                                      |  
         / |                                      |  
        /  |                                      |  
       /   |                                      |  
      /    |                                      |  
     /     |                                      |  
    /      |                                      |  
   /       |                                      |  
  /        |     C  C  C C                        |  
 *         |    C         C    C                  |  
 |         |     C C  C  C       C                |  
 |         C-----------C----------C---------------.  
 |        /C                C  C   C             /   
 |       /    C  C  C     C                     /    
 |      /             C                        /     
 |     /                                      /      
 |    /                                      /       
 |   /                                      /        
 |  /                                      /         
 | /                                      /          
 |/                                      /           
 *--------------------------------------*            

Positions:
   0 C     10.027757    9.347722    5.256236
   1 C      2.508196    6.131476    5.485135
   2 C     11.028760    8.669396    4.804202
   3 C      7.736774    3.998772    4.013251
   4 C      8.940829    4.451009    3.955929
   5 C      5.291932    4.348363    4.474681
   6 C      6.619901    4.700520    4.419609
   7 C     12.172934    6.371157    3.790329
   8 C      4.024966    4.372509    4.675868
   9 C      9.538501    5.598636    4.228302
  10 C     10.771440    6.195263    4.123273
  11 C      2.856795    4.935435    5.042807
  12 C     11.498350    7.484003    4.335548
  13 C      3.777102   11.163504    4.940868
  14 C      6.756197    7.583260    4.844584
  15 C      7.305750    6.278109    4.819735
  16 C      5.357469    7.939256    4.901150
  17 C      3.659686    9.888767    4.987510
  18 C      7.581466    9.999165    4.757407
  19 C      7.765618    8.695781    4.798837
  20 C      6.038517   12.035202    4.815345
  21 C      4.743740   12.086572    4.920929
  22 C      4.377349    8.750480    4.938325
  23 C      7.039469   11.176077    4.790049

Unit cell:
           periodic     x           y           z      points  spacing
  1. axis:    yes   16.000000    0.000000    0.000000    80     0.2000
  2. axis:    yes    0.000000   16.000000    0.000000    80     0.2000
  3. axis:    yes    0.000000    0.000000   10.000000    48     0.2083

Effective grid spacing dv^(1/3) = 0.2027

                     log10-error:    total        iterations:
           time      wfs    density  energy       fermi  poisson
iter:   1  11:13:42          +inf  -171.702469    3      5      
iter:   2  11:13:42         -1.55  -171.227184    2      2      
iter:   3  11:13:43         -1.95  -171.162230    3      2      
iter:   4  11:13:43         -2.20  -171.153324    2      2      
iter:   5  11:13:44         -2.32  -171.142686    2      2      
iter:   6  11:13:44         -2.48  -171.138324    2      2      
iter:   7  11:13:45         -2.61  -171.136128    3      2      
iter:   8  11:13:45         -2.83  -171.131352    2      1      
iter:   9  11:13:46         -2.95  -171.136096    2      2      
iter:  10  11:13:46         -3.18  -171.134216    2      1      
iter:  11  11:13:46         -3.34  -171.133837    2      1      
iter:  12  11:13:47         -3.56  -171.136833    2      1      
iter:  13  11:13:47         -3.66  -171.136896    2      1      
iter:  14  11:13:48         -3.79  -171.136287    2      1      
iter:  15  11:13:48         -4.00  -171.136544    2      1      

Converged after 15 iterations.

Dipole moment: (0.089272, 0.301848, -0.244177) |e|*Ang

Energy contributions relative to reference atoms: (reference = -24663.074771)

Kinetic:        +84.142417
Potential:      -97.749204
External:        +0.000000
XC:            -160.334655
Entropy (-ST):   -0.348087
Local:           +2.978942
--------------------------
Free energy:   -171.310587
Extrapolated:  -171.136544

Fermi level: -4.76840

 Band  Eigenvalues  Occupancy
    0    -22.79882    2.00000
    1    -21.38459    2.00000
    2    -21.14740    2.00000
    3    -20.74494    2.00000
    4    -20.25367    2.00000
    5    -19.91654    2.00000
    6    -19.13985    2.00000
    7    -18.95261    2.00000
    8    -18.70931    2.00000
    9    -18.47187    2.00000
   10    -17.76355    2.00000
   11    -17.24509    2.00000
   12    -16.52909    2.00000
   13    -16.01847    2.00000
   14    -15.21302    2.00000
   15    -15.13460    2.00000
   16    -14.60695    2.00000
   17    -13.92891    2.00000
   18    -13.68405    2.00000
   19    -13.43266    2.00000
   20    -12.64026    2.00000
   21    -12.50513    2.00000
   22    -11.08873    2.00000
   23    -10.63712    2.00000
   24     -9.97790    2.00000
   25     -9.87450    2.00000
   26     -9.81153    2.00000
   27     -9.69054    2.00000
   28     -9.33121    2.00000
   29     -8.89690    2.00000
   30     -8.77559    2.00000
   31     -8.68366    2.00000
   32     -8.28905    2.00000
   33     -8.20338    2.00000
   34     -8.08657    2.00000
   35     -7.79899    2.00000
   36     -7.15300    2.00000
   37     -6.93329    2.00000
   38     -6.83923    2.00000
   39     -6.41261    2.00000
   40     -6.34449    2.00000
   41     -6.16201    2.00000
   42     -6.13420    2.00000
   43     -5.85942    1.99996
   44     -5.11353    1.93854
   45     -5.09188    1.92425
   46     -5.05943    1.89671
   47     -4.93220    1.67451
   48     -4.62532    0.38595
   49     -4.53692    0.17981
   50     -3.88077    0.00028
   51     -3.46860    0.00000
   52     -2.78459    0.00000
   53     -2.65141    0.00000
   54     -2.27315    0.00000
   55     -2.03196    0.00000
   56     -1.92605    0.00000
   57     -1.68441    0.00000
   58     -1.41152    0.00000
   59     -1.06434    0.00000
   60     -0.94948    0.00000
   61     -0.44379    0.00000
   62     -0.11905    0.00000
   63      0.32572    0.00000
   64      0.54138    0.00000
   65      1.67036    0.00000
   66      2.47507    0.00000
   67      2.51972    0.00000
   68      2.70670    0.00000
   69      2.98191    0.00000
   70      3.53633    0.00000
   71      4.22186    0.00000
   72      4.87470    0.00000
   73      4.99845    0.00000
   74      5.50002    0.00000
   75      6.09002    0.00000
   76      6.17408    0.00000
   77      6.79010    0.00000
   78      7.06594    0.00000
   79      7.60679    0.00000
   80      7.90884    0.00000
   81      7.95443    0.00000
   82      8.23142    0.00000
   83      8.54263    0.00000
   84      8.63596    0.00000
   85      8.67525    0.00000
   86      9.00803    0.00000
   87      9.04985    0.00000
   88      9.18779    0.00000
   89      9.24982    0.00000
   90      9.43335    0.00000
   91      9.49434    0.00000
   92      9.59697    0.00000
   93      9.69398    0.00000
   94      9.97340    0.00000
   95      9.99655    0.00000
   96     10.10710    0.00000
   97     10.24996    0.00000


Forces in eV/Ang:
  0 C    -0.55031    0.68947    0.44364
  1 C    -0.59410   -0.58287   -0.07236
  2 C    -0.52006   -0.92493   -0.29535
  3 C     0.03805   -0.60741   -0.29473
  4 C    -0.77918    0.07232    0.11961
  5 C    -0.12519    0.47817    0.25621
  6 C     0.48197    0.64604    0.14717
  7 C    -0.76131    0.21918    0.51009
  8 C     0.81167    1.08826    0.24962
  9 C     1.11151    0.60460   -0.00261
 10 C     0.13877    0.06252   -0.14272
 11 C     0.18124    0.33190    0.01840
 12 C     0.13901   -0.52822   -0.33675
 13 C     0.32795   -0.13671   -0.02008
 14 C    -0.26214    0.23621   -0.06026
 15 C    -0.11838   -0.73355   -0.55676
 16 C     0.38117   -0.37247   -0.10019
 17 C    -0.09446   -0.36632    0.00828
 18 C    -0.45333    0.23233   -0.04853
 19 C     0.06696   -0.60570    0.22387
 20 C    -0.34237   -0.47708   -0.02324
 21 C     0.12499    0.44193    0.01704
 22 C     0.45699   -0.07613    0.00764
 23 C     0.23006    0.24088   -0.03306

System changes: positions 

Initializing position-dependent things.

Density initialized from wave functions
           .--------------------------------------.  
          /|                                      |  
         / |                                      |  
        /  |                                      |  
       /   |                                      |  
      /    |                                      |  
     /     |                                      |  
    /      |                                      |  
   /       |                                      |  
  /        |     C  C  C C                        |  
 *         |    C         C    C                  |  
 |         |     C C  C  C       C                |  
 |         C-----------C----------C---------------.  
 |        /C                C  C   C             /   
 |       /    C  C  C     C                     /    
 |      /             C                        /     
 |     /                                      /      
 |    /                                      /       
 |   /                                      /        
 |  /                                      /         
 | /                                      /          
 |/                                      /           
 *--------------------------------------*            

Positions:
   0 C     10.031459    9.355100    5.260736
   1 C      2.490725    6.126260    5.486624
   2 C     11.003023    8.639535    4.797425
   3 C      7.734899    3.993787    4.009479
   4 C      8.924452    4.470565    3.964115
   5 C      5.302340    4.361043    4.479175
   6 C      6.635021    4.709624    4.420849
   7 C     12.146046    6.381259    3.806526
   8 C      4.044047    4.398374    4.681906
   9 C      9.562369    5.595294    4.222531
  10 C     10.763891    6.189770    4.120097
  11 C      2.858133    4.936571    5.041486
  12 C     11.507763    7.489461    4.331141
  13 C      3.784002   11.160598    4.940315
  14 C      6.763933    7.573375    4.843323
  15 C      7.298902    6.263051    4.802763
  16 C      5.363862    7.929880    4.898964
  17 C      3.655926    9.883356    4.987875
  18 C      7.571734    9.997296    4.755950
  19 C      7.766363    8.694166    4.804199
  20 C      6.034568   12.023749    4.814295
  21 C      4.743346   12.096377    4.921806
  22 C      4.385952    8.748625    4.938328
  23 C      7.045181   11.181630    4.789490

Unit cell:
           periodic     x           y           z      points  spacing
  1. axis:    yes   16.000000    0.000000    0.000000    80     0.2000
  2. axis:    yes    0.000000   16.000000    0.000000    80     0.2000
  3. axis:    yes    0.000000    0.000000   10.000000    48     0.2083

Effective grid spacing dv^(1/3) = 0.2027

                     log10-error:    total        iterations:
           time      wfs    density  energy       fermi  poisson
iter:   1  11:13:50          +inf  -171.740813    3      5      
iter:   2  11:13:50         -1.64  -171.420147    2      2      
iter:   3  11:13:51         -2.01  -171.370087    2      2      
iter:   4  11:13:51         -2.26  -171.363175    2      2      
iter:   5  11:13:52         -2.39  -171.357875    2      2      
iter:   6  11:13:52         -2.50  -171.353523    2      2      
iter:   7  11:13:53         -2.65  -171.351911    3      2      
iter:   8  11:13:53         -2.87  -171.352328    2      2      
iter:   9  11:13:54         -3.01  -171.352491    1      2      
iter:  10  11:13:54         -3.21  -171.350632    2      1      
iter:  11  11:13:55         -3.42  -171.351194    2      1      
iter:  12  11:13:55         -3.63  -171.352451    2      1      
iter:  13  11:13:56         -3.71  -171.352661    2      1      
iter:  14  11:13:56         -3.89  -171.352760    2      1      
iter:  15  11:13:57         -4.01  -171.352558    2      1      

Converged after 15 iterations.

Dipole moment: (0.166715, 0.301843, -0.252317) |e|*Ang

Energy contributions relative to reference atoms: (reference = -24663.074771)

Kinetic:        +89.429431
Potential:     -101.923886
External:        +0.000000
XC:            -161.682980
Entropy (-ST):   -0.322856
Local:           +2.986304
--------------------------
Free energy:   -171.513986
Extrapolated:  -171.352558

Fermi level: -4.77518

 Band  Eigenvalues  Occupancy
    0    -23.06349    2.00000
    1    -21.38412    2.00000
    2    -21.18642    2.00000
    3    -20.73050    2.00000
    4    -20.23212    2.00000
    5    -19.94110    2.00000
    6    -19.18493    2.00000
    7    -18.99802    2.00000
    8    -18.77962    2.00000
    9    -18.44215    2.00000
   10    -17.86765    2.00000
   11    -17.25896    2.00000
   12    -16.59293    2.00000
   13    -15.97553    2.00000
   14    -15.41666    2.00000
   15    -15.14429    2.00000
   16    -14.72303    2.00000
   17    -13.94567    2.00000
   18    -13.67039    2.00000
   19    -13.42124    2.00000
   20    -12.61325    2.00000
   21    -12.47945    2.00000
   22    -11.17000    2.00000
   23    -10.73427    2.00000
   24    -10.18379    2.00000
   25    -10.12580    2.00000
   26     -9.81506    2.00000
   27     -9.68366    2.00000
   28     -9.38072    2.00000
   29     -8.88263    2.00000
   30     -8.75315    2.00000
   31     -8.65772    2.00000
   32     -8.29087    2.00000
   33     -8.22534    2.00000
   34     -8.08267    2.00000
   35     -7.80722    2.00000
   36     -7.21256    2.00000
   37     -6.92314    2.00000
   38     -6.84513    2.00000
   39     -6.40502    2.00000
   40     -6.34192    2.00000
   41     -6.14965    2.00000
   42     -6.09836    2.00000
   43     -5.84060    1.99995
   44     -5.15059    1.95423
   45     -5.10631    1.92962
   46     -5.07768    1.90737
   47     -4.94909    1.70114
   48     -4.61783    0.34343
   49     -4.53368    0.16406
   50     -3.85061    0.00019
   51     -3.50711    0.00001
   52     -2.75030    0.00000
   53     -2.62563    0.00000
   54     -2.25072    0.00000
   55     -2.04505    0.00000
   56     -1.81723    0.00000
   57     -1.62879    0.00000
   58     -1.31542    0.00000
   59     -1.05207    0.00000
   60     -0.90790    0.00000
   61     -0.42012    0.00000
   62     -0.05985    0.00000
   63      0.40478    0.00000
   64      0.59940    0.00000
   65      1.69401    0.00000
   66      2.53893    0.00000
   67      2.68389    0.00000
   68      2.84249    0.00000
   69      3.07188    0.00000
   70      3.50720    0.00000
   71      4.27285    0.00000
   72      4.87275    0.00000
   73      5.31001    0.00000
   74      5.53767    0.00000
   75      6.18592    0.00000
   76      6.29471    0.00000
   77      6.80218    0.00000
   78      7.05077    0.00000
   79      7.59675    0.00000
   80      7.87230    0.00000
   81      7.96150    0.00000
   82      8.18345    0.00000
   83      8.55426    0.00000
   84      8.62681    0.00000
   85      8.67928    0.00000
   86      9.01317    0.00000
   87      9.05066    0.00000
   88      9.14211    0.00000
   89      9.18051    0.00000
   90      9.41422    0.00000
   91      9.49887    0.00000
   92      9.57625    0.00000
   93      9.67288    0.00000
   94      9.98667    0.00000
   95      9.99592    0.00000
   96     10.09743    0.00000
   97     10.20644    0.00000


Forces in eV/Ang:
  0 C    -0.56128    0.67673    0.40266
  1 C    -0.53873   -0.60174   -0.08679
  2 C    -0.71501   -0.19501   -0.02818
  3 C     0.17019   -0.94465   -0.41944
  4 C    -0.50013    0.02818    0.06732
  5 C     0.35911    0.52815    0.19816
  6 C     0.15928    0.92789    0.25109
  7 C     0.12121   -0.30112    0.09350
  8 C     0.09493    1.07041    0.37266
  9 C     0.34031    0.30799    0.06511
 10 C     0.56264    0.03957   -0.23062
 11 C     0.36499    0.32301   -0.00445
 12 C    -0.00367   -0.32536   -0.21248
 13 C     0.49398   -0.33057   -0.02098
 14 C    -0.36775    0.31553   -0.08923
 15 C    -0.31921   -0.62184   -0.42525
 16 C     0.23853   -0.25937   -0.09103
 17 C     0.00948   -0.25570   -0.01884
 18 C    -0.40532    0.09366    0.00060
 19 C     0.08845   -0.61927    0.20451
 20 C    -0.27653   -0.46379   -0.03072
 21 C    -0.24190    0.42617    0.04821
 22 C     0.50879   -0.04448    0.00803
 23 C     0.35251    0.18822   -0.04387

System changes: positions 

Initializing position-dependent things.

Density initialized from wave functions
           .--------------------------------------.  
          /|                                      |  
         / |                                      |  
        /  |                                      |  
       /   |                                      |  
      /    |                                      |  
     /     |                                      |  
    /      |                                      |  
   /       |                                      |  
  /        |     C  C  C C                        |  
 *         |    C         C    C                  |  
 |         |     C C  C  C       C                |  
 |         C-----------C----------C---------------.  
 |        /C                C  C   C             /   
 |       /    C  C  C     C                     /    
 |      /             C                        /     
 |     /                                      /      
 |    /                                      /       
 |   /                                      /        
 |  /                                      /         
 | /                                      /          
 |/                                      /           
 *--------------------------------------*            

Positions:
   0 C     10.033029    9.365211    5.266565
   1 C      2.471327    6.117793    5.487465
   2 C     10.971967    8.614753    4.792799
   3 C      7.736033    3.982133    4.002693
   4 C      8.907171    4.490091    3.972405
   5 C      5.318505    4.376619    4.484097
   6 C      6.648121    4.725205    4.424076
   7 C     12.126812    6.385764    3.819788
   8 C      4.058210    4.428801    4.690529
   9 C      9.581025    5.590167    4.217442
  10 C     10.762690    6.184494    4.115134
  11 C      2.862048    4.939704    5.040255
  12 C     11.515997    7.495321    4.326848
  13 C      3.794621   11.154579    4.939653
  14 C      6.769460    7.565039    4.841402
  15 C      7.288696    6.246314    4.784863
  16 C      5.370323    7.920098    4.896435
  17 C      3.653042    9.877820    4.987927
  18 C      7.560303    9.995184    4.754914
  19 C      7.767609    8.689828    4.810333
  20 C      6.029955   12.010375    4.813026
  21 C      4.738471   12.107974    4.923196
  22 C      4.397109    8.746958    4.938370
  23 C      7.054025   11.186876    4.788627

Unit cell:
           periodic     x           y           z      points  spacing
  1. axis:    yes   16.000000    0.000000    0.000000    80     0.2000
  2. axis:    yes    0.000000   16.000000    0.000000    80     0.2000
  3. axis:    yes    0.000000    0.000000   10.000000    48     0.2083

Effective grid spacing dv^(1/3) = 0.2027

                     log10-error:    total        iterations:
           time      wfs    density  energy       fermi  poisson
iter:   1  11:13:58          +inf  -171.746412    3      5      
iter:   2  11:13:59         -1.78  -171.592905    2      2      
iter:   3  11:13:59         -2.06  -171.557900    2      2      
iter:   4  11:14:00         -2.30  -171.550793    2      2      
iter:   5  11:14:00         -2.44  -171.546378    2      2      
iter:   6  11:14:00         -2.57  -171.543637    3      2      
iter:   7  11:14:01         -2.75  -171.543278    2      2      
iter:   8  11:14:01         -2.92  -171.543698    2      2      
iter:   9  11:14:02         -3.16  -171.542248    2      1      
iter:  10  11:14:02         -3.31  -171.542374    2      1      
iter:  11  11:14:03         -3.53  -171.543367    2      1      
iter:  12  11:14:03         -3.65  -171.543518    2      1      
iter:  13  11:14:04         -3.79  -171.543710    2      1      
iter:  14  11:14:04         -3.87  -171.543665    2      1      
iter:  15  11:14:05         -3.93  -171.543780    1      1      
iter:  16  11:14:05         -4.05  -171.543670    2      1      

Converged after 16 iterations.

Dipole moment: (0.215811, 0.299323, -0.253273) |e|*Ang

Energy contributions relative to reference atoms: (reference = -24663.074771)

Kinetic:        +93.496431
Potential:     -105.153272
External:        +0.000000
XC:            -162.716522
Entropy (-ST):   -0.305389
Local:           +2.982387
--------------------------
Free energy:   -171.696364
Extrapolated:  -171.543670

Fermi level: -4.78685

 Band  Eigenvalues  Occupancy
    0    -23.26834    2.00000
    1    -21.40252    2.00000
    2    -21.21185    2.00000
    3    -20.71504    2.00000
    4    -20.21624    2.00000
    5    -19.97742    2.00000
    6    -19.25429    2.00000
    7    -19.01857    2.00000
    8    -18.83691    2.00000
    9    -18.40818    2.00000
   10    -17.96025    2.00000
   11    -17.27795    2.00000
   12    -16.62652    2.00000
   13    -15.93617    2.00000
   14    -15.58085    2.00000
   15    -15.16958    2.00000
   16    -14.83367    2.00000
   17    -13.98535    2.00000
   18    -13.66076    2.00000
   19    -13.41364    2.00000
   20    -12.59381    2.00000
   21    -12.42092    2.00000
   22    -11.24259    2.00000
   23    -10.82338    2.00000
   24    -10.43718    2.00000
   25    -10.24946    2.00000
   26     -9.80920    2.00000
   27     -9.67014    2.00000
   28     -9.41900    2.00000
   29     -8.86615    2.00000
   30     -8.73210    2.00000
   31     -8.63400    2.00000
   32     -8.31248    2.00000
   33     -8.24172    2.00000
   34     -8.09168    2.00000
   35     -7.82017    2.00000
   36     -7.27828    2.00000
   37     -6.92041    2.00000
   38     -6.84193    2.00000
   39     -6.40651    2.00000
   40     -6.35972    2.00000
   41     -6.13886    2.00000
   42     -6.07969    2.00000
   43     -5.80988    1.99993
   44     -5.19310    1.96617
   45     -5.14513    1.94591
   46     -5.08245    1.90109
   47     -4.96584    1.71381
   48     -4.62238    0.32365
   49     -4.53512    0.14931
   50     -3.82345    0.00013
   51     -3.52651    0.00001
   52     -2.73468    0.00000
   53     -2.56907    0.00000
   54     -2.23099    0.00000
   55     -2.08332    0.00000
   56     -1.76606    0.00000
   57     -1.52515    0.00000
   58     -1.28364    0.00000
   59     -1.05368    0.00000
   60     -0.87995    0.00000
   61     -0.37658    0.00000
   62     -0.01223    0.00000
   63      0.49457    0.00000
   64      0.63414    0.00000
   65      1.71528    0.00000
   66      2.55651    0.00000
   67      2.81762    0.00000
   68      3.03959    0.00000
   69      3.17147    0.00000
   70      3.42988    0.00000
   71      4.28934    0.00000
   72      4.85917    0.00000
   73      5.52350    0.00000
   74      5.56440    0.00000
   75      6.25877    0.00000
   76      6.42864    0.00000
   77      6.78618    0.00000
   78      7.04819    0.00000
   79      7.56248    0.00000
   80      7.79979    0.00000
   81      7.98670    0.00000
   82      8.13037    0.00000
   83      8.53744    0.00000
   84      8.61265    0.00000
   85      8.68937    0.00000
   86      8.99377    0.00000
   87      9.05905    0.00000
   88      9.08709    0.00000
   89      9.11644    0.00000
   90      9.38801    0.00000
   91      9.49165    0.00000
   92      9.57537    0.00000
   93      9.63832    0.00000
   94      9.94024    0.00000
   95     10.00098    0.00000
   96     10.03229    0.00000
   97     10.17116    0.00000


Forces in eV/Ang:
  0 C    -0.67863    0.70149    0.37815
  1 C    -0.58398   -0.39936   -0.01819
  2 C    -0.70180    0.16195    0.09974
  3 C    -0.14847   -1.11049   -0.38850
  4 C    -0.18177   -0.02614   -0.01130
  5 C    -0.09426    0.55124    0.27558
  6 C     0.37744    0.97440    0.18471
  7 C     0.90438   -0.61299   -0.20553
  8 C     0.34817    0.91286    0.26851
  9 C    -0.04916    0.23580    0.13793
 10 C     0.62037   -0.09380   -0.25991
 11 C     0.35942    0.22750   -0.02360
 12 C    -0.13625   -0.02958   -0.07389
 13 C     0.61647   -0.38908   -0.03426
 14 C    -0.35075    0.27940   -0.11138
 15 C    -0.52296   -0.46056   -0.28093
 16 C     0.14112   -0.18020   -0.08157
 17 C     0.09396   -0.37536   -0.03578
 18 C    -0.27227   -0.28196    0.04548
 19 C     0.08047   -0.47062    0.16694
 20 C    -0.34386   -0.49275   -0.00700
 21 C    -0.25942    0.46623    0.03121
 22 C     0.43525    0.08496   -0.00322
 23 C     0.30988    0.33438   -0.03606

System changes: positions 

Initializing position-dependent things.

Density initialized from wave functions
           .--------------------------------------.  
          /|                                      |  
         / |                                      |  
        /  |                                      |  
       /   |                                      |  
      /    |                                      |  
     /     |                                      |  
    /      |                                      |  
   /       |                                      |  
  /        |     C  C  C C                        |  
 *         |    C         C    C                  |  
 |         |     C C  C  C       C                |  
 |         C-----------C----------C---------------.  
 |        /C                C  C   C             /   
 |       /    C  C  C    C                      /    
 |      /             C                        /     
 |     /                                      /      
 |    /                                      /       
 |   /                                      /        
 |  /                                      /         
 | /                                      /          
 |/                                      /           
 *--------------------------------------*            

Positions:
   0 C     10.031287    9.377857    5.273530
   1 C      2.449709    6.109667    5.488769
   2 C     10.939647    8.591528    4.788801
   3 C      7.735031    3.967038    3.995232
   4 C      8.889763    4.508634    3.980235
   5 C      5.331156    4.394123    4.490437
   6 C      6.665080    4.743382    4.426943
   7 C     12.115106    6.386976    3.830809
   8 C      4.075460    4.460872    4.699146
   9 C      9.597619    5.585485    4.213206
  10 C     10.763748    6.178507    4.109324
  11 C      2.866795    4.942841    5.038828
  12 C     11.522770    7.503036    4.323268
  13 C      3.807816   11.146867    4.938776
  14 C      6.774501    7.556601    4.838993
  15 C      7.275161    6.229475    4.767025
  16 C      5.376567    7.910261    4.893720
  17 C      3.650741    9.870567    4.987772
  18 C      7.548884    9.989816    4.754320
  19 C      7.768918    8.685425    4.816711
  20 C      6.023803   11.995066    4.811957
  21 C      4.733326   12.121475    4.924483
  22 C      4.409257    8.746160    4.938253
  23 C      7.063350   11.194160    4.787743

Unit cell:
           periodic     x           y           z      points  spacing
  1. axis:    yes   16.000000    0.000000    0.000000    80     0.2000
  2. axis:    yes    0.000000   16.000000    0.000000    80     0.2000
  3. axis:    yes    0.000000    0.000000   10.000000    48     0.2083

Effective grid spacing dv^(1/3) = 0.2027

                     log10-error:    total        iterations:
           time      wfs    density  energy       fermi  poisson
iter:   1  11:14:07          +inf  -171.856909    2      5      
iter:   2  11:14:07         -1.88  -171.771248    2      2      
iter:   3  11:14:08         -2.10  -171.740461    2      2      
iter:   4  11:14:08         -2.33  -171.734662    2      2      
iter:   5  11:14:09         -2.46  -171.731250    2      2      
iter:   6  11:14:09         -2.58  -171.729215    2      2      
iter:   7  11:14:10         -2.83  -171.729100    2      2      
iter:   8  11:14:10         -3.03  -171.729075    2      2      
iter:   9  11:14:11         -3.27  -171.728313    2      1      
iter:  10  11:14:11         -3.40  -171.728196    2      1      
iter:  11  11:14:11         -3.59  -171.728597    2      1      
iter:  12  11:14:12         -3.72  -171.728670    2      1      
iter:  13  11:14:12         -3.82  -171.728841    2      1      
iter:  14  11:14:13         -3.91  -171.728842    2      1      
iter:  15  11:14:13         -3.97  -171.728818    2      1      
iter:  16  11:14:14         -4.16  -171.728877    2      1      

Converged after 16 iterations.

Dipole moment: (0.263937, 0.306197, -0.251481) |e|*Ang

Energy contributions relative to reference atoms: (reference = -24663.074771)

Kinetic:        +96.256260
Potential:     -107.413461
External:        +0.000000
XC:            -163.399454
Entropy (-ST):   -0.297037
Local:           +2.976296
--------------------------
Free energy:   -171.877396
Extrapolated:  -171.728877

Fermi level: -4.80861

 Band  Eigenvalues  Occupancy
    0    -23.38896    2.00000
    1    -21.45293    2.00000
    2    -21.23860    2.00000
    3    -20.71497    2.00000
    4    -20.21163    2.00000
    5    -20.00658    2.00000
    6    -19.32417    2.00000
    7    -19.04732    2.00000
    8    -18.87187    2.00000
    9    -18.38893    2.00000
   10    -18.02377    2.00000
   11    -17.31863    2.00000
   12    -16.65974    2.00000
   13    -15.90506    2.00000
   14    -15.70806    2.00000
   15    -15.22424    2.00000
   16    -14.90914    2.00000
   17    -14.02439    2.00000
   18    -13.64857    2.00000
   19    -13.40687    2.00000
   20    -12.58368    2.00000
   21    -12.34652    2.00000
   22    -11.33046    2.00000
   23    -10.90307    2.00000
   24    -10.62315    2.00000
   25    -10.34072    2.00000
   26     -9.81424    2.00000
   27     -9.66447    2.00000
   28     -9.45649    2.00000
   29     -8.85748    2.00000
   30     -8.72103    2.00000
   31     -8.61812    2.00000
   32     -8.33939    2.00000
   33     -8.24256    2.00000
   34     -8.10312    2.00000
   35     -7.83272    2.00000
   36     -7.34020    2.00000
   37     -6.92220    2.00000
   38     -6.84668    2.00000
   39     -6.41943    2.00000
   40     -6.36742    2.00000
   41     -6.13276    2.00000
   42     -6.07954    1.99999
   43     -5.77629    1.99987
   44     -5.24088    1.97382
   45     -5.18542    1.95485
   46     -5.09572    1.89280
   47     -4.98936    1.71811
   48     -4.64534    0.32691
   49     -4.54488    0.13355
   50     -3.81245    0.00009
   51     -3.53517    0.00001
   52     -2.72019    0.00000
   53     -2.50739    0.00000
   54     -2.21498    0.00000
   55     -2.14022    0.00000
   56     -1.75541    0.00000
   57     -1.42623    0.00000
   58     -1.24428    0.00000
   59     -1.06891    0.00000
   60     -0.86312    0.00000
   61     -0.32358    0.00000
   62      0.03542    0.00000
   63      0.55893    0.00000
   64      0.64859    0.00000
   65      1.72545    0.00000
   66      2.54328    0.00000
   67      2.87620    0.00000
   68      3.12613    0.00000
   69      3.34382    0.00000
   70      3.41853    0.00000
   71      4.30330    0.00000
   72      4.83186    0.00000
   73      5.53826    0.00000
   74      5.62087    0.00000
   75      6.30724    0.00000
   76      6.55831    0.00000
   77      6.73280    0.00000
   78      7.04623    0.00000
   79      7.50643    0.00000
   80      7.71860    0.00000
   81      7.97319    0.00000
   82      8.09668    0.00000
   83      8.48064    0.00000
   84      8.58834    0.00000
   85      8.70393    0.00000
   86      8.93353    0.00000
   87      8.96346    0.00000
   88      9.02733    0.00000
   89      9.11846    0.00000
   90      9.35518    0.00000
   91      9.46398    0.00000
   92      9.56744    0.00000
   93      9.59149    0.00000
   94      9.79426    0.00000
   95      9.99501    0.00000
   96     10.00807    0.00000
   97     10.15539    0.00000


Forces in eV/Ang:
  0 C    -0.58832    0.57237    0.28393
  1 C    -0.60121   -0.32095   -0.01597
  2 C    -0.83217    0.61501    0.27910
  3 C    -0.31899   -1.13220   -0.35212
  4 C     0.08667   -0.02950   -0.04426
  5 C     0.13563    0.61048    0.25121
  6 C     0.30368    0.92252    0.14349
  7 C     1.41278   -0.71397   -0.37878
  8 C     0.14541    0.76133    0.25548
  9 C    -0.47345    0.04102    0.16763
 10 C     0.77755   -0.15328   -0.28597
 11 C     0.35094    0.24404   -0.01154
 12 C    -0.16910    0.01094   -0.04212
 13 C     0.75624   -0.39166   -0.02942
 14 C    -0.30246    0.23443   -0.13553
 15 C    -0.72438   -0.33936   -0.16649
 16 C     0.10424   -0.11916   -0.06884
 17 C     0.15152   -0.42063   -0.03471
 18 C    -0.24615   -0.31165    0.08894
 19 C     0.03723   -0.41611    0.11352
 20 C    -0.28007   -0.57409   -0.00024
 21 C    -0.42828    0.45426    0.01815
 22 C     0.34265    0.16570    0.00241
 23 C     0.33171    0.23722   -0.02552

System changes: positions 

Initializing position-dependent things.

Density initialized from wave functions
           .--------------------------------------.  
          /|                                      |  
         / |                                      |  
        /  |                                      |  
       /   |                                      |  
      /    |                                      |  
     /     |                                      |  
    /      |                                      |  
   /       |                                      |  
  /        |     C  C  C C                        |  
 *         |    C         C    C                  |  
 |         |     C C  C  C       C                |  
 |         C-----------C----------C---------------.  
 |        /C                C  C   C             /   
 |       /    C  C  C    C                      /    
 |      /             C                        /     
 |     /                                      /      
 |    /                                      /       
 |   /                                      /        
 |  /                                      /         
 | /                                      /          
 |/                                      /           
 *--------------------------------------*            

Positions:
   0 C     10.028939    9.390741    5.280500
   1 C      2.426576    6.100877    5.489819
   2 C     10.904816    8.572012    4.786357
   3 C      7.732556    3.950211    3.987440
   4 C      8.873263    4.526717    3.987856
   5 C      5.346482    4.413539    4.497074
   6 C      6.682254    4.762545    4.429631
   7 C     12.108461    6.387245    3.840669
   8 C      4.091721    4.493574    4.708234
   9 C      9.611264    5.579963    4.209460
  10 C     10.767705    6.172294    4.102831
  11 C      2.871889    4.947243    5.037683
  12 C     11.529192    7.509665    4.319270
  13 C      3.823630   11.138633    4.937910
  14 C      6.779315    7.548283    4.836118
  15 C      7.258664    6.212520    4.749434
  16 C      5.383265    7.900347    4.890928
  17 C      3.648942    9.861998    4.987636
  18 C      7.536640    9.984921    4.754193
  19 C      7.769824    8.680071    4.822934
  20 C      6.017600   11.977568    4.810935
  21 C      4.726321   12.135928    4.925641
  22 C      4.421444    8.746132    4.938210
  23 C      7.073619   11.200607    4.786906

Unit cell:
           periodic     x           y           z      points  spacing
  1. axis:    yes   16.000000    0.000000    0.000000    80     0.2000
  2. axis:    yes    0.000000   16.000000    0.000000    80     0.2000
  3. axis:    yes    0.000000    0.000000   10.000000    48     0.2083

Effective grid spacing dv^(1/3) = 0.2027

                     log10-error:    total        iterations:
           time      wfs    density  energy       fermi  poisson
iter:   1  11:14:15          +inf  -172.022137    3      5      
iter:   2  11:14:16         -1.93  -171.954653    3      2      
iter:   3  11:14:16         -2.13  -171.922677    3      2      
iter:   4  11:14:17         -2.35  -171.918523    2      2      
iter:   5  11:14:17         -2.48  -171.915426    2      2      
iter:   6  11:14:18         -2.59  -171.914146    2      2      
iter:   7  11:14:18         -2.86  -171.913409    2      2      
iter:   8  11:14:19         -3.09  -171.912830    2      1      
iter:   9  11:14:19         -3.31  -171.912659    2      1      
iter:  10  11:14:20         -3.44  -171.912578    2      1      
iter:  11  11:14:20         -3.59  -171.912672    2      1      
iter:  12  11:14:21         -3.73  -171.912832    2      1      
iter:  13  11:14:21         -3.82  -171.912813    2      1      
iter:  14  11:14:22         -3.94  -171.912922    1      1      
iter:  15  11:14:22         -4.09  -171.913125    2      1      

Converged after 15 iterations.

Dipole moment: (0.301443, 0.312015, -0.247031) |e|*Ang

Energy contributions relative to reference atoms: (reference = -24663.074771)

Kinetic:        +97.988280
Potential:     -108.891071
External:        +0.000000
XC:            -163.840321
Entropy (-ST):   -0.293181
Local:           +2.976578
--------------------------
Free energy:   -172.059715
Extrapolated:  -171.913125

Fermi level: -4.83437

 Band  Eigenvalues  Occupancy
    0    -23.48208    2.00000
    1    -21.53251    2.00000
    2    -21.26642    2.00000
    3    -20.72656    2.00000
    4    -20.21873    2.00000
    5    -20.03414    2.00000
    6    -19.38819    2.00000
    7    -19.07413    2.00000
    8    -18.90032    2.00000
    9    -18.36948    2.00000
   10    -18.07663    2.00000
   11    -17.36809    2.00000
   12    -16.68737    2.00000
   13    -15.90443    2.00000
   14    -15.77458    2.00000
   15    -15.30485    2.00000
   16    -14.96978    2.00000
   17    -14.07050    2.00000
   18    -13.63938    2.00000
   19    -13.39856    2.00000
   20    -12.57966    2.00000
   21    -12.28229    2.00000
   22    -11.42072    2.00000
   23    -10.98901    2.00000
   24    -10.74017    2.00000
   25    -10.41096    2.00000
   26     -9.83024    2.00000
   27     -9.66511    2.00000
   28     -9.49674    2.00000
   29     -8.85384    2.00000
   30     -8.71645    2.00000
   31     -8.60742    2.00000
   32     -8.36419    2.00000
   33     -8.24371    2.00000
   34     -8.10803    2.00000
   35     -7.84030    2.00000
   36     -7.39839    2.00000
   37     -6.92849    2.00000
   38     -6.85723    2.00000
   39     -6.43640    2.00000
   40     -6.38050    2.00000
   41     -6.12362    1.99999
   42     -6.08972    1.99999
   43     -5.74272    1.99977
   44     -5.28946    1.97911
   45     -5.22339    1.95993
   46     -5.11732    1.88849
   47     -5.01300    1.71293
   48     -4.67634    0.34149
   49     -4.55762    0.11821
   50     -3.81220    0.00007
   51     -3.53360    0.00000
   52     -2.71303    0.00000
   53     -2.44484    0.00000
   54     -2.22059    0.00000
   55     -2.17821    0.00000
   56     -1.75956    0.00000
   57     -1.34034    0.00000
   58     -1.23760    0.00000
   59     -1.08875    0.00000
   60     -0.85911    0.00000
   61     -0.27018    0.00000
   62      0.07995    0.00000
   63      0.62410    0.00000
   64      0.65430    0.00000
   65      1.72725    0.00000
   66      2.51838    0.00000
   67      2.86623    0.00000
   68      3.13378    0.00000
   69      3.32894    0.00000
   70      3.64000    0.00000
   71      4.30817    0.00000
   72      4.79983    0.00000
   73      5.46749    0.00000
   74      5.64789    0.00000
   75      6.33834    0.00000
   76      6.59648    0.00000
   77      6.74328    0.00000
   78      7.05160    0.00000
   79      7.43518    0.00000
   80      7.61639    0.00000
   81      7.92613    0.00000
   82      8.10963    0.00000
   83      8.36625    0.00000
   84      8.56056    0.00000
   85      8.69386    0.00000
   86      8.82611    0.00000
   87      8.88406    0.00000
   88      8.97573    0.00000
   89      9.12154    0.00000
   90      9.32190    0.00000
   91      9.42740    0.00000
   92      9.51430    0.00000
   93      9.58929    0.00000
   94      9.70934    0.00000
   95      9.97475    0.00000
   96     10.00858    0.00000
   97     10.13937    0.00000


Forces in eV/Ang:
  0 C    -0.61137    0.54120    0.25447
  1 C    -0.61572   -0.21024    0.02454
  2 C    -0.69764    0.66669    0.27083
  3 C    -0.35192   -1.03882   -0.31491
  4 C     0.16804   -0.09001   -0.06548
  5 C    -0.04208    0.65357    0.29021
  6 C     0.22246    0.77184    0.05578
  7 C     1.85814   -0.72566   -0.50370
  8 C     0.20505    0.62735    0.18541
  9 C    -0.61662   -0.02064    0.18298
 10 C     0.73022   -0.24753   -0.28100
 11 C     0.35413    0.22622   -0.01669
 12 C    -0.33150    0.25307    0.09200
 13 C     0.87234   -0.45579   -0.00072
 14 C    -0.25302    0.21414   -0.14978
 15 C    -0.87760   -0.16112   -0.07640
 16 C     0.05451   -0.02161   -0.05732
 17 C     0.18755   -0.37588   -0.02663
 18 C    -0.14353   -0.52744    0.14517
 19 C    -0.02508   -0.25730    0.05599
 20 C    -0.29867   -0.61462    0.01806
 21 C    -0.42573    0.43570    0.01281
 22 C     0.32327    0.15679    0.00192
 23 C     0.26325    0.26943   -0.02406

System changes: positions 

Initializing position-dependent things.

Density initialized from wave functions
           .--------------------------------------.  
          /|                                      |  
         / |                                      |  
        /  |                                      |  
       /   |                                      |  
      /    |                                      |  
     /     |                                      |  
    /      |                                      |  
   /       |        C                             |  
  /        |     C     C C                        |  
 *         |    C         C    C                  |  
 |         |     C C  C  C       C                |  
 |         C-----------C----------C---------------.  
 |        /C                C  C   C             /   
 |       /    C  C  C    C                      /    
 |      /             C                        /     
 |     /                                      /      
 |    /                                      /       
 |   /                                      /        
 |  /                                      /         
 | /                                      /          
 |/                                      /           
 *--------------------------------------*            

Positions:
   0 C     10.024838    9.404896    5.288114
   1 C      2.401854    6.091978    5.491146
   2 C     10.870223    8.552132    4.783515
   3 C      7.730298    3.932790    3.979221
   4 C      8.855898    4.543881    3.995431
   5 C      5.360509    4.434908    4.504713
   6 C      6.699016    4.781648    4.431610
   7 C     12.107462    6.387151    3.849449
   8 C      4.109137    4.527145    4.717285
   9 C      9.624321    5.574525    4.206029
  10 C     10.772409    6.165154    4.095900
  11 C      2.877774    4.952364    5.036519
  12 C     11.533482    7.518363    4.316393
  13 C      3.842185   11.128796    4.937385
  14 C      6.784029    7.540279    4.832833
  15 C      7.239264    6.196386    4.731908
  16 C      5.390030    7.891011    4.888058
  17 C      3.647518    9.853434    4.987589
  18 C      7.524619    9.977772    4.754808
  19 C      7.770037    8.675288    4.828889
  20 C      6.010490   11.958229    4.810094
  21 C      4.718961   12.151245    4.926811
  22 C      4.434653    8.745767    4.938173
  23 C      7.083829   11.207771    4.785996

Unit cell:
           periodic     x           y           z      points  spacing
  1. axis:    yes   16.000000    0.000000    0.000000    80     0.2000
  2. axis:    yes    0.000000   16.000000    0.000000    80     0.2000
  3. axis:    yes    0.000000    0.000000   10.000000    48     0.2083

Effective grid spacing dv^(1/3) = 0.2027

                     log10-error:    total        iterations:
           time      wfs    density  energy       fermi  poisson
iter:   1  11:14:24          +inf  -172.196355    3      5      
iter:   2  11:14:24         -1.96  -172.133539    3      2      
iter:   3  11:14:25         -2.14  -172.098781    3      2      
iter:   4  11:14:25         -2.36  -172.096748    2      2      
iter:   5  11:14:26         -2.47  -172.092751    2      2      
iter:   6  11:14:26         -2.59  -172.092537    2      2      
iter:   7  11:14:26         -2.85  -172.090660    2      2      
iter:   8  11:14:27         -3.04  -172.090694    2      1      
iter:   9  11:14:27         -3.30  -172.090349    2      1      
iter:  10  11:14:28         -3.43  -172.090199    2      1      
iter:  11  11:14:28         -3.56  -172.090425    2      1      
iter:  12  11:14:29         -3.70  -172.090220    2      1      
iter:  13  11:14:29         -3.84  -172.090375    2      1      
iter:  14  11:14:30         -3.94  -172.090578    2      1      
iter:  15  11:14:30         -4.12  -172.090665    2      1      

Converged after 15 iterations.

Dipole moment: (0.330708, 0.314041, -0.240428) |e|*Ang

Energy contributions relative to reference atoms: (reference = -24663.074771)

Kinetic:        +99.307225
Potential:     -110.097285
External:        +0.000000
XC:            -164.127222
Entropy (-ST):   -0.290231
Local:           +2.971733
--------------------------
Free energy:   -172.235780
Extrapolated:  -172.090665

Fermi level: -4.86699

 Band  Eigenvalues  Occupancy
    0    -23.50199    2.00000
    1    -21.63870    2.00000
    2    -21.29929    2.00000
    3    -20.75426    2.00000
    4    -20.23080    2.00000
    5    -20.06441    2.00000
    6    -19.44772    2.00000
    7    -19.10314    2.00000
    8    -18.92364    2.00000
    9    -18.36444    2.00000
   10    -18.12883    2.00000
   11    -17.43347    2.00000
   12    -16.72558    2.00000
   13    -15.93859    2.00000
   14    -15.77570    2.00000
   15    -15.40236    2.00000
   16    -15.01127    2.00000
   17    -14.11897    2.00000
   18    -13.63426    2.00000
   19    -13.38346    2.00000
   20    -12.57708    2.00000
   21    -12.25397    2.00000
   22    -11.49763    2.00000
   23    -11.06525    2.00000
   24    -10.78661    2.00000
   25    -10.44924    2.00000
   26     -9.85945    2.00000
   27     -9.67004    2.00000
   28     -9.53937    2.00000
   29     -8.85959    2.00000
   30     -8.71551    2.00000
   31     -8.60046    2.00000
   32     -8.38984    2.00000
   33     -8.25716    2.00000
   34     -8.09230    2.00000
   35     -7.84665    2.00000
   36     -7.45523    2.00000
   37     -6.93566    2.00000
   38     -6.87235    2.00000
   39     -6.45963    2.00000
   40     -6.38834    2.00000
   41     -6.12512    1.99999
   42     -6.10811    1.99999
   43     -5.72397    1.99962
   44     -5.35061    1.98425
   45     -5.25891    1.96106
   46     -5.14955    1.88810
   47     -5.04210    1.70419
   48     -4.71617    0.36242
   49     -4.57288    0.10032
   50     -3.81225    0.00005
   51     -3.53131    0.00000
   52     -2.70122    0.00000
   53     -2.37764    0.00000
   54     -2.25681    0.00000
   55     -2.17762    0.00000
   56     -1.77063    0.00000
   57     -1.28649    0.00000
   58     -1.24869    0.00000
   59     -1.10643    0.00000
   60     -0.86244    0.00000
   61     -0.22658    0.00000
   62      0.14057    0.00000
   63      0.64846    0.00000
   64      0.66401    0.00000
   65      1.72874    0.00000
   66      2.48373    0.00000
   67      2.80457    0.00000
   68      3.12082    0.00000
   69      3.34082    0.00000
   70      3.80249    0.00000
   71      4.31348    0.00000
   72      4.77785    0.00000
   73      5.34342    0.00000
   74      5.65276    0.00000
   75      6.35060    0.00000
   76      6.50845    0.00000
   77      6.82303    0.00000
   78      7.05016    0.00000
   79      7.34467    0.00000
   80      7.49565    0.00000
   81      7.85655    0.00000
   82      8.12292    0.00000
   83      8.23234    0.00000
   84      8.51917    0.00000
   85      8.59057    0.00000
   86      8.78465    0.00000
   87      8.80089    0.00000
   88      8.94912    0.00000
   89      9.08420    0.00000
   90      9.26044    0.00000
   91      9.36889    0.00000
   92      9.49238    0.00000
   93      9.62533    0.00000
   94      9.68969    0.00000
   95      9.94635    0.00000
   96     10.00691    0.00000
   97     10.12846    0.00000


Forces in eV/Ang:
  0 C    -0.47275    0.34794    0.11402
  1 C    -0.61049   -0.15754    0.02290
  2 C    -0.76014    0.95950    0.35394
  3 C    -0.48831   -0.89466   -0.23635
  4 C     0.37954    0.01623   -0.06212
  5 C    -0.02850    0.63708    0.28605
  6 C     0.11001    0.41678   -0.07238
  7 C     1.99693   -0.58026   -0.51389
  8 C     0.03984    0.50449    0.18179
  9 C    -0.81191   -0.21818    0.17856
 10 C     0.87562   -0.29132   -0.32379
 11 C     0.35006    0.24199   -0.00219
 12 C    -0.33328    0.21091    0.10867
 13 C     0.96069   -0.41203   -0.00424
 14 C    -0.18489    0.24941   -0.14930
 15 C    -0.92359    0.06496    0.01912
 16 C     0.06417    0.04331   -0.05601
 17 C     0.24313   -0.42273   -0.03805
 18 C    -0.12340   -0.48477    0.18933
 19 C    -0.10986   -0.21590    0.02677
 20 C    -0.28311   -0.63562    0.01924
 21 C    -0.42990    0.33661   -0.01146
 22 C     0.22810    0.18045   -0.01410
 23 C     0.22395    0.14109   -0.03018

System changes: positions 

Initializing position-dependent things.

Density initialized from wave functions
           .--------------------------------------.  
          /|                                      |  
         / |                                      |  
        /  |                                      |  
       /   |                                      |  
      /    |                                      |  
     /     |                                      |  
    /      |                                      |  
   /       |        C                             |  
  /        |     C     C C                        |  
[...]
Free energy:   -179.946270
Extrapolated:  -179.835872

Fermi level: -4.60329

 Band  Eigenvalues  Occupancy
    0    -23.40173    2.00000
    1    -23.19470    2.00000
    2    -21.15545    2.00000
    3    -20.88900    2.00000
    4    -20.49259    2.00000
    5    -20.01454    2.00000
    6    -19.80328    2.00000
    7    -19.61999    2.00000
    8    -18.94056    2.00000
    9    -18.64924    2.00000
   10    -18.13842    2.00000
   11    -17.63495    2.00000
   12    -17.32767    2.00000
   13    -16.19647    2.00000
   14    -15.69054    2.00000
   15    -15.52178    2.00000
   16    -15.07978    2.00000
   17    -14.37114    2.00000
   18    -14.08117    2.00000
   19    -13.84505    2.00000
   20    -13.24571    2.00000
   21    -12.47046    2.00000
   22    -12.02425    2.00000
   23    -10.79906    2.00000
   24    -10.56353    2.00000
   25    -10.29360    2.00000
   26    -10.23930    2.00000
   27     -9.91201    2.00000
   28     -9.57927    2.00000
   29     -9.34021    2.00000
   30     -9.17662    2.00000
   31     -9.05516    2.00000
   32     -8.99036    2.00000
   33     -8.63066    2.00000
   34     -8.38110    2.00000
   35     -7.83863    2.00000
   36     -7.78754    2.00000
   37     -7.62461    2.00000
   38     -7.43327    2.00000
   39     -7.27972    2.00000
   40     -6.37903    2.00000
   41     -6.19016    2.00000
   42     -6.00224    2.00000
   43     -5.97075    2.00000
   44     -5.86544    1.99999
   45     -5.29845    1.99809
   46     -5.04126    1.97525
   47     -4.74235    1.60138
   48     -4.47119    0.42130
   49     -3.95852    0.00316
   50     -3.82356    0.00082
   51     -2.42228    0.00000
   52     -2.00624    0.00000
   53     -1.75419    0.00000
   54     -1.63681    0.00000
   55     -1.44144    0.00000
   56     -0.88346    0.00000
   57     -0.83932    0.00000
   58     -0.69146    0.00000
   59     -0.57984    0.00000
   60     -0.14451    0.00000
   61      0.70066    0.00000
   62      1.21401    0.00000
   63      1.56616    0.00000
   64      2.62351    0.00000
   65      2.94998    0.00000
   66      3.06031    0.00000
   67      3.63581    0.00000
   68      3.81768    0.00000
   69      4.14165    0.00000
   70      4.33469    0.00000
   71      4.42082    0.00000
   72      4.60435    0.00000
   73      4.74463    0.00000
   74      5.62101    0.00000
   75      5.71449    0.00000
   76      6.19670    0.00000
   77      6.63322    0.00000
   78      6.87025    0.00000
   79      7.23297    0.00000
   80      7.48153    0.00000
   81      7.79411    0.00000
   82      7.82337    0.00000
   83      8.04338    0.00000
   84      8.23897    0.00000
   85      8.46483    0.00000
   86      8.49454    0.00000
   87      8.76061    0.00000
   88      8.93306    0.00000
   89      9.03896    0.00000
   90      9.10995    0.00000
   91      9.26956    0.00000
   92      9.38395    0.00000
   93      9.44935    0.00000
   94      9.71357    0.00000
   95      9.84320    0.00000
   96     10.16861    0.00000
   97     10.26725    0.00000


Forces in eV/Ang:
  0 C    -0.02926   -0.05410   -0.06464
  1 C    -0.01127   -0.04712   -0.00160
  2 C    -0.00940   -0.02996    0.02609
  3 C    -0.01220    0.00657   -0.03847
  4 C    -0.00522    0.01103    0.04589
  5 C    -0.01241    0.04335    0.01391
  6 C    -0.03671    0.02947   -0.02801
  7 C    -0.01644    0.03936    0.05954
  8 C     0.01600    0.01804    0.03567
  9 C     0.00137   -0.01941    0.02639
 10 C     0.00988    0.03016   -0.05118
 11 C     0.07283    0.02446   -0.03913
 12 C     0.02934   -0.02672   -0.05310
 13 C     0.04520   -0.02821    0.02778
 14 C     0.01073    0.02145   -0.05791
 15 C     0.00357    0.08787    0.07731
 16 C     0.02756    0.00258    0.05301
 17 C    -0.02221   -0.01011   -0.07061
 18 C    -0.06338   -0.01911    0.03134
 19 C    -0.02108    0.07331    0.03920
 20 C     0.04427   -0.01726    0.01530
 21 C     0.01146    0.00578   -0.01483
 22 C     0.04474   -0.05216    0.00074
 23 C    -0.00952   -0.05004   -0.00696

System changes: positions 

Initializing position-dependent things.

Density initialized from wave functions
           .--------------------------------------.  
          /|                                      |  
         / |                                      |  
        /  |                                      |  
       /   |                                      |  
      /    |                                      |  
     /     |                                      |  
    /      |                                      |  
   /       |       C  C                           |  
  /        |    C       C C                       |  
 *         |     C        C                       |  
 |         |       C C   C  C  C                  |  
 |         .--------C-----------C-----------------.  
 |        /C  C   C  C            C              /   
 |      C/             C        C               /    
 |      /                 C   C                /     
 |     /                                      /      
 |    /                                      /       
 |   /                                      /        
 |  /                                      /         
 | /                                      /          
 |/                                      /           
 *--------------------------------------*            

Positions:
   0 C      8.831975    8.971828    4.641180
   1 C      1.960813    3.483987    5.236766
   2 C     10.115163    8.501191    4.549969
   3 C      8.048846    4.391946    4.209374
   4 C      9.300377    4.199090    3.994404
   5 C      5.472422    5.244865    4.762742
   6 C      6.980406    5.161466    4.487137
   7 C     11.761660    6.510426    4.126695
   8 C      4.286645    4.672409    4.915673
   9 C     10.628194    4.163969    3.852550
  10 C     11.302470    5.304699    3.946256
  11 C      3.147813    4.052754    5.068192
  12 C     10.962845    7.577322    4.341276
  13 C      4.332163   11.731848    5.274764
  14 C      6.265220    7.812307    4.859517
  15 C      6.323718    6.376237    4.725799
  16 C      5.021937    8.424832    5.075587
  17 C      3.623131   10.623473    5.379851
  18 C      7.862910   10.020614    4.734440
  19 C      7.422400    8.666226    4.749212
  20 C      6.440839   12.062706    4.949679
  21 C      5.241536   12.682741    5.139072
  22 C      4.301498    9.464970    5.236650
  23 C      7.489725   11.353979    4.797735

Unit cell:
           periodic     x           y           z      points  spacing
  1. axis:    yes   16.000000    0.000000    0.000000    80     0.2000
  2. axis:    yes    0.000000   16.000000    0.000000    80     0.2000
  3. axis:    yes    0.000000    0.000000   10.000000    48     0.2083

Effective grid spacing dv^(1/3) = 0.2027

                     log10-error:    total        iterations:
           time      wfs    density  energy       fermi  poisson
iter:   1  11:29:56          +inf  -179.843424    2      5      
iter:   2  11:29:57         -2.56  -179.841944    2      1      
iter:   3  11:29:57         -2.65  -179.840296    2      2      
iter:   4  11:29:58         -2.87  -179.838110    2      2      
iter:   5  11:29:58         -3.05  -179.839035    2      2      
iter:   6  11:29:59         -3.08  -179.838107    2      1      
iter:   7  11:29:59         -3.31  -179.837761    2      1      
iter:   8  11:29:59         -3.53  -179.838556    2      1      
iter:   9  11:30:00         -3.74  -179.838548    2      1      
iter:  10  11:30:00         -3.85  -179.838486    2      1      
iter:  11  11:30:01         -3.94  -179.838584    2      1      
iter:  12  11:30:01         -4.01  -179.838574    2      1      

Converged after 12 iterations.

Dipole moment: (0.615315, 0.224954, -0.106541) |e|*Ang

Energy contributions relative to reference atoms: (reference = -24663.074771)

Kinetic:        +99.754820
Potential:     -110.915703
External:        +0.000000
XC:            -171.589547
Entropy (-ST):   -0.221737
Local:           +3.022725
--------------------------
Free energy:   -179.949443
Extrapolated:  -179.838574

Fermi level: -4.59819

 Band  Eigenvalues  Occupancy
    0    -23.41469    2.00000
    1    -23.20531    2.00000
    2    -21.15574    2.00000
    3    -20.88289    2.00000
    4    -20.50224    2.00000
    5    -20.01179    2.00000
    6    -19.80188    2.00000
    7    -19.62035    2.00000
    8    -18.93941    2.00000
    9    -18.65311    2.00000
   10    -18.13488    2.00000
   11    -17.62797    2.00000
   12    -17.32828    2.00000
   13    -16.20099    2.00000
   14    -15.69624    2.00000
   15    -15.52292    2.00000
   16    -15.08304    2.00000
   17    -14.38440    2.00000
   18    -14.07507    2.00000
   19    -13.84914    2.00000
   20    -13.24848    2.00000
   21    -12.47721    2.00000
   22    -12.01902    2.00000
   23    -10.80827    2.00000
   24    -10.55265    2.00000
   25    -10.29808    2.00000
   26    -10.24052    2.00000
   27     -9.90502    2.00000
   28     -9.59451    2.00000
   29     -9.33782    2.00000
   30     -9.17325    2.00000
   31     -9.05894    2.00000
   32     -8.98468    2.00000
   33     -8.63289    2.00000
   34     -8.38046    2.00000
   35     -7.83630    2.00000
   36     -7.78507    2.00000
   37     -7.62318    2.00000
   38     -7.43278    2.00000
   39     -7.27871    2.00000
   40     -6.37632    2.00000
   41     -6.18908    2.00000
   42     -6.01803    2.00000
   43     -5.97019    2.00000
   44     -5.86191    1.99999
   45     -5.29714    1.99816
   46     -5.03904    1.97594
   47     -4.73582    1.59680
   48     -4.46715    0.42484
   49     -3.95969    0.00337
   50     -3.82820    0.00091
   51     -2.41184    0.00000
   52     -2.00514    0.00000
   53     -1.74807    0.00000
   54     -1.64162    0.00000
   55     -1.46333    0.00000
   56     -0.87582    0.00000
   57     -0.84217    0.00000
   58     -0.68469    0.00000
   59     -0.57701    0.00000
   60     -0.13751    0.00000
   61      0.69758    0.00000
   62      1.21628    0.00000
   63      1.58340    0.00000
   64      2.63260    0.00000
   65      2.94101    0.00000
   66      3.08535    0.00000
   67      3.64184    0.00000
   68      3.85078    0.00000
   69      4.18506    0.00000
   70      4.35461    0.00000
   71      4.44948    0.00000
   72      4.64423    0.00000
   73      4.75069    0.00000
   74      5.57211    0.00000
   75      5.71235    0.00000
   76      6.22436    0.00000
   77      6.62348    0.00000
   78      6.86887    0.00000
   79      7.23636    0.00000
   80      7.50546    0.00000
   81      7.80094    0.00000
   82      7.83573    0.00000
   83      8.07724    0.00000
   84      8.25167    0.00000
   85      8.45921    0.00000
   86      8.49259    0.00000
   87      8.76373    0.00000
   88      8.92322    0.00000
   89      9.02122    0.00000
   90      9.11072    0.00000
   91      9.26688    0.00000
   92      9.38434    0.00000
   93      9.45007    0.00000
   94      9.71659    0.00000
   95      9.84717    0.00000
   96     10.17841    0.00000
   97     10.26874    0.00000


Forces in eV/Ang:
  0 C    -0.07265   -0.02485   -0.04532
  1 C     0.11694    0.05640   -0.02039
  2 C    -0.00798   -0.05638   -0.01451
  3 C    -0.04986    0.03917   -0.00528
  4 C     0.04845    0.03681    0.03728
  5 C    -0.01165    0.01499    0.01793
  6 C     0.00302    0.01257   -0.05146
  7 C     0.00324    0.03018    0.01292
  8 C    -0.02987    0.00398    0.03699
  9 C     0.00084    0.05575    0.00829
 10 C    -0.07302   -0.07505   -0.02177
 11 C    -0.09218   -0.08469   -0.01295
 12 C     0.02826   -0.01950   -0.00967
 13 C    -0.01666   -0.08340    0.02029
 14 C    -0.05629    0.09590    0.00812
 15 C     0.11732    0.01909    0.01265
 16 C    -0.01191   -0.00029    0.04177
 17 C     0.03260   -0.02074   -0.06714
 18 C     0.01660    0.00622    0.02628
 19 C     0.05347   -0.02950    0.01580
 20 C     0.04826   -0.00904    0.01148
 21 C     0.00381    0.04973    0.01071
 22 C     0.01136   -0.00487    0.00407
 23 C    -0.03399    0.02924   -0.02320

System changes: positions 

Initializing position-dependent things.

Density initialized from wave functions
           .--------------------------------------.  
          /|                                      |  
         / |                                      |  
        /  |                                      |  
       /   |                                      |  
      /    |                                      |  
     /     |                                      |  
    /      |                                      |  
   /       |       C  C                           |  
  /        |    C       C C                       |  
 *         |     C        C                       |  
 |         |      C  C   C  C  C                  |  
 |         .--------C-----------C-----------------.  
 |        /C  C   C  C            C              /   
 |      C/             C        C               /    
 |      /                 C   C                /     
 |     /                                      /      
 |    /                                      /       
 |   /                                      /        
 |  /                                      /         
 | /                                      /          
 |/                                      /           
 *--------------------------------------*            

Positions:
   0 C      8.829910    8.971996    4.640444
   1 C      1.966138    3.485256    5.236259
   2 C     10.111464    8.496964    4.549181
   3 C      8.049121    4.392542    4.206429
   4 C      9.300737    4.197910    3.992911
   5 C      5.475509    5.246364    4.763855
   6 C      6.981133    5.162805    4.486043
   7 C     11.760639    6.508413    4.129567
   8 C      4.289156    4.675013    4.917302
   9 C     10.629371    4.161359    3.853309
  10 C     11.301909    5.302815    3.944182
  11 C      3.149743    4.054578    5.066917
  12 C     10.960402    7.574304    4.339566
  13 C      4.331518   11.730811    5.274591
  14 C      6.263953    7.814101    4.860760
  15 C      6.327042    6.378012    4.728183
  16 C      5.019680    8.422791    5.077363
  17 C      3.621751   10.623059    5.377801
  18 C      7.861301   10.021466    4.735544
  19 C      7.420463    8.667907    4.749740
  20 C      6.441288   12.063113    4.950738
  21 C      5.241305   12.682291    5.138229
  22 C      4.301030    9.464865    5.237956
  23 C      7.490446   11.355133    4.798613

Unit cell:
           periodic     x           y           z      points  spacing
  1. axis:    yes   16.000000    0.000000    0.000000    80     0.2000
  2. axis:    yes    0.000000   16.000000    0.000000    80     0.2000
  3. axis:    yes    0.000000    0.000000   10.000000    48     0.2083

Effective grid spacing dv^(1/3) = 0.2027

                     log10-error:    total        iterations:
           time      wfs    density  energy       fermi  poisson
iter:   1  11:30:03          +inf  -179.841972    2      4      
iter:   2  11:30:03         -3.12  -179.840667    2      1      
iter:   3  11:30:03         -3.27  -179.839648    2      1      
iter:   4  11:30:04         -3.41  -179.839312    2      1      
iter:   5  11:30:04         -3.60  -179.838593    2      1      
iter:   6  11:30:05         -3.57  -179.840325    2      1      
iter:   7  11:30:05         -3.67  -179.839853    2      1      
iter:   8  11:30:06         -3.87  -179.839643    2      1      
iter:   9  11:30:06         -4.33  -179.839867    2      1      

Converged after 9 iterations.

Dipole moment: (0.621198, 0.230152, -0.108125) |e|*Ang

Energy contributions relative to reference atoms: (reference = -24663.074771)

Kinetic:       +100.027184
Potential:     -111.124334
External:        +0.000000
XC:            -171.652169
Entropy (-ST):   -0.221581
Local:           +3.020243
--------------------------
Free energy:   -179.950657
Extrapolated:  -179.839867

Fermi level: -4.59977

 Band  Eigenvalues  Occupancy
    0    -23.42280    2.00000
    1    -23.21164    2.00000
    2    -21.15659    2.00000
    3    -20.88740    2.00000
    4    -20.50607    2.00000
    5    -20.01290    2.00000
    6    -19.80363    2.00000
    7    -19.62502    2.00000
    8    -18.94025    2.00000
    9    -18.65512    2.00000
   10    -18.13680    2.00000
   11    -17.63607    2.00000
   12    -17.33129    2.00000
   13    -16.20286    2.00000
   14    -15.69810    2.00000
   15    -15.52421    2.00000
   16    -15.08358    2.00000
   17    -14.38476    2.00000
   18    -14.07869    2.00000
   19    -13.85125    2.00000
   20    -13.24934    2.00000
   21    -12.47673    2.00000
   22    -12.01960    2.00000
   23    -10.81257    2.00000
   24    -10.54890    2.00000
   25    -10.30128    2.00000
   26    -10.24989    2.00000
   27     -9.90466    2.00000
   28     -9.59655    2.00000
   29     -9.33981    2.00000
   30     -9.17515    2.00000
   31     -9.06162    2.00000
   32     -8.98842    2.00000
   33     -8.63494    2.00000
   34     -8.38148    2.00000
   35     -7.83619    2.00000
   36     -7.78723    2.00000
   37     -7.62553    2.00000
   38     -7.43485    2.00000
   39     -7.28205    2.00000
   40     -6.37762    2.00000
   41     -6.19074    2.00000
   42     -6.00618    2.00000
   43     -5.96835    2.00000
   44     -5.86492    1.99999
   45     -5.29874    1.99816
   46     -5.04191    1.97625
   47     -4.73736    1.59667
   48     -4.46868    0.42468
   49     -3.96083    0.00335
   50     -3.82868    0.00090
   51     -2.41086    0.00000
   52     -2.00345    0.00000
   53     -1.75076    0.00000
   54     -1.64322    0.00000
   55     -1.46493    0.00000
   56     -0.87167    0.00000
   57     -0.84141    0.00000
   58     -0.68786    0.00000
   59     -0.58084    0.00000
   60     -0.13906    0.00000
   61      0.69463    0.00000
   62      1.23463    0.00000
   63      1.58434    0.00000
   64      2.63170    0.00000
   65      2.93992    0.00000
   66      3.09213    0.00000
   67      3.64761    0.00000
   68      3.84474    0.00000
   69      4.17640    0.00000
   70      4.35497    0.00000
   71      4.45725    0.00000
   72      4.65022    0.00000
   73      4.74695    0.00000
   74      5.57233    0.00000
   75      5.70570    0.00000
   76      6.22918    0.00000
   77      6.62716    0.00000
   78      6.87370    0.00000
   79      7.23402    0.00000
   80      7.50594    0.00000
   81      7.79857    0.00000
   82      7.84564    0.00000
   83      8.08458    0.00000
   84      8.25198    0.00000
   85      8.45966    0.00000
   86      8.49011    0.00000
   87      8.76376    0.00000
   88      8.91998    0.00000
   89      9.02320    0.00000
   90      9.10876    0.00000
   91      9.26528    0.00000
   92      9.38310    0.00000
   93      9.44577    0.00000
   94      9.71415    0.00000
   95      9.84560    0.00000
   96     10.17804    0.00000
   97     10.27002    0.00000


Forces in eV/Ang:
  0 C    -0.05032   -0.04651   -0.04481
  1 C    -0.00874   -0.01089   -0.00465
  2 C    -0.01150   -0.04326   -0.01275
  3 C    -0.02127    0.04060    0.00122
  4 C     0.02923    0.03939    0.03857
  5 C    -0.04538    0.00581    0.03120
  6 C     0.03473    0.00571   -0.05521
  7 C     0.01676   -0.00603    0.00271
  8 C    -0.04405   -0.01506    0.03031
  9 C    -0.02353    0.05343    0.00695
 10 C    -0.05378   -0.05470   -0.00390
 11 C     0.06151   -0.01825   -0.02096
 12 C     0.00151    0.01361    0.00157
 13 C     0.02277   -0.03145    0.00723
 14 C    -0.02273    0.05798    0.01097
 15 C     0.08694    0.01585    0.00586
 16 C    -0.03901    0.03890    0.04696
 17 C     0.03669   -0.03297   -0.06108
 18 C     0.04691    0.00465    0.01373
 19 C     0.04257   -0.02556    0.02462
 20 C     0.02221    0.00047    0.01492
 21 C    -0.02473    0.01665    0.01659
 22 C     0.01248   -0.03048   -0.00898
 23 C    -0.02002    0.03212   -0.02504

