
  ___ ___ ___ _ _ _  
 |   |   |_  | | | | 
 | | | | | . | | | | 
 |__ |  _|___|_____|  1.3.0b1
 |___|_|             

User:   esb@s66n72.grendel.cscaa.dk
Date:   Wed Nov  8 14:13:03 2017
Arch:   x86_64
Pid:    43737
Python: 2.7.13
gpaw:   /home/esb/DFT/gpaw_git/gpaw
_gpaw:  /home/esb/DFT/gpaw_git/build/bin.linux-x86_64-2.7/gpaw-python
ase:    /home/esb/DFT/ase_git/ase (version 3.15.0b1)
numpy:  /comm/swstack/core/python/2.7.13/lib/python2.7/site-packages/numpy (version 1.13.3)
scipy:  /comm/swstack/core/python/2.7.13/lib/python2.7/site-packages/scipy (version 0.19.1)
units:  Angstrom and eV
cores:  16
Extra parameters: {'blacs': True}

Input parameters:
  basis: dzp
  gpts: [80 80 48]
  kpts: [1 1 1]
  maxiter: 99
  mixer: {backend: pulay,
          beta: 0.05,
          method: separate,
          nmaxold: 5,
          weight: 75}
  mode: lcao
  nbands: -50
  occupations: {name: fermi-dirac,
                width: 0.1}
  poissonsolver: {eps: 1e-07,
                  name: fd,
                  nn: 3,
                  relax: GS}
  xc: PBE

System changes: positions, numbers, cell, pbc, initial_charges, initial_magmoms 

Initialize ...

C-setup:
  name: Carbon
  id: 4aa54d4b901d75f77cc0ea3eec22967b
  Z: 6
  valence: 4
  core: 2
  charge: 0.0
  file: /home/esb/DFT/gpaw-setups-0.8.7929/C.PBE.gz
  cutoffs: 0.64(comp), 1.14(filt), 1.14(core), lmax=2
  valence states:
                energy  radius
    2s(2.00)   -13.751   0.635
    2p(2.00)    -5.284   0.635
    *s          13.461   0.635
    *p          21.927   0.635
    *d           0.000   0.635

  LCAO basis set for C:
    Name: dzp
    File: /home/esb/DFT/gpaw-setups-0.8.7929/C.dzp.basis.gz
    Number of radial functions: 5
    Number of spherical harmonics: 13
      l=0, rc=5.5469 Bohr: 2s-sz confined orbital
      l=1, rc=6.6719 Bohr: 2p-sz confined orbital
      l=0, rc=3.0312 Bohr: 2s-dz split-valence wave
      l=1, rc=3.7500 Bohr: 2p-dz split-valence wave
      l=2, rc=6.6719 Bohr: d-type Gaussian polarization

Reference energy: -24663.074771

Spin-paired calculation

Occupation numbers:
  Fermi-Dirac: width=0.1000 eV

Convergence criteria:
  Maximum total energy change: 0.0005 eV / electron
  Maximum integral of absolute density change: 0.0001 electrons
  Maximum integral of absolute eigenstate change: 4e-08 eV^2
  Maximum number of iterations: 99

Symmetries present (total): 1

  ( 1  0  0)
  ( 0  1  0)
  ( 0  0  1)

1 k-point (Gamma)
1 k-point in the irreducible part of the Brillouin zone
       k-points in crystal coordinates                weights
   0:     0.00000000    0.00000000    0.00000000          1/1

Wave functions: LCAO
  Diagonalizer: Serial LAPACK
  Atomic Correction: dense with blas
  Datatype: float
  Eigensolver: None 

LCAO using direct dense diagonalizer 

Densities:
  Coarse grid: 80*80*48 grid
  Fine grid: 160*160*96 grid
  Total Charge: 0.000000 

Density mixing:
  Method: separate
  Backend: pulay
  Linear mixing parameter: 0.05
  Mixing with 5 old densities
  Damping of long wave oscillations: 75 

Hamiltonian:
  XC and Coulomb potentials evaluated on a 160*160*96 grid
  Using the PBE Exchange-Correlation functional
  Interpolation: tri-quintic (5. degree polynomial)
  Poisson solver: Gauss-Seidel solver with 6 multi-grid levels
    Coarsest grid: 5 x 5 x 3 points
    Stencil: 6*3+1=19 point O(h^6) finite-difference Laplacian
    Max iterations: 1000
    Tolerance: 1.000000e-07 

Memory estimate:
  Process memory now: 77.60 MiB
  Calculator: 15.59 MiB
    Density: 6.13 MiB
      Arrays: 3.81 MiB
      Localized functions: 0.86 MiB
      Mixer: 1.46 MiB
    Hamiltonian: 5.40 MiB
      Arrays: 2.49 MiB
      XC: 0.00 MiB
      Poisson: 2.85 MiB
      vbar: 0.07 MiB
    Wavefunctions: 4.05 MiB
      C [qnM]: 0.23 MiB
      S, T [2 x qmm]: 1.49 MiB
      P [aqMi]: 0.01 MiB
      TCI: 0.00 MiB
      BasisFunctions: 2.33 MiB
      Eigensolver: 0.00 MiB

Total number of cores used: 16
Domain decomposition: 2 x 4 x 2

Number of atoms: 24
Number of atomic orbitals: 312
Number of bands in calculation: 98
Bands to converge: occupied states only
Number of valence electrons: 96

... initialized

Initializing position-dependent things.

Density initialized from atomic densities
           .--------------------------------------.  
          /|                                      |  
         / |                                      |  
        /  |                                      |  
       /   |                                      |  
      /    |                                      |  
     /     |                                      |  
    /      |                                      |  
   /       |                                      |  
  /        |          C  C   C                    |  
 *         |    C   CC   C  C     C               |  
 |         |     C    C C      C                  |  
 |         .--CC----C--C----C---C-----------------.  
 |        /        C  C                          /   
 |       /        C         CC                  /    
 |      /                                      /     
 |     /                                      /      
 |    /                                      /       
 |   /                                      /        
 |  /                                      /         
 | /                                      /          
 |/                                      /           
 *--------------------------------------*            

Positions:
   0 C      6.798267    7.197296    5.528725
   1 C      3.770807    9.086746    4.967576
   2 C      4.064985    5.843754    5.108362
   3 C      7.172544    8.036998    4.732560
   4 C     10.188070    5.134088    4.315383
   5 C      6.029880    5.079312    4.855251
   6 C      6.320630    6.170181    4.793428
   7 C      7.683250    7.777461    5.656922
   8 C      7.310994   10.497992    5.418283
   9 C     10.878968   10.267136    4.916967
  10 C      6.108701    8.398065    5.218815
  11 C      9.837120    4.046108    4.390808
  12 C      6.191147    3.433497    4.857332
  13 C     10.286048    8.082284    4.643366
  14 C     11.103978    6.927979    5.078921
  15 C      9.399028    6.175472    4.723665
  16 C      7.952378    3.275138    5.542182
  17 C      7.350161    5.765792    5.108196
  18 C      4.995025   10.338633    4.480273
  19 C      4.844655    6.674409    5.675747
  20 C      5.982582    9.499641    5.594604
  21 C      8.520277   10.029684    4.406220
  22 C      3.434461    7.106680    4.260984
  23 C      9.189060    9.259645    5.705846

Unit cell:
           periodic     x           y           z      points  spacing
  1. axis:    yes   16.000000    0.000000    0.000000    80     0.2000
  2. axis:    yes    0.000000   16.000000    0.000000    80     0.2000
  3. axis:    yes    0.000000    0.000000   10.000000    48     0.2083

Effective grid spacing dv^(1/3) = 0.2027

                     log10-error:    total        iterations:
           time      wfs    density  energy       fermi  poisson
iter:   1  14:13:05          +inf  -117.897622    3      6      
iter:   2  14:13:05         -0.84  -113.983104    3      3      
iter:   3  14:13:06         -0.90  -110.858617    3      3      
iter:   4  14:13:07         -0.96  -110.259276    3      2      
iter:   5  14:13:07         -1.02  -109.073929    3      3      
iter:   6  14:13:08         -1.16  -108.409528    3      3      
iter:   7  14:13:08         -1.28  -108.026271    3      3      
iter:   8  14:13:09         -1.52  -107.953581    3      2      
iter:   9  14:13:10         -1.64  -107.929127    3      3      
iter:  10  14:13:10         -1.79  -107.908532    2      2      
iter:  11  14:13:11         -1.90  -107.893767    3      2      
iter:  12  14:13:11         -2.03  -107.882678    3      3      
iter:  13  14:13:12         -2.32  -107.883164    2      2      
iter:  14  14:13:12         -2.43  -107.882812    3      2      
iter:  15  14:13:13         -2.76  -107.883818    2      1      
iter:  16  14:13:14         -2.82  -107.879572    3      2      
iter:  17  14:13:14         -3.08  -107.879575    2      1      
iter:  18  14:13:15         -3.18  -107.878075    2      1      
iter:  19  14:13:15         -3.35  -107.876625    2      1      
iter:  20  14:13:16         -3.46  -107.877662    2      1      
iter:  21  14:13:16         -3.60  -107.879137    2      1      
iter:  22  14:13:17         -3.69  -107.879240    2      1      
iter:  23  14:13:17         -3.80  -107.878369    2      1      
iter:  24  14:13:18         -4.07  -107.878695    2      1      

Converged after 24 iterations.

Dipole moment: (-0.034607, 0.216478, 0.106203) |e|*Ang

Energy contributions relative to reference atoms: (reference = -24663.074771)

Kinetic:       +241.555907
Potential:     -193.595979
External:        +0.000000
XC:            -158.449105
Entropy (-ST):   -0.308406
Local:           +2.764685
--------------------------
Free energy:   -108.032898
Extrapolated:  -107.878695

Fermi level: -4.86527

 Band  Eigenvalues  Occupancy
    0    -33.18281    2.00000
    1    -28.27386    2.00000
    2    -23.14027    2.00000
    3    -21.44392    2.00000
    4    -21.22266    2.00000
    5    -21.02667    2.00000
    6    -19.94518    2.00000
    7    -18.97229    2.00000
    8    -18.34647    2.00000
    9    -16.98959    2.00000
   10    -16.39241    2.00000
   11    -16.24392    2.00000
   12    -16.01599    2.00000
   13    -15.61876    2.00000
   14    -15.17013    2.00000
   15    -14.20764    2.00000
   16    -13.72507    2.00000
   17    -13.12867    2.00000
   18    -13.01738    2.00000
   19    -12.62373    2.00000
   20    -12.48845    2.00000
   21    -11.84708    2.00000
   22    -11.50025    2.00000
   23    -11.03002    2.00000
   24    -10.57074    2.00000
   25    -10.03877    2.00000
   26     -9.41424    2.00000
   27     -9.27053    2.00000
   28     -8.97704    2.00000
   29     -8.73961    2.00000
   30     -8.41650    2.00000
   31     -8.24707    2.00000
   32     -8.05388    2.00000
   33     -7.78730    2.00000
   34     -7.40704    2.00000
   35     -7.31160    2.00000
   36     -7.04090    2.00000
   37     -6.82101    2.00000
   38     -6.72029    2.00000
   39     -6.60156    2.00000
   40     -6.36892    2.00000
   41     -6.12316    1.99999
   42     -5.82278    1.99986
   43     -5.58307    1.99847
   44     -5.44106    1.99370
   45     -5.26817    1.96504
   46     -5.12518    1.86160
   47     -5.02464    1.66225
   48     -4.73973    0.44352
   49     -4.50045    0.05075
   50     -4.41398    0.02169
   51     -4.18755    0.00228
   52     -4.06742    0.00069
   53     -3.88281    0.00011
   54     -3.72989    0.00002
   55     -3.61796    0.00001
   56     -3.49659    0.00000
   57     -3.26244    0.00000
   58     -3.13664    0.00000
   59     -2.82944    0.00000
   60     -2.43762    0.00000
   61     -2.35872    0.00000
   62     -1.95394    0.00000
   63     -1.87523    0.00000
   64     -1.33579    0.00000
   65     -1.13329    0.00000
   66     -0.56857    0.00000
   67     -0.18571    0.00000
   68     -0.11673    0.00000
   69      0.14338    0.00000
   70      0.53876    0.00000
   71      0.81659    0.00000
   72      1.37918    0.00000
   73      1.64918    0.00000
   74      1.84462    0.00000
   75      2.42160    0.00000
   76      2.73115    0.00000
   77      2.87272    0.00000
   78      3.00096    0.00000
   79      3.61141    0.00000
   80      3.73808    0.00000
   81      4.45171    0.00000
   82      4.76700    0.00000
   83      4.96462    0.00000
   84      6.14918    0.00000
   85      6.96331    0.00000
   86      7.30520    0.00000
   87      7.68487    0.00000
   88      8.10950    0.00000
   89      8.25977    0.00000
   90      8.80312    0.00000
   91      8.91568    0.00000
   92      9.13319    0.00000
   93      9.26007    0.00000
   94      9.34117    0.00000
   95      9.45591    0.00000
   96      9.56624    0.00000
   97      9.70296    0.00000


Forces in eV/Ang:
  0 C   -31.16449  -28.88874   10.12062
  1 C     2.83346    1.11826   -1.67990
  2 C    -5.95417    0.19975   -4.39943
  3 C     2.04160   14.58168  -40.72280
  4 C     3.26169   14.71004   -0.77893
  5 C    -6.60800  -31.18820   -0.50448
  6 C   -11.19524   22.49807  -10.63271
  7 C    47.83753   14.03689   29.84056
  8 C     0.43917   -2.67212   -2.58398
  9 C    -3.46712   -2.71856    0.55694
 10 C   -10.91630   -5.30794   -2.17150
 11 C    -5.75827  -16.87430    1.46039
 12 C     2.82391    4.96747    1.33169
 13 C     1.08555   -1.12325    3.26329
 14 C    -2.50354    3.58680   -1.31108
 15 C     0.56209    3.33374   -0.11550
 16 C    -2.65056    1.49823   -2.17567
 17 C    22.98496  -12.08347    6.24041
 18 C    -1.96493   -4.78698    3.74157
 19 C    -2.35516    4.97431    3.67764
 20 C    -2.54672   21.42191    2.88426
 21 C    -1.19777    0.81536    5.60495
 22 C     2.31868   -1.39214    3.22878
 23 C     2.04987   -0.58558   -4.84090

System changes: positions 

Initializing position-dependent things.

Density initialized from wave functions
           .--------------------------------------.  
          /|                                      |  
         / |                                      |  
        /  |                                      |  
       /   |                                      |  
      /    |                                      |  
     /     |                                      |  
    /      |                                      |  
   /       |                                      |  
  /        |          C  C   C                    |  
 *         |    C   CC   C  C     C               |  
 |         |     C    C C      C                  |  
 |         .--CC----C--C----C---C-----------------.  
 |        /        C  C                          /   
 |       /        C        C C                  /    
 |      /                                      /     
 |     /                                      /      
 |    /                                      /       
 |   /                                      /        
 |  /                                      /         
 | /                                      /          
 |/                                      /           
 *--------------------------------------*            

Positions:
   0 C      6.776812    7.177408    5.535692
   1 C      3.772758    9.087516    4.966419
   2 C      4.060886    5.843891    5.105333
   3 C      7.173949    8.047037    4.704524
   4 C     10.190315    5.144215    4.314847
   5 C      6.025331    5.057841    4.854903
   6 C      6.312923    6.185669    4.786108
   7 C      7.716183    7.787125    5.677465
   8 C      7.311296   10.496153    5.416504
   9 C     10.876581   10.265264    4.917350
  10 C      6.101186    8.394411    5.217320
  11 C      9.833156    4.034491    4.391813
  12 C      6.193091    3.436917    4.858249
  13 C     10.286795    8.081511    4.645612
  14 C     11.102254    6.930449    5.078018
  15 C      9.399415    6.177767    4.723585
  16 C      7.950553    3.276170    5.540685
  17 C      7.365985    5.757473    5.112493
  18 C      4.993672   10.335338    4.482848
  19 C      4.843033    6.677834    5.678279
  20 C      5.980828    9.514388    5.596589
  21 C      8.519452   10.030245    4.410079
  22 C      3.436057    7.105722    4.263207
  23 C      9.190471    9.259242    5.702514

Unit cell:
           periodic     x           y           z      points  spacing
  1. axis:    yes   16.000000    0.000000    0.000000    80     0.2000
  2. axis:    yes    0.000000   16.000000    0.000000    80     0.2000
  3. axis:    yes    0.000000    0.000000   10.000000    48     0.2083

Effective grid spacing dv^(1/3) = 0.2027

                     log10-error:    total        iterations:
           time      wfs    density  energy       fermi  poisson
iter:   1  14:13:20          +inf  -114.687658    3      5      
iter:   2  14:13:20         -1.95  -114.632038    3      2      
iter:   3  14:13:21         -2.10  -114.601523    3      2      
iter:   4  14:13:21         -2.18  -114.581177    3      2      
iter:   5  14:13:22         -2.30  -114.570706    3      2      
iter:   6  14:13:23         -2.45  -114.564176    2      2      
iter:   7  14:13:23         -2.66  -114.560716    2      2      
iter:   8  14:13:24         -2.85  -114.559344    2      2      
iter:   9  14:13:24         -2.99  -114.560380    2      1      
iter:  10  14:13:25         -3.12  -114.559624    2      1      
iter:  11  14:13:25         -3.25  -114.558013    2      1      
iter:  12  14:13:26         -3.45  -114.557890    2      1      
iter:  13  14:13:26         -3.60  -114.557607    2      1      
iter:  14  14:13:27         -3.73  -114.556381    2      1      
iter:  15  14:13:28         -3.99  -114.558048    2      1      
iter:  16  14:13:28         -4.07  -114.558710    2      1      

Converged after 16 iterations.

Dipole moment: (-0.004511, 0.217822, 0.115615) |e|*Ang

Energy contributions relative to reference atoms: (reference = -24663.074771)

Kinetic:       +206.940134
Potential:     -170.391424
External:        +0.000000
XC:            -153.580108
Entropy (-ST):   -0.311443
Local:           +2.628409
--------------------------
Free energy:   -114.714431
Extrapolated:  -114.558710

Fermi level: -4.86360

 Band  Eigenvalues  Occupancy
    0    -32.16546    2.00000
    1    -27.82911    2.00000
    2    -22.76945    2.00000
    3    -21.39320    2.00000
    4    -21.19530    2.00000
    5    -20.73078    2.00000
    6    -19.71014    2.00000
    7    -18.92174    2.00000
    8    -18.35310    2.00000
    9    -16.71961    2.00000
   10    -16.40287    2.00000
   11    -16.17029    2.00000
   12    -15.98335    2.00000
   13    -15.42264    2.00000
   14    -15.11082    2.00000
   15    -14.07443    2.00000
   16    -13.53832    2.00000
   17    -13.09626    2.00000
   18    -13.05247    2.00000
   19    -12.52778    2.00000
   20    -12.29785    2.00000
   21    -11.80334    2.00000
   22    -11.34186    2.00000
   23    -10.85533    2.00000
   24    -10.51029    2.00000
   25    -10.03548    2.00000
   26     -9.40851    2.00000
   27     -9.28604    2.00000
   28     -8.97492    2.00000
   29     -8.68071    2.00000
   30     -8.43220    2.00000
   31     -8.23429    2.00000
   32     -8.05906    2.00000
   33     -7.67696    2.00000
   34     -7.41989    2.00000
   35     -7.31744    2.00000
   36     -7.03465    2.00000
   37     -6.81261    2.00000
   38     -6.69943    2.00000
   39     -6.63771    2.00000
   40     -6.40950    2.00000
   41     -6.13065    1.99999
   42     -5.84394    1.99989
   43     -5.58651    1.99855
   44     -5.41483    1.99196
   45     -5.28502    1.97086
   46     -5.12775    1.86697
   47     -5.01860    1.64983
   48     -4.73470    0.43204
   49     -4.52178    0.06347
   50     -4.41508    0.02230
   51     -4.22255    0.00328
   52     -4.06917    0.00071
   53     -3.89045    0.00012
   54     -3.73231    0.00002
   55     -3.61787    0.00001
   56     -3.48236    0.00000
   57     -3.22724    0.00000
   58     -3.13058    0.00000
   59     -2.80055    0.00000
   60     -2.45035    0.00000
   61     -2.39811    0.00000
   62     -1.93028    0.00000
   63     -1.89343    0.00000
   64     -1.34208    0.00000
   65     -1.13110    0.00000
   66     -0.65099    0.00000
   67     -0.25061    0.00000
   68     -0.18268    0.00000
   69      0.10581    0.00000
   70      0.48663    0.00000
   71      0.78726    0.00000
   72      1.38343    0.00000
   73      1.66073    0.00000
   74      1.89481    0.00000
   75      2.29338    0.00000
   76      2.73686    0.00000
   77      2.93035    0.00000
   78      3.03030    0.00000
   79      3.59538    0.00000
   80      3.74414    0.00000
   81      4.53094    0.00000
   82      4.80706    0.00000
   83      4.98347    0.00000
   84      6.13384    0.00000
   85      6.88807    0.00000
   86      7.31461    0.00000
   87      7.73417    0.00000
   88      8.05771    0.00000
   89      8.15756    0.00000
   90      8.78572    0.00000
   91      8.87473    0.00000
   92      9.10557    0.00000
   93      9.24222    0.00000
   94      9.31368    0.00000
   95      9.42741    0.00000
   96      9.54102    0.00000
   97      9.65449    0.00000


Forces in eV/Ang:
  0 C   -20.04919  -18.69613    9.49007
  1 C     2.82342    1.18597   -1.69460
  2 C    -5.71608    0.39900   -4.28703
  3 C     3.97276   10.04079  -30.43680
  4 C     2.47762   11.68880   -0.64189
  5 C    -4.75381  -26.06400   -0.64411
  6 C    -9.13733   15.30583   -9.99762
  7 C    33.35754   10.03153   20.92352
  8 C     0.33666   -2.63883   -2.52587
  9 C    -3.35953   -2.69487    0.54947
 10 C    -9.53275   -4.19353   -1.47889
 11 C    -4.78317  -13.90558    1.24519
 12 C     2.81774    4.95253    1.32622
 13 C     1.07093   -0.99116    3.23157
 14 C    -2.44104    3.49365   -1.28399
 15 C     0.38896    3.35060   -0.02139
 16 C    -2.68647    1.54520   -2.17110
 17 C    18.75145  -10.79151    5.04545
 18 C    -2.02691   -4.77431    3.75784
 19 C    -2.47231    4.80955    3.58802
 20 C    -2.06329   19.48022    2.11572
 21 C    -1.29481    0.74620    5.61229
 22 C     2.32029   -1.42150    3.20774
 23 C     2.02867   -0.71702   -4.89875

System changes: positions 

Initializing position-dependent things.

Density initialized from wave functions
           .--------------------------------------.  
          /|                                      |  
         / |                                      |  
        /  |                                      |  
       /   |                                      |  
      /    |                                      |  
     /     |                                      |  
    /      |                                      |  
   /       |                                      |  
  /        |          C  C   C                    |  
 *         |    C   CC   C  C     C               |  
 |         |     C    C C      C                  |  
 |         .--CC----C--C----C---C-----------------.  
 |        /        C  C                          /   
 |       /        C        C C                  /    
 |      /                                      /     
 |     /                                      /      
 |    /                                      /       
 |   /                                      /        
 |  /                                      /         
 | /                                      /          
 |/                                      /           
 *--------------------------------------*            

Positions:
   0 C      6.785775    7.184820    5.556855
   1 C      3.780028    9.090964    4.961942
   2 C      4.047362    5.846019    5.094827
   3 C      7.194851    8.048175    4.681988
   4 C     10.192442    5.157967    4.313934
   5 C      6.023170    5.018331    4.852466
   6 C      6.300506    6.185922    4.763654
   7 C      7.723289    7.791177    5.682831
   8 C      7.311607   10.489489    5.410269
   9 C     10.868455   10.258403    4.918735
  10 C      6.084044    8.389645    5.217283
  11 C      9.826095    4.014700    4.393863
  12 C      6.200368    3.449684    4.861659
  13 C     10.289493    8.079664    4.653822
  14 C     11.096264    6.939002    5.074836
  15 C      9.399475    6.186552    4.724046
  16 C      7.943386    3.280436    5.535077
  17 C      7.391409    5.736563    5.119027
  18 C      4.988073   10.323020    4.492687
  19 C      4.835976    6.689408    5.687096
  20 C      5.978127    9.554277    5.597862
  21 C      8.515561   10.031802    4.424680
  22 C      3.442086    7.101873    4.271414
  23 C      9.195618    9.256661    5.689487

Unit cell:
           periodic     x           y           z      points  spacing
  1. axis:    yes   16.000000    0.000000    0.000000    80     0.2000
  2. axis:    yes    0.000000   16.000000    0.000000    80     0.2000
  3. axis:    yes    0.000000    0.000000   10.000000    48     0.2083

Effective grid spacing dv^(1/3) = 0.2027

                     log10-error:    total        iterations:
           time      wfs    density  energy       fermi  poisson
iter:   1  14:13:30          +inf  -119.846592    3      5      
iter:   2  14:13:31         -1.61  -119.631698    2      2      
iter:   3  14:13:31         -1.85  -119.554404    2      2      
iter:   4  14:13:32         -2.07  -119.546479    2      2      
iter:   5  14:13:32         -2.20  -119.540249    2      2      
iter:   6  14:13:33         -2.28  -119.535518    2      2      
iter:   7  14:13:33         -2.48  -119.533702    2      2      
iter:   8  14:13:34         -2.63  -119.532022    2      2      
iter:   9  14:13:35         -2.75  -119.530848    2      2      
iter:  10  14:13:35         -2.97  -119.530418    2      2      
iter:  11  14:13:36         -3.17  -119.532095    2      1      
iter:  12  14:13:36         -3.28  -119.528319    2      1      
iter:  13  14:13:37         -3.49  -119.528669    2      1      
iter:  14  14:13:37         -3.60  -119.530750    2      1      
iter:  15  14:13:38         -3.81  -119.529444    2      1      
iter:  16  14:13:38         -3.99  -119.530065    2      1      
iter:  17  14:13:39         -4.08  -119.530216    2      1      

Converged after 17 iterations.

Dipole moment: (0.007907, 0.211258, 0.148524) |e|*Ang

Energy contributions relative to reference atoms: (reference = -24663.074771)

Kinetic:       +179.038948
Potential:     -151.193435
External:        +0.000000
XC:            -149.827299
Entropy (-ST):   -0.304121
Local:           +2.603630
--------------------------
Free energy:   -119.682277
Extrapolated:  -119.530216

Fermi level: -4.84781

 Band  Eigenvalues  Occupancy
    0    -31.65365    2.00000
    1    -27.07909    2.00000
    2    -22.46083    2.00000
    3    -21.23541    2.00000
    4    -21.09112    2.00000
    5    -20.28044    2.00000
    6    -19.56541    2.00000
    7    -18.89092    2.00000
    8    -18.38288    2.00000
    9    -16.60779    2.00000
   10    -16.47015    2.00000
   11    -16.19974    2.00000
   12    -15.89516    2.00000
   13    -15.37864    2.00000
   14    -15.03551    2.00000
   15    -14.05636    2.00000
   16    -13.39742    2.00000
   17    -13.02910    2.00000
   18    -13.00643    2.00000
   19    -12.45659    2.00000
   20    -12.16393    2.00000
   21    -11.82399    2.00000
   22    -11.21030    2.00000
   23    -10.72401    2.00000
   24    -10.46193    2.00000
   25    -10.02665    2.00000
   26     -9.40522    2.00000
   27     -9.29687    2.00000
   28     -8.95815    2.00000
   29     -8.66430    2.00000
   30     -8.47981    2.00000
   31     -8.23905    2.00000
   32     -8.01980    2.00000
   33     -7.64970    2.00000
   34     -7.39651    2.00000
   35     -7.27643    2.00000
   36     -7.01132    2.00000
   37     -6.84335    2.00000
   38     -6.73048    2.00000
   39     -6.68058    2.00000
   40     -6.41688    2.00000
   41     -6.11953    1.99999
   42     -5.86749    1.99993
   43     -5.65430    1.99937
   44     -5.40017    1.99205
   45     -5.32274    1.98283
   46     -5.14901    1.90623
   47     -4.98549    1.59694
   48     -4.71696    0.42547
   49     -4.51543    0.06953
   50     -4.39720    0.02184
   51     -4.24489    0.00480
   52     -4.07028    0.00084
   53     -3.88408    0.00013
   54     -3.75676    0.00004
   55     -3.57585    0.00001
   56     -3.44640    0.00000
   57     -3.15637    0.00000
   58     -3.11897    0.00000
   59     -2.81850    0.00000
   60     -2.43809    0.00000
   61     -2.40664    0.00000
   62     -1.90564    0.00000
   63     -1.86132    0.00000
   64     -1.33641    0.00000
   65     -1.10645    0.00000
   66     -0.68764    0.00000
   67     -0.29843    0.00000
   68     -0.17308    0.00000
   69      0.11640    0.00000
   70      0.45945    0.00000
   71      0.76692    0.00000
   72      1.44439    0.00000
   73      1.72192    0.00000
   74      1.96061    0.00000
   75      2.28434    0.00000
   76      2.66039    0.00000
   77      3.13440    0.00000
   78      3.20480    0.00000
   79      3.75152    0.00000
   80      3.90092    0.00000
   81      4.72045    0.00000
   82      4.83068    0.00000
   83      5.19684    0.00000
   84      6.19154    0.00000
   85      6.78213    0.00000
   86      7.45371    0.00000
   87      7.65427    0.00000
   88      7.98854    0.00000
   89      8.04791    0.00000
   90      8.75761    0.00000
   91      8.81838    0.00000
   92      9.02982    0.00000
   93      9.23027    0.00000
   94      9.26933    0.00000
   95      9.40348    0.00000
   96      9.49493    0.00000
   97      9.62881    0.00000


Forces in eV/Ang:
  0 C   -20.99619  -18.95117    7.89122
  1 C     2.84660    1.21805   -1.68285
  2 C    -5.09296    1.16428   -3.84538
  3 C     1.97351    9.24801  -26.46375
  4 C     1.27507    7.77667   -0.40579
  5 C    -3.09122  -21.40947   -0.49314
  6 C    -5.49871   10.45555   -7.60191
  7 C    32.70198   11.12891   18.91046
  8 C     0.34679   -2.54224   -2.46450
  9 C    -3.34404   -2.72805    0.60426
 10 C    -7.43563   -2.15995   -1.15693
 11 C    -3.51131   -9.95481    0.99614
 12 C     2.74252    4.81852    1.25708
 13 C     0.90647   -0.70374    3.13256
 14 C    -2.27950    3.21992   -1.20244
 15 C     0.22635    3.16886    0.04359
 16 C    -2.67548    1.68885   -2.14675
 17 C    13.74342   -8.49150    3.73766
 18 C    -2.12294   -4.69263    3.76984
 19 C    -2.65035    4.04758    2.81706
 20 C    -1.04401   15.28829    0.47823
 21 C    -1.38543    0.76341    5.54821
 22 C     2.29548   -1.52618    3.14572
 23 C     2.16048   -0.81331   -4.85728

System changes: positions 

Initializing position-dependent things.

Density initialized from wave functions
           .--------------------------------------.  
          /|                                      |  
         / |                                      |  
        /  |                                      |  
       /   |                                      |  
      /    |                                      |  
     /     |                                      |  
    /      |                                      |  
   /       |                                      |  
  /        |          C  C   C                    |  
 *         |    C   CC   C  C     C               |  
 |         |     C    C C      C                  |  
 |         .--C-----C--C----C---C-----------------.  
 |        /        C  C                          /   
 |       /        C        C C                  /    
 |      /                                      /     
 |     /                                      /      
 |    /                                      /       
 |   /                                      /        
 |  /                                      /         
 | /                                      /          
 |/                                      /           
 *--------------------------------------*            

Positions:
   0 C      6.774602    7.178421    5.581660
   1 C      3.793123    9.097234    4.954137
   2 C      4.028361    5.856035    5.079824
   3 C      7.211394    8.051094    4.658753
   4 C     10.187196    5.153807    4.314114
   5 C      6.030492    4.979670    4.849685
   6 C      6.306315    6.156872    4.743408
   7 C      7.754863    7.814609    5.690181
   8 C      7.312420   10.478459    5.399654
   9 C     10.854010   10.245921    4.921672
  10 C      6.069366    8.396802    5.218809
  11 C      9.822872    4.008583    4.395718
  12 C      6.212622    3.471174    4.867116
  13 C     10.292883    8.078640    4.667569
  14 C     11.086936    6.951957    5.069853
  15 C      9.398475    6.200524    4.725261
  16 C      7.930845    3.289151    5.525344
  17 C      7.400562    5.717111    5.121384
  18 C      4.977434   10.301881    4.510192
  19 C      4.822142    6.703637    5.696236
  20 C      5.981290    9.592176    5.587336
  21 C      8.508052   10.034825    4.449982
  22 C      3.452549    7.094203    4.285455
  23 C      9.205906    9.251483    5.666864

Unit cell:
           periodic     x           y           z      points  spacing
  1. axis:    yes   16.000000    0.000000    0.000000    80     0.2000
  2. axis:    yes    0.000000   16.000000    0.000000    80     0.2000
  3. axis:    yes    0.000000    0.000000   10.000000    48     0.2083

Effective grid spacing dv^(1/3) = 0.2027

                     log10-error:    total        iterations:
           time      wfs    density  energy       fermi  poisson
iter:   1  14:13:41          +inf  -125.249586    2      5      
iter:   2  14:13:41         -1.53  -124.939046    2      2      
iter:   3  14:13:42         -1.78  -124.818504    2      2      
iter:   4  14:13:42         -2.03  -124.809016    2      2      
iter:   5  14:13:43         -2.13  -124.800335    2      2      
iter:   6  14:13:44         -2.27  -124.791705    2      2      
iter:   7  14:13:44         -2.48  -124.792172    2      2      
iter:   8  14:13:45         -2.62  -124.791190    2      2      
iter:   9  14:13:45         -2.70  -124.789903    2      2      
iter:  10  14:13:46         -2.97  -124.789241    2      1      
iter:  11  14:13:46         -3.09  -124.789229    2      1      
iter:  12  14:13:47         -3.21  -124.789525    2      1      
iter:  13  14:13:47         -3.42  -124.789373    2      1      
iter:  14  14:13:48         -3.58  -124.789984    1      1      
iter:  15  14:13:49         -3.65  -124.790116    2      1      
iter:  16  14:13:49         -3.73  -124.789894    2      1      
iter:  17  14:13:50         -3.95  -124.790206    2      1      
iter:  18  14:13:50         -4.11  -124.790179    2      1      

Converged after 18 iterations.

Dipole moment: (-0.010511, 0.216464, 0.170367) |e|*Ang

Energy contributions relative to reference atoms: (reference = -24663.074771)

Kinetic:       +157.622789
Potential:     -136.885427
External:        +0.000000
XC:            -147.993602
Entropy (-ST):   -0.295376
Local:           +2.613750
--------------------------
Free energy:   -124.937867
Extrapolated:  -124.790179

Fermi level: -4.83776

 Band  Eigenvalues  Occupancy
    0    -30.69070    2.00000
    1    -26.69925    2.00000
    2    -22.20621    2.00000
    3    -21.19668    2.00000
    4    -20.97355    2.00000
    5    -20.01476    2.00000
    6    -19.53702    2.00000
    7    -18.74841    2.00000
    8    -18.46601    2.00000
    9    -16.85575    2.00000
   10    -16.36531    2.00000
   11    -16.16076    2.00000
   12    -15.84794    2.00000
   13    -15.36156    2.00000
   14    -14.92306    2.00000
   15    -14.11324    2.00000
   16    -13.50035    2.00000
   17    -13.01035    2.00000
   18    -12.84607    2.00000
   19    -12.44884    2.00000
   20    -12.09844    2.00000
   21    -11.72182    2.00000
   22    -11.19175    2.00000
   23    -10.60901    2.00000
   24    -10.40749    2.00000
   25     -9.99728    2.00000
   26     -9.43222    2.00000
   27     -9.40336    2.00000
   28     -8.95142    2.00000
   29     -8.62078    2.00000
   30     -8.50474    2.00000
   31     -8.26762    2.00000
   32     -7.97540    2.00000
   33     -7.67999    2.00000
   34     -7.39582    2.00000
   35     -7.28399    2.00000
   36     -7.04171    2.00000
   37     -6.91002    2.00000
   38     -6.80112    2.00000
   39     -6.71037    2.00000
   40     -6.47084    2.00000
   41     -6.12802    2.00000
   42     -5.93068    1.99996
   43     -5.66367    1.99948
   44     -5.41193    1.99360
   45     -5.36629    1.98992
   46     -5.17380    1.93289
   47     -4.96340    1.55684
   48     -4.71067    0.43821
   49     -4.49349    0.06198
   50     -4.38004    0.02036
   51     -4.25101    0.00564
   52     -4.07231    0.00095
   53     -3.86756    0.00012
   54     -3.75659    0.00004
   55     -3.51985    0.00000
   56     -3.38944    0.00000
   57     -3.09080    0.00000
   58     -3.02965    0.00000
   59     -2.81846    0.00000
   60     -2.41121    0.00000
   61     -2.39809    0.00000
   62     -1.87995    0.00000
   63     -1.77233    0.00000
   64     -1.28481    0.00000
   65     -1.03888    0.00000
   66     -0.61996    0.00000
   67     -0.25458    0.00000
   68     -0.06650    0.00000
   69      0.18719    0.00000
   70      0.46184    0.00000
   71      0.83699    0.00000
   72      1.57533    0.00000
   73      1.82658    0.00000
   74      2.11458    0.00000
   75      2.47430    0.00000
   76      2.68632    0.00000
   77      3.36187    0.00000
   78      3.56494    0.00000
   79      4.05770    0.00000
   80      4.21967    0.00000
   81      4.73163    0.00000
   82      5.32089    0.00000
   83      5.55544    0.00000
   84      6.32316    0.00000
   85      6.77948    0.00000
   86      7.47450    0.00000
   87      7.58770    0.00000
   88      7.95987    0.00000
   89      8.11225    0.00000
   90      8.72779    0.00000
   91      8.77844    0.00000
   92      8.99775    0.00000
   93      9.18319    0.00000
   94      9.28017    0.00000
   95      9.39149    0.00000
   96      9.39292    0.00000
   97      9.58344    0.00000


Forces in eV/Ang:
  0 C   -15.32123  -14.12759    6.77198
  1 C     2.92575    1.33415   -1.59257
  2 C    -4.41430    1.70564   -3.40178
  3 C     0.65151    7.12122  -21.09253
  4 C     0.75197    7.76967   -0.36654
  5 C    -2.83078  -20.02074   -0.33113
  6 C    -4.73905   10.38260   -6.79247
  7 C    24.95272    8.27165   14.66113
  8 C     0.49700   -2.35292   -2.38792
  9 C    -3.29429   -2.70682    0.69678
 10 C    -5.41049   -2.13637   -1.18901
 11 C    -3.39758   -9.61296    0.98685
 12 C     2.77255    4.51635    1.21911
 13 C     0.68456   -0.20615    2.99954
 14 C    -2.10668    2.96223   -1.02157
 15 C     0.65116    2.60213    0.00996
 16 C    -2.65386    1.71312   -2.09316
 17 C    13.00084   -7.59561    3.71575
 18 C    -2.33752   -4.60074    3.62371
 19 C    -2.80297    3.47561    2.37976
 20 C    -0.46934   13.11478   -0.32107
 21 C    -1.60844    0.79675    5.40959
 22 C     2.22387   -1.54054    2.93877
 23 C     2.25020   -1.02955   -4.87826

System changes: positions 

Initializing position-dependent things.

Density initialized from wave functions
           .--------------------------------------.  
          /|                                      |  
         / |                                      |  
        /  |                                      |  
       /   |                                      |  
      /    |                                      |  
     /     |                                      |  
    /      |                                      |  
   /       |                                      |  
  /        |          C  C   C                    |  
 *         |    C   CC   C  C     C               |  
 |         |     C    C C      C                  |  
 |         .--C-----C--C----C---C-----------------.  
 |        /        C  C                          /   
 |       /        C        C C                  /    
 |      /                                      /     
 |     /                                      /      
 |    /                                      /       
 |   /                                      /        
 |  /                                      /         
 | /                                      /          
 |/                                      /           
 *--------------------------------------*            

Positions:
   0 C      6.773495    7.178399    5.598044
   1 C      3.806196    9.103876    4.947456
   2 C      4.014971    5.869326    5.068761
   3 C      7.210618    8.051009    4.648137
   4 C     10.180158    5.157396    4.314258
   5 C      6.034491    4.939881    4.848742
   6 C      6.312763    6.148418    4.729282
   7 C      7.769086    7.827559    5.690834
   8 C      7.314638   10.469353    5.390003
   9 C     10.840356   10.234147    4.925203
  10 C      6.067395    8.401190    5.218068
  11 C      9.818226    3.997940    4.397961
  12 C      6.224476    3.489288    4.872002
  13 C     10.294406    8.081146    4.679674
  14 C     11.079258    6.962487    5.066440
  15 C      9.401200    6.209384    4.725904
  16 C      7.919212    3.297521    5.516504
  17 C      7.414440    5.702403    5.126545
  18 C      4.965857   10.282496    4.525664
  19 C      4.808135    6.713033    5.701592
  20 C      5.987571    9.615982    5.572989
  21 C      8.499490   10.038161    4.472914
  22 C      3.461929    7.086862    4.297261
  23 C      9.216465    9.245286    5.645412

Unit cell:
           periodic     x           y           z      points  spacing
  1. axis:    yes   16.000000    0.000000    0.000000    80     0.2000
  2. axis:    yes    0.000000   16.000000    0.000000    80     0.2000
  3. axis:    yes    0.000000    0.000000   10.000000    48     0.2083

Effective grid spacing dv^(1/3) = 0.2027

                     log10-error:    total        iterations:
           time      wfs    density  energy       fermi  poisson
iter:   1  14:13:52          +inf  -128.563473    3      5      
iter:   2  14:13:53         -1.58  -128.303094    2      2      
iter:   3  14:13:53         -1.84  -128.201915    2      2      
iter:   4  14:13:54         -2.15  -128.197138    2      2      
iter:   5  14:13:54         -2.24  -128.192730    2      2      
iter:   6  14:13:55         -2.38  -128.186683    2      2      
iter:   7  14:13:55         -2.58  -128.188443    2      2      
iter:   8  14:13:56         -2.72  -128.187894    2      2      
iter:   9  14:13:57         -2.81  -128.186937    2      2      
iter:  10  14:13:57         -3.06  -128.184138    2      1      
iter:  11  14:13:58         -3.19  -128.184208    2      1      
iter:  12  14:13:58         -3.34  -128.187135    2      1      
iter:  13  14:13:59         -3.56  -128.186873    2      1      
iter:  14  14:13:59         -3.68  -128.187841    2      1      
iter:  15  14:14:00         -3.71  -128.187898    2      1      
iter:  16  14:14:00         -3.84  -128.186504    2      1      
iter:  17  14:14:01         -4.08  -128.187526    2      1      

Converged after 17 iterations.

Dipole moment: (-0.021653, 0.208944, 0.187022) |e|*Ang

Energy contributions relative to reference atoms: (reference = -24663.074771)

Kinetic:       +147.364074
Potential:     -130.228410
External:        +0.000000
XC:            -147.812110
Entropy (-ST):   -0.288949
Local:           +2.633394
--------------------------
Free energy:   -128.332000
Extrapolated:  -128.187526

Fermi level: -4.82206

 Band  Eigenvalues  Occupancy
    0    -30.30750    2.00000
    1    -26.28020    2.00000
    2    -22.12976    2.00000
    3    -21.22936    2.00000
    4    -20.90958    2.00000
    5    -19.97609    2.00000
    6    -19.51851    2.00000
    7    -18.69947    2.00000
    8    -18.51002    2.00000
    9    -17.07953    2.00000
   10    -16.51652    2.00000
   11    -16.00132    2.00000
   12    -15.83447    2.00000
   13    -15.36768    2.00000
   14    -14.85727    2.00000
   15    -14.17156    2.00000
   16    -13.66236    2.00000
   17    -13.01710    2.00000
   18    -12.71723    2.00000
   19    -12.39462    2.00000
   20    -12.10624    2.00000
   21    -11.66288    2.00000
   22    -11.16472    2.00000
   23    -10.53762    2.00000
   24    -10.40589    2.00000
   25    -10.00007    2.00000
   26     -9.51637    2.00000
   27     -9.44484    2.00000
   28     -8.95259    2.00000
   29     -8.63878    2.00000
   30     -8.51856    2.00000
   31     -8.31117    2.00000
   32     -7.93321    2.00000
   33     -7.71919    2.00000
   34     -7.39616    2.00000
   35     -7.31833    2.00000
   36     -7.08580    2.00000
   37     -6.95290    2.00000
   38     -6.85519    2.00000
   39     -6.71947    2.00000
   40     -6.49965    2.00000
   41     -6.14158    2.00000
   42     -5.98653    1.99998
   43     -5.65451    1.99952
   44     -5.43456    1.99563
   45     -5.40690    1.99425
   46     -5.17507    1.94306
   47     -4.94236    1.53811
   48     -4.69791    0.44836
   49     -4.46522    0.05485
   50     -4.35907    0.01932
   51     -4.23450    0.00560
   52     -4.07602    0.00115
   53     -3.85452    0.00013
   54     -3.73248    0.00004
   55     -3.46592    0.00000
   56     -3.32788    0.00000
   57     -3.02597    0.00000
   58     -2.94105    0.00000
   59     -2.79524    0.00000
   60     -2.39266    0.00000
   61     -2.35330    0.00000
   62     -1.83301    0.00000
   63     -1.69907    0.00000
   64     -1.22066    0.00000
   65     -0.97153    0.00000
   66     -0.54940    0.00000
   67     -0.25021    0.00000
   68      0.01290    0.00000
   69      0.25871    0.00000
   70      0.48313    0.00000
   71      0.88792    0.00000
   72      1.68626    0.00000
   73      1.83029    0.00000
   74      2.20952    0.00000
   75      2.49342    0.00000
   76      3.05825    0.00000
   77      3.55582    0.00000
   78      3.88478    0.00000
   79      4.28456    0.00000
   80      4.61003    0.00000
   81      4.81515    0.00000
   82      5.75448    0.00000
   83      5.87958    0.00000
   84      6.43820    0.00000
   85      6.94005    0.00000
   86      7.50850    0.00000
   87      7.56032    0.00000
   88      7.97886    0.00000
   89      8.20070    0.00000
   90      8.73497    0.00000
   91      8.77866    0.00000
   92      8.97200    0.00000
   93      9.16703    0.00000
   94      9.29536    0.00000
   95      9.31045    0.00000
   96      9.39093    0.00000
   97      9.55068    0.00000


Forces in eV/Ang:
  0 C   -13.69572  -12.74441    6.42660
  1 C     3.01576    1.49222   -1.53745
  2 C    -4.12676    1.69188   -3.19363
  3 C     0.54669    6.17530  -19.21482
  4 C     0.20251    6.37404   -0.34953
  5 C    -2.13130  -16.19226   -0.28922
  6 C    -4.01990    7.61686   -5.84574
  7 C    22.45423    7.41961   12.82339
  8 C     0.64305   -2.17969   -2.33685
  9 C    -3.25065   -2.71062    0.76929
 10 C    -5.07683   -1.77454   -0.81999
 11 C    -2.93051   -8.27432    0.88119
 12 C     2.80893    3.82712    1.11941
 13 C     0.49527    0.19259    2.91992
 14 C    -1.98110    2.73961   -0.89295
 15 C     0.72860    2.43507    0.09971
 16 C    -2.59988    1.76588   -2.00202
 17 C    11.62465   -6.77988    3.33620
 18 C    -2.48846   -4.56708    3.48477
 19 C    -2.62775    3.23153    2.19454
 20 C    -0.30632   11.92390   -0.66099
 21 C    -1.74296    0.86018    5.24579
 22 C     2.07330   -1.41513    2.70052
 23 C     2.44416   -1.18569   -4.85519

System changes: positions 

Initializing position-dependent things.

Density initialized from wave functions
           .--------------------------------------.  
          /|                                      |  
         / |                                      |  
        /  |                                      |  
       /   |                                      |  
      /    |                                      |  
     /     |                                      |  
    /      |                                      |  
   /       |                                      |  
  /        |          C  C   C                    |  
 *         |    C  C C   C  C     C               |  
 |         |     C    C C      C                  |  
 |         .--C--------C----C---C-----------------.  
 |        /        CC C                          /   
 |       /        C        C C                  /    
 |      /                                      /     
 |     /                                      /      
 |    /                                      /       
 |   /                                      /        
 |  /                                      /         
 | /                                      /          
 |/                                      /           
 *--------------------------------------*            

Positions:
   0 C      6.772999    7.176581    5.622860
   1 C      3.826705    9.115632    4.938317
   2 C      3.996999    5.886423    5.053880
   3 C      7.209332    8.049285    4.627080
   4 C     10.166732    5.158740    4.313864
   5 C      6.042355    4.912254    4.847796
   6 C      6.319278    6.123559    4.714273
   7 C      7.787967    7.841046    5.690040
   8 C      7.320066   10.457933    5.376157
   9 C     10.820508   10.216716    4.931282
  10 C      6.060801    8.405619    5.219933
  11 C      9.812812    3.985303    4.400839
  12 C      6.242686    3.507000    4.878035
  13 C     10.294530    8.089263    4.696806
  14 C     11.069084    6.975891    5.062869
  15 C      9.406906    6.220735    4.727759
  16 C      7.902796    3.310182    5.504609
  17 C      7.436465    5.683633    5.134420
  18 C      4.947072   10.254057    4.546601
  19 C      4.790540    6.725856    5.709090
  20 C      5.995565    9.649167    5.552726
  21 C      8.485447   10.044052    4.504733
  22 C      3.473797    7.078048    4.311677
  23 C      9.234452    9.234521    5.614036

Unit cell:
           periodic     x           y           z      points  spacing
  1. axis:    yes   16.000000    0.000000    0.000000    80     0.2000
  2. axis:    yes    0.000000   16.000000    0.000000    80     0.2000
  3. axis:    yes    0.000000    0.000000   10.000000    48     0.2083

Effective grid spacing dv^(1/3) = 0.2027

                     log10-error:    total        iterations:
           time      wfs    density  energy       fermi  poisson
iter:   1  14:14:03          +inf  -132.631415    3      5      
iter:   2  14:14:03         -1.48  -132.206898    2      2      
iter:   3  14:14:04         -1.71  -132.003101    3      2      
iter:   4  14:14:05         -2.05  -131.999563    2      2      
iter:   5  14:14:05         -2.15  -131.992015    2      2      
iter:   6  14:14:06         -2.28  -131.983469    2      2      
iter:   7  14:14:06         -2.44  -131.982359    2      2      
iter:   8  14:14:07         -2.61  -131.982727    2      2      
iter:   9  14:14:07         -2.72  -131.981366    2      2      
iter:  10  14:14:08         -2.97  -131.978798    2      1      
iter:  11  14:14:08         -3.08  -131.979065    2      1      
iter:  12  14:14:09         -3.24  -131.981228    2      1      
iter:  13  14:14:09         -3.36  -131.979536    2      1      
iter:  14  14:14:10         -3.60  -131.981965    2      1      
iter:  15  14:14:11         -3.71  -131.982744    2      1      
iter:  16  14:14:11         -3.83  -131.982489    2      1      
iter:  17  14:14:12         -4.00  -131.982833    2      1      

Converged after 17 iterations.

Dipole moment: (-0.053216, 0.211925, 0.203207) |e|*Ang

Energy contributions relative to reference atoms: (reference = -24663.074771)

Kinetic:       +138.046832
Potential:     -124.359192
External:        +0.000000
XC:            -148.151600
Entropy (-ST):   -0.286658
Local:           +2.624456
--------------------------
Free energy:   -132.126162
Extrapolated:  -131.982833

Fermi level: -4.80636

 Band  Eigenvalues  Occupancy
    0    -29.70014    2.00000
    1    -25.92480    2.00000
    2    -22.05662    2.00000
    3    -21.33615    2.00000
    4    -20.84021    2.00000
    5    -20.05363    2.00000
    6    -19.44975    2.00000
    7    -18.64060    2.00000
    8    -18.49605    2.00000
    9    -17.26084    2.00000
   10    -16.75664    2.00000
   11    -15.89896    2.00000
   12    -15.81355    2.00000
   13    -15.35840    2.00000
   14    -14.78473    2.00000
   15    -14.24888    2.00000
   16    -13.79437    2.00000
   17    -13.03796    2.00000
   18    -12.64432    2.00000
   19    -12.32381    2.00000
   20    -12.12558    2.00000
   21    -11.59374    2.00000
   22    -11.14776    2.00000
   23    -10.50782    2.00000
   24    -10.39100    2.00000
   25    -10.07572    2.00000
   26     -9.65174    2.00000
   27     -9.47569    2.00000
   28     -8.95406    2.00000
   29     -8.66584    2.00000
   30     -8.50446    2.00000
   31     -8.37200    2.00000
   32     -7.90361    2.00000
   33     -7.78928    2.00000
   34     -7.40247    2.00000
   35     -7.34631    2.00000
   36     -7.14778    2.00000
   37     -7.03214    2.00000
   38     -6.90037    2.00000
   39     -6.70297    2.00000
   40     -6.54868    2.00000
   41     -6.16987    2.00000
   42     -6.00781    1.99999
   43     -5.62571    1.99945
   44     -5.48213    1.99768
   45     -5.44204    1.99654
   46     -5.17280    1.95004
   47     -4.91977    1.51319
   48     -4.68793    0.46856
   49     -4.44118    0.05058
   50     -4.32421    0.01598
   51     -4.23598    0.00664
   52     -4.06801    0.00124
   53     -3.81593    0.00010
   54     -3.67771    0.00003
   55     -3.39051    0.00000
   56     -3.22310    0.00000
   57     -2.93690    0.00000
   58     -2.83142    0.00000
   59     -2.74140    0.00000
   60     -2.37491    0.00000
   61     -2.25757    0.00000
   62     -1.79889    0.00000
   63     -1.60291    0.00000
   64     -1.10720    0.00000
   65     -0.90761    0.00000
   66     -0.41371    0.00000
   67     -0.21483    0.00000
   68      0.10920    0.00000
   69      0.36900    0.00000
   70      0.53433    0.00000
   71      0.97901    0.00000
   72      1.78088    0.00000
   73      1.88800    0.00000
   74      2.18482    0.00000
   75      2.75990    0.00000
   76      3.49858    0.00000
   77      3.77991    0.00000
   78      4.19081    0.00000
   79      4.62669    0.00000
   80      4.96422    0.00000
   81      5.25400    0.00000
   82      6.11520    0.00000
   83      6.32352    0.00000
   84      6.58120    0.00000
   85      7.09264    0.00000
   86      7.49114    0.00000
   87      7.60902    0.00000
   88      7.99620    0.00000
   89      8.27352    0.00000
   90      8.67499    0.00000
   91      8.83892    0.00000
   92      8.93342    0.00000
   93      9.13027    0.00000
   94      9.22909    0.00000
   95      9.31243    0.00000
   96      9.40481    0.00000
   97      9.49253    0.00000


Forces in eV/Ang:
  0 C   -11.81839  -11.15021    5.61874
  1 C     3.07063    1.73980   -1.42419
  2 C    -3.67464    1.55061   -2.76829
  3 C     0.26729    4.93172  -16.20166
  4 C    -0.25616    5.15134   -0.41689
  5 C    -2.14568  -14.80918   -0.19690
  6 C    -2.62923    7.63881   -4.78090
  7 C    19.26258    6.53794   10.24194
  8 C     0.82947   -1.96503   -2.23462
  9 C    -3.21152   -2.70818    0.86306
 10 C    -4.30622   -1.43297   -0.49114
 11 C    -2.48991   -7.09791    0.77387
 12 C     2.84615    2.96425    1.06720
 13 C     0.23444    0.70289    2.80523
 14 C    -1.89817    2.48200   -0.74218
 15 C     0.81008    2.22435    0.21734
 16 C    -2.59198    1.79562   -1.89728
 17 C    10.26652   -5.67329    2.99306
 18 C    -2.68872   -4.47354    3.25001
 19 C    -2.39316    2.85128    1.92855
 20 C    -0.11743   10.23882   -1.07103
 21 C    -1.91087    0.93936    4.89397
 22 C     1.79761   -1.14579    2.24347
 23 C     2.75465   -1.35472   -4.80383

System changes: positions 

Initializing position-dependent things.

Density initialized from wave functions
           .--------------------------------------.  
          /|                                      |  
         / |                                      |  
        /  |                                      |  
       /   |                                      |  
      /    |                                      |  
     /     |                                      |  
    /      |                                      |  
   /       |                                      |  
  /        |          C  C                        |  
 *         |    C  C C   C  CC    C               |  
 |         |     C    C C      C                  |  
 |         .--C--------C----C---C-----------------.  
 |        /        CC C                          /   
 |       /        C        C C                  /    
 |      /                                      /     
 |     /                                      /      
 |    /                                      /       
 |   /                                      /        
 |  /                                      /         
 | /                                      /          
 |/                                      /           
 *--------------------------------------*            

Positions:
   0 C      6.771497    7.172570    5.644101
   1 C      3.848002    9.129844    4.929986
   2 C      3.981141    5.900444    5.041697
   3 C      7.207674    8.044000    4.612706
   4 C     10.151590    5.155457    4.312267
   5 C      6.045492    4.882538    4.847474
   6 C      6.333052    6.113544    4.704861
   7 C      7.803525    7.853880    5.681388
   8 C      7.327292   10.447929    5.362805
   9 C     10.800398   10.198911    4.938214
  10 C      6.054972    8.410191    5.224040
  11 C      9.809058    3.976038    4.403221
  12 C      6.261686    3.517217    4.883891
  13 C     10.292622    8.101336    4.713526
  14 C     11.058915    6.987875    5.060282
  15 C      9.413129    6.231401    4.730727
  16 C      7.886035    3.323142    5.493362
  17 C      7.456417    5.670298    5.141732
  18 C      4.926415   10.225715    4.565837
  19 C      4.775467    6.737073    5.715738
  20 C      6.003062    9.676227    5.531815
  21 C      8.470009   10.050847    4.533926
  22 C      3.483260    7.071976    4.322178
  23 C      9.255695    9.222471    5.582556

Unit cell:
           periodic     x           y           z      points  spacing
  1. axis:    yes   16.000000    0.000000    0.000000    80     0.2000
  2. axis:    yes    0.000000   16.000000    0.000000    80     0.2000
  3. axis:    yes    0.000000    0.000000   10.000000    48     0.2083

Effective grid spacing dv^(1/3) = 0.2027

                     log10-error:    total        iterations:
           time      wfs    density  energy       fermi  poisson
iter:   1  14:14:13          +inf  -135.643915    3      5      
iter:   2  14:14:14         -1.52  -135.278143    3      2      
iter:   3  14:14:15         -1.73  -135.086883    3      2      
iter:   4  14:14:15         -2.10  -135.088389    2      2      
iter:   5  14:14:16         -2.19  -135.078757    2      2      
iter:   6  14:14:16         -2.31  -135.076010    2      2      
iter:   7  14:14:17         -2.43  -135.070446    2      2      
iter:   8  14:14:17         -2.66  -135.069830    2      2      
iter:   9  14:14:18         -2.88  -135.071108    2      2      
iter:  10  14:14:19         -3.02  -135.066678    2      1      
iter:  11  14:14:19         -3.20  -135.069666    1      1      
iter:  12  14:14:20         -3.28  -135.070828    2      1      
iter:  13  14:14:20         -3.45  -135.068254    2      1      
iter:  14  14:14:21         -3.63  -135.071543    2      1      
iter:  15  14:14:21         -3.83  -135.071543    2      1      
iter:  16  14:14:22         -3.97  -135.071422    2      1      
iter:  17  14:14:22         -4.12  -135.071693    2      1      

Converged after 17 iterations.

Dipole moment: (-0.094368, 0.227550, 0.213323) |e|*Ang

Energy contributions relative to reference atoms: (reference = -24663.074771)

Kinetic:       +133.115048
Potential:     -121.584771
External:        +0.000000
XC:            -149.114449
Entropy (-ST):   -0.279963
Local:           +2.652461
--------------------------
Free energy:   -135.211675
Extrapolated:  -135.071693

Fermi level: -4.79820

 Band  Eigenvalues  Occupancy
    0    -29.26391    2.00000
    1    -25.57713    2.00000
    2    -22.05190    2.00000
    3    -21.44457    2.00000
    4    -20.79009    2.00000
    5    -20.18333    2.00000
    6    -19.48182    2.00000
    7    -18.68652    2.00000
    8    -18.41302    2.00000
    9    -17.38912    2.00000
   10    -16.96080    2.00000
   11    -15.98300    2.00000
   12    -15.69679    2.00000
   13    -15.33166    2.00000
   14    -14.73467    2.00000
   15    -14.32997    2.00000
   16    -13.91390    2.00000
   17    -13.07409    2.00000
   18    -12.60735    2.00000
   19    -12.27968    2.00000
   20    -12.09831    2.00000
   21    -11.54617    2.00000
   22    -11.16444    2.00000
   23    -10.51506    2.00000
   24    -10.35808    2.00000
   25    -10.21307    2.00000
   26     -9.71063    2.00000
   27     -9.50713    2.00000
   28     -8.95193    2.00000
   29     -8.68447    2.00000
   30     -8.49916    2.00000
   31     -8.40690    2.00000
   32     -7.88277    2.00000
   33     -7.85501    2.00000
   34     -7.45032    2.00000
   35     -7.37942    2.00000
   36     -7.21777    2.00000
   37     -7.12550    2.00000
   38     -6.93183    2.00000
   39     -6.66840    2.00000
   40     -6.59146    2.00000
   41     -6.19239    2.00000
   42     -6.01837    1.99999
   43     -5.61862    1.99945
   44     -5.53212    1.99870
   45     -5.46144    1.99737
   46     -5.17233    1.95365
   47     -4.91230    1.51570
   48     -4.67994    0.46914
   49     -4.42543    0.04697
   50     -4.28265    0.01147
   51     -4.22269    0.00631
   52     -4.05275    0.00116
   53     -3.77573    0.00007
   54     -3.59919    0.00001
   55     -3.32970    0.00000
   56     -3.11516    0.00000
   57     -2.83854    0.00000
   58     -2.80625    0.00000
   59     -2.61617    0.00000
   60     -2.34365    0.00000
   61     -2.16217    0.00000
   62     -1.75401    0.00000
   63     -1.49250    0.00000
   64     -0.97700    0.00000
   65     -0.84258    0.00000
   66     -0.28799    0.00000
   67     -0.13976    0.00000
   68      0.18530    0.00000
   69      0.45679    0.00000
   70      0.61908    0.00000
   71      1.07341    0.00000
   72      1.81442    0.00000
   73      1.95069    0.00000
   74      2.26614    0.00000
   75      3.17236    0.00000
   76      3.64491    0.00000
   77      4.06173    0.00000
   78      4.43454    0.00000
   79      4.93547    0.00000
   80      5.17734    0.00000
   81      5.88204    0.00000
   82      6.34714    0.00000
   83      6.68735    0.00000
   84      6.80461    0.00000
   85      7.18852    0.00000
   86      7.48806    0.00000
   87      7.79428    0.00000
   88      8.04202    0.00000
   89      8.29672    0.00000
   90      8.62962    0.00000
   91      8.83993    0.00000
   92      8.96294    0.00000
   93      9.09034    0.00000
   94      9.25228    0.00000
   95      9.32546    0.00000
   96      9.42469    0.00000
   97      9.47699    0.00000


Forces in eV/Ang:
  0 C   -10.20056   -9.54581    5.29464
  1 C     2.97058    1.87308   -1.30438
  2 C    -3.13287    1.32571   -2.26004
  3 C    -0.36921    4.24963  -14.64361
  4 C    -0.52818    4.72907   -0.51922
  5 C    -1.94652  -11.87656   -0.23666
  6 C    -2.08791    6.02044   -4.03935
  7 C    17.02495    5.50099    8.99687
  8 C     0.83860   -1.77094   -2.06199
  9 C    -3.14742   -2.70168    0.96521
 10 C    -3.65826   -1.30233   -0.26404
 11 C    -2.29986   -6.68421    0.71924
 12 C     2.88611    2.00056    0.97572
 13 C     0.03644    1.10668    2.70578
 14 C    -1.93870    2.34362   -0.60005
 15 C     0.97907    1.95375    0.33895
 16 C    -2.51457    1.80379   -1.77132
 17 C     9.40090   -5.04659    2.72971
 18 C    -2.78423   -4.31896    3.00699
 19 C    -2.23252    2.46268    1.70312
 20 C    -0.03554    9.03989   -1.30004
 21 C    -1.85197    0.98554    4.49537
 22 C     1.47687   -0.76234    1.72735
 23 C     3.08819   -1.43050   -4.77377

System changes: positions 

Initializing position-dependent things.

Density initialized from wave functions
           .--------------------------------------.  
          /|                                      |  
         / |                                      |  
        /  |                                      |  
       /   |                                      |  
      /    |                                      |  
     /     |                                      |  
    /      |                                      |  
   /       |                                      |  
  /        |          C  C                        |  
 *         |    C  C C   C  CC    C               |  
 |         |     C    C C      C                  |  
 |         .--C--------C----C---C-----------------.  
 |        /        CC C                          /   
 |       /         C       C C                  /    
 |      /                                      /     
 |     /                                      /      
 |    /                                      /       
 |   /                                      /        
 |  /                                      /         
 | /                                      /          
 |/                                      /           
 *--------------------------------------*            

Positions:
   0 C      6.771587    7.171656    5.664721
   1 C      3.867343    9.144321    4.922848
   2 C      3.969390    5.911057    5.033705
   3 C      7.200635    8.039524    4.596502
   4 C     10.137163    5.155997    4.309445
   5 C      6.046786    4.867104    4.846481
   6 C      6.345746    6.100669    4.698147
   7 C      7.817936    7.862087    5.675569
   8 C      7.333860   10.439426    5.351294
   9 C     10.781271   10.181668    4.945674
  10 C      6.051478    8.413171    5.228661
  11 C      9.804609    3.963190    4.405571
  12 C      6.280467    3.519841    4.888989
  13 C     10.289622    8.115322    4.729188
  14 C     11.048008    6.999198    5.058627
  15 C      9.420575    6.239992    4.734489
  16 C      7.870401    3.335557    5.483376
  17 C      7.476714    5.658493    5.148676
  18 C      4.906101   10.199505    4.582627
  19 C      4.762110    6.745688    5.721239
  20 C      6.009502    9.698942    5.512034
  21 C      8.456320   10.057720    4.558973
  22 C      3.489785    7.069597    4.328167
  23 C      9.278960    9.210758    5.552200

Unit cell:
           periodic     x           y           z      points  spacing
  1. axis:    yes   16.000000    0.000000    0.000000    80     0.2000
  2. axis:    yes    0.000000   16.000000    0.000000    80     0.2000
  3. axis:    yes    0.000000    0.000000   10.000000    48     0.2083

Effective grid spacing dv^(1/3) = 0.2027

                     log10-error:    total        iterations:
           time      wfs    density  energy       fermi  poisson
iter:   1  14:14:24          +inf  -138.056751    3      5      
iter:   2  14:14:25         -1.57  -137.741428    3      2      
iter:   3  14:14:25         -1.77  -137.584461    3      2      
iter:   4  14:14:26         -2.11  -137.573004    2      2      
iter:   5  14:14:26         -2.24  -137.566320    2      2      
iter:   6  14:14:27         -2.38  -137.565438    2      2      
iter:   7  14:14:28         -2.53  -137.561401    2      2      
iter:   8  14:14:28         -2.73  -137.561817    2      2      
iter:   9  14:14:29         -2.87  -137.561520    2      2      
iter:  10  14:14:29         -3.09  -137.559495    2      1      
iter:  11  14:14:30         -3.19  -137.559676    2      1      
iter:  12  14:14:30         -3.31  -137.561755    2      1      
iter:  13  14:14:31         -3.58  -137.561705    2      1      
iter:  14  14:14:31         -3.68  -137.563052    2      1      
iter:  15  14:14:32         -3.76  -137.562759    2      1      
iter:  16  14:14:32         -3.85  -137.561166    2      1      
iter:  17  14:14:33         -4.15  -137.562414    2      1      

Converged after 17 iterations.

Dipole moment: (-0.128046, 0.244205, 0.217109) |e|*Ang

Energy contributions relative to reference atoms: (reference = -24663.074771)

Kinetic:       +129.978866
Potential:     -120.021435
External:        +0.000000
XC:            -150.047764
Entropy (-ST):   -0.277240
Local:           +2.666539
--------------------------
Free energy:   -137.701034
Extrapolated:  -137.562414

Fermi level: -4.79404

 Band  Eigenvalues  Occupancy
    0    -28.87278    2.00000
    1    -25.33107    2.00000
    2    -22.06199    2.00000
    3    -21.53978    2.00000
    4    -20.80002    2.00000
    5    -20.27741    2.00000
    6    -19.49915    2.00000
    7    -18.75984    2.00000
    8    -18.32404    2.00000
    9    -17.51629    2.00000
   10    -17.06817    2.00000
   11    -16.11910    2.00000
   12    -15.63403    2.00000
   13    -15.31038    2.00000
   14    -14.68305    2.00000
   15    -14.37904    2.00000
   16    -13.97212    2.00000
   17    -13.10631    2.00000
   18    -12.64372    2.00000
   19    -12.24533    2.00000
   20    -12.05408    2.00000
   21    -11.54805    2.00000
   22    -11.17466    2.00000
   23    -10.55326    2.00000
   24    -10.45054    2.00000
   25    -10.23444    2.00000
   26     -9.73593    2.00000
   27     -9.54239    2.00000
   28     -8.95611    2.00000
   29     -8.69472    2.00000
   30     -8.51030    2.00000
   31     -8.41509    2.00000
   32     -7.91418    2.00000
   33     -7.87869    2.00000
   34     -7.48319    2.00000
   35     -7.40252    2.00000
   36     -7.27350    2.00000
   37     -7.19282    2.00000
   38     -6.95830    2.00000
   39     -6.68031    2.00000
   40     -6.58421    2.00000
   41     -6.19300    2.00000
   42     -6.02154    1.99999
   43     -5.64062    1.99958
   44     -5.57017    1.99915
   45     -5.46913    1.99766
   46     -5.17648    1.95727
   47     -4.90724    1.51243
   48     -4.67587    0.46948
   49     -4.42472    0.04858
   50     -4.24901    0.00855
   51     -4.21680    0.00621
   52     -4.03864    0.00105
   53     -3.72883    0.00005
   54     -3.50770    0.00001
   55     -3.27462    0.00000
   56     -3.00270    0.00000
   57     -2.79787    0.00000
   58     -2.75532    0.00000
   59     -2.47662    0.00000
   60     -2.30996    0.00000
   61     -2.07238    0.00000
   62     -1.71280    0.00000
   63     -1.40797    0.00000
   64     -0.87010    0.00000
   65     -0.77470    0.00000
   66     -0.19221    0.00000
   67     -0.06243    0.00000
   68      0.22666    0.00000
   69      0.50481    0.00000
   70      0.72358    0.00000
   71      1.15539    0.00000
   72      1.77145    0.00000
   73      1.98055    0.00000
   74      2.43312    0.00000
   75      3.49798    0.00000
   76      3.80955    0.00000
   77      4.26229    0.00000
   78      4.65341    0.00000
   79      5.07662    0.00000
   80      5.44433    0.00000
   81      6.30873    0.00000
   82      6.58533    0.00000
   83      6.87120    0.00000
   84      7.09940    0.00000
   85      7.25193    0.00000
   86      7.55108    0.00000
   87      7.88218    0.00000
   88      8.11531    0.00000
   89      8.29308    0.00000
   90      8.57748    0.00000
   91      8.80851    0.00000
   92      8.97413    0.00000
   93      9.14016    0.00000
   94      9.26631    0.00000
   95      9.33476    0.00000
   96      9.42788    0.00000
   97      9.46505    0.00000


Forces in eV/Ang:
  0 C    -9.13207   -8.49774    4.92817
  1 C     2.68339    1.86761   -1.18991
  2 C    -2.70445    1.05332   -1.84352
  3 C    -0.41934    3.56739  -12.92652
  4 C    -0.81485    3.69033   -0.55500
  5 C    -1.99598  -10.81774   -0.21798
  6 C    -1.43633    5.74334   -3.46279
  7 C    15.12725    4.82062    7.48586
  8 C     0.72041   -1.53185   -1.82523
  9 C    -3.07190   -2.68225    1.07426
 10 C    -3.17405   -1.15854   -0.00831
 11 C    -1.93895   -5.68317    0.61441
 12 C     2.84027    1.55793    0.91868
 13 C    -0.11358    1.42315    2.57912
 14 C    -1.98008    2.18076   -0.49507
 15 C     1.03720    1.81350    0.48857
 16 C    -2.48252    1.81388   -1.68686
 17 C     8.77069   -4.50019    2.56026
 18 C    -2.65777   -4.00109    2.76327
 19 C    -2.08355    2.18472    1.54050
 20 C    -0.02150    8.07067   -1.43329
 21 C    -1.66628    0.94602    4.05131
 22 C     1.21280   -0.42973    1.29334
 23 C     3.36002   -1.41466   -4.75513

System changes: positions 

Initializing position-dependent things.

Density initialized from wave functions
           .--------------------------------------.  
          /|                                      |  
         / |                                      |  
        /  |                                      |  
       /   |                                      |  
      /    |                                      |  
     /     |                                      |  
    /      |                                      |  
   /       |                                      |  
  /        |          C  C                        |  
 *         |    C  C C   C  CC    C               |  
 |         |     C    C C      C                  |  
 |         .--C--------C----C---C-----------------.  
 |        /        CC C                          /   
 |       /         C       C C                  /    
 |      /                                      /     
 |     /                                      /      
 |    /                                      /       
 |   /                                      /        
 |  /                                      /         
 | /                                      /          
 |/                                      /           
 *--------------------------------------*            

Positions:
   0 C      6.770420    7.170482    5.684061
   1 C      3.882928    9.157708    4.916800
   2 C      3.960631    5.918089    5.028865
   3 C      7.194852    8.034234    4.583316
   4 C     10.122305    5.151111    4.306281
   5 C      6.045192    4.851739    4.845501
   6 C      6.359486    6.093558    4.693446
   7 C      7.830473    7.868242    5.666525
   8 C      7.338539   10.433031    5.342264
   9 C     10.763207   10.165028    4.953833
  10 C      6.048916    8.415436    5.234657
  11 C      9.802108    3.955574    4.407184
  12 C      6.298206    3.520240    4.893603
  13 C     10.285895    8.130697    4.743508
  14 C     11.036532    7.009388    5.057609
  15 C      9.428104    6.247843    4.739441
  16 C      7.855380    3.347613    5.474200
  17 C      7.497671    5.648280    5.155675
  18 C      4.888331   10.177066    4.597021
  19 C      4.750337    6.752763    5.726109
  20 C      6.014524    9.718479    5.493738
  21 C      8.445514   10.063802    4.579553
  22 C      3.494043    7.070240    4.330598
  23 C      9.303751    9.200131    5.522661

Unit cell:
           periodic     x           y           z      points  spacing
  1. axis:    yes   16.000000    0.000000    0.000000    80     0.2000
  2. axis:    yes    0.000000   16.000000    0.000000    80     0.2000
  3. axis:    yes    0.000000    0.000000   10.000000    48     0.2083

Effective grid spacing dv^(1/3) = 0.2027

                     log10-error:    total        iterations:
           time      wfs    density  energy       fermi  poisson
iter:   1  14:14:35          +inf  -140.030026    3      5      
iter:   2  14:14:35         -1.61  -139.768511    3      2      
iter:   3  14:14:36         -1.82  -139.642870    3      2      
iter:   4  14:14:37         -2.12  -139.624774    2      2      
iter:   5  14:14:37         -2.29  -139.619309    2      2      
iter:   6  14:14:38         -2.44  -139.618793    2      2      
iter:   7  14:14:38         -2.59  -139.615011    2      2      
iter:   8  14:14:39         -2.81  -139.610052    2      1      
iter:   9  14:14:39         -2.93  -139.615578    2      2      
iter:  10  14:14:40         -3.17  -139.615739    2      1      
iter:  11  14:14:40         -3.26  -139.613633    2      1      
iter:  12  14:14:41         -3.39  -139.616686    2      1      
iter:  13  14:14:42         -3.50  -139.617073    2      1      
iter:  14  14:14:42         -3.66  -139.615198    2      1      
iter:  15  14:14:43         -3.80  -139.616168    2      1      
iter:  16  14:14:43         -3.88  -139.616772    2      1      
iter:  17  14:14:44         -4.08  -139.615996    2      1      

Converged after 17 iterations.

Dipole moment: (-0.166548, 0.264504, 0.217890) |e|*Ang

Energy contributions relative to reference atoms: (reference = -24663.074771)

Kinetic:       +128.712801
Potential:     -119.798773
External:        +0.000000
XC:            -151.071105
Entropy (-ST):   -0.270222
Local:           +2.676192
--------------------------
Free energy:   -139.751107
Extrapolated:  -139.615996

Fermi level: -4.79859

 Band  Eigenvalues  Occupancy
    0    -28.55712    2.00000
    1    -25.07386    2.00000
    2    -22.08116    2.00000
    3    -21.60335    2.00000
    4    -20.85752    2.00000
    5    -20.32998    2.00000
    6    -19.55098    2.00000
    7    -18.86727    2.00000
    8    -18.26236    2.00000
    9    -17.66387    2.00000
   10    -17.08052    2.00000
   11    -16.25608    2.00000
   12    -15.59510    2.00000
   13    -15.29224    2.00000
   14    -14.63550    2.00000
   15    -14.42111    2.00000
   16    -14.02364    2.00000
   17    -13.13986    2.00000
   18    -12.69910    2.00000
   19    -12.22899    2.00000
   20    -12.01172    2.00000
   21    -11.57488    2.00000
   22    -11.18926    2.00000
   23    -10.68475    2.00000
   24    -10.48173    2.00000
   25    -10.18336    2.00000
   26     -9.75037    2.00000
   27     -9.58164    2.00000
   28     -8.95626    2.00000
   29     -8.69625    2.00000
   30     -8.52447    2.00000
   31     -8.40544    2.00000
   32     -7.95933    2.00000
   33     -7.89066    2.00000
   34     -7.52253    2.00000
   35     -7.44161    2.00000
   36     -7.30334    2.00000
   37     -7.25967    2.00000
   38     -6.98524    2.00000
   39     -6.71431    2.00000
   40     -6.54801    2.00000
   41     -6.18463    2.00000
   42     -6.03227    1.99999
   43     -5.68246    1.99971
   44     -5.59824    1.99933
   45     -5.48458    1.99790
   46     -5.19078    1.96116
   47     -4.91577    1.52693
   48     -4.67558    0.45233
   49     -4.43147    0.04963
   50     -4.25335    0.00854
   51     -4.16488    0.00353
   52     -4.03032    0.00092
   53     -3.68154    0.00003
   54     -3.42088    0.00000
   55     -3.22582    0.00000
   56     -2.90943    0.00000
   57     -2.78943    0.00000
   58     -2.68948    0.00000
   59     -2.38410    0.00000
   60     -2.23448    0.00000
   61     -2.01368    0.00000
   62     -1.66800    0.00000
   63     -1.33160    0.00000
   64     -0.83351    0.00000
   65     -0.69027    0.00000
   66     -0.12049    0.00000
   67      0.07846    0.00000
   68      0.26129    0.00000
   69      0.53716    0.00000
   70      0.80550    0.00000
   71      1.21372    0.00000
   72      1.78045    0.00000
   73      2.08020    0.00000
   74      2.63747    0.00000
   75      3.51853    0.00000
   76      4.24170    0.00000
   77      4.41159    0.00000
   78      4.82601    0.00000
   79      5.19676    0.00000
   80      5.70346    0.00000
   81      6.50039    0.00000
   82      6.66444    0.00000
   83      7.00764    0.00000
   84      7.22466    0.00000
   85      7.45966    0.00000
   86      7.66258    0.00000
   87      7.91872    0.00000
   88      8.20475    0.00000
   89      8.29059    0.00000
   90      8.52731    0.00000
   91      8.81799    0.00000
   92      8.99035    0.00000
   93      9.20890    0.00000
   94      9.28620    0.00000
   95      9.34971    0.00000
   96      9.42521    0.00000
   97      9.45767    0.00000


Forces in eV/Ang:
  0 C    -8.22273   -7.48991    4.57895
  1 C     2.19382    1.58435   -1.05478
  2 C    -2.37517    0.90516   -1.52719
  3 C    -0.62985    3.09507  -11.74216
  4 C    -0.93022    3.60827   -0.63987
  5 C    -1.90687   -9.46007   -0.25474
  6 C    -0.93251    4.93861   -2.89848
  7 C    13.64960    4.13283    6.58951
  8 C     0.50316   -1.30757   -1.58139
  9 C    -2.97463   -2.61344    1.13849
 10 C    -2.68867   -1.07703    0.19387
 11 C    -1.82932   -5.56066    0.58637
 12 C     2.73199    1.20810    0.83663
 13 C    -0.18576    1.62442    2.42331
 14 C    -2.08215    2.02804   -0.43122
 15 C     1.17015    1.59038    0.60729
 16 C    -2.40918    1.80896   -1.51493
 17 C     8.15434   -4.06647    2.32233
 18 C    -2.39529   -3.54073    2.51777
[...]
Local:           +3.000542
--------------------------
Free energy:   -182.137146
Extrapolated:  -182.015548

Fermi level: -4.27644

 Band  Eigenvalues  Occupancy
    0    -23.45070    2.00000
    1    -22.69563    2.00000
    2    -22.08484    2.00000
    3    -21.40896    2.00000
    4    -20.90668    2.00000
    5    -20.12372    2.00000
    6    -19.85260    2.00000
    7    -18.96824    2.00000
    8    -18.66055    2.00000
    9    -17.84649    2.00000
   10    -17.18257    2.00000
   11    -16.97074    2.00000
   12    -16.64831    2.00000
   13    -15.64082    2.00000
   14    -15.05238    2.00000
   15    -14.58829    2.00000
   16    -14.00001    2.00000
   17    -13.73291    2.00000
   18    -13.27838    2.00000
   19    -12.89980    2.00000
   20    -12.53334    2.00000
   21    -11.79024    2.00000
   22    -11.59659    2.00000
   23    -11.15577    2.00000
   24    -11.11366    2.00000
   25    -10.86245    2.00000
   26    -10.59787    2.00000
   27    -10.48837    2.00000
   28    -10.09835    2.00000
   29     -9.94213    2.00000
   30     -9.64524    2.00000
   31     -9.25515    2.00000
   32     -8.93950    2.00000
   33     -8.82688    2.00000
   34     -8.59521    2.00000
   35     -8.33214    2.00000
   36     -7.89912    2.00000
   37     -7.16850    2.00000
   38     -6.89734    2.00000
   39     -6.78525    2.00000
   40     -6.43407    2.00000
   41     -6.34836    2.00000
   42     -6.18734    2.00000
   43     -5.64687    2.00000
   44     -5.38842    1.99997
   45     -5.12726    1.99960
   46     -4.95007    1.99763
   47     -4.39364    1.52703
   48     -4.14225    0.41441
   49     -3.92036    0.05526
   50     -3.69547    0.00598
   51     -3.29155    0.00011
   52     -3.12060    0.00002
   53     -2.81853    0.00000
   54     -2.38021    0.00000
   55     -2.12942    0.00000
   56     -1.16095    0.00000
   57     -0.71247    0.00000
   58      0.22612    0.00000
   59      0.74034    0.00000
   60      1.30252    0.00000
   61      2.23231    0.00000
   62      2.52901    0.00000
   63      2.88391    0.00000
   64      3.29093    0.00000
   65      3.61147    0.00000
   66      3.79998    0.00000
   67      3.94896    0.00000
   68      4.38093    0.00000
   69      5.04486    0.00000
   70      5.14583    0.00000
   71      5.79995    0.00000
   72      6.04888    0.00000
   73      6.15364    0.00000
   74      6.43063    0.00000
   75      6.64184    0.00000
   76      7.15816    0.00000
   77      7.37851    0.00000
   78      7.67579    0.00000
   79      8.15395    0.00000
   80      8.33688    0.00000
   81      8.69577    0.00000
   82      8.88673    0.00000
   83      8.92972    0.00000
   84      8.98430    0.00000
   85      9.02033    0.00000
   86      9.25097    0.00000
   87      9.48041    0.00000
   88      9.60801    0.00000
   89      9.67204    0.00000
   90      9.74057    0.00000
   91      9.83111    0.00000
   92      9.88390    0.00000
   93     10.16413    0.00000
   94     10.23042    0.00000
   95     10.45149    0.00000
   96     10.47779    0.00000
   97     10.58486    0.00000


Forces in eV/Ang:
  0 C    -0.05076   -0.08856    0.02601
  1 C    -0.03836    0.05117    0.00832
  2 C    -0.02847    0.05098    0.00252
  3 C    -0.04814    0.01749   -0.05056
  4 C     0.04269   -0.04292   -0.02430
  5 C    -0.02514   -0.03378   -0.03702
  6 C    -0.06012    0.01836   -0.04201
  7 C     0.10607    0.01467    0.04597
  8 C    -0.02862    0.01184   -0.01122
  9 C    -0.02729    0.03172    0.02354
 10 C    -0.04410   -0.02857    0.05048
 11 C     0.00427   -0.07047   -0.03938
 12 C    -0.10491   -0.16692   -0.04527
 13 C     0.01073   -0.08503    0.02190
 14 C     0.02450    0.02997    0.00117
 15 C     0.04518    0.03422   -0.02670
 16 C     0.02036   -0.07385    0.00387
 17 C     0.00270   -0.00019    0.08751
 18 C    -0.08760    0.04726   -0.00533
 19 C     0.05040   -0.01138    0.04885
 20 C     0.00948   -0.01134   -0.06286
 21 C    -0.00762   -0.02404    0.02166
 22 C     0.00456    0.00682   -0.01232
 23 C     0.01916   -0.00457   -0.01077

System changes: positions 

Initializing position-dependent things.

Density initialized from wave functions
           .--------------------------------------.  
          /|                                      |  
         / |                                      |  
        /  |                                      |  
       /   |                                      |  
      /    |                                      |  
     /     |                                      |  
    /      |                                      |  
   /       |                                      |  
  /        |            C                         |  
 *         |   C  C  C     C C                    |  
 |         |   C  C     C  C     C                |  
 |         .--C--C-C---C-C----C--C----------------.  
 |        /                 C                    /   
 |       /          C  C  C  C                  /    
 |      /                                      /     
 |     /                                      /      
 |    /                                      /       
 |   /                                      /        
 |  /                                      /         
 | /                                      /          
 |/                                      /           
 *--------------------------------------*            

Positions:
   0 C      5.047720    7.362959    5.554826
   1 C      3.490588    8.982599    5.078083
   2 C      4.973782    5.914728    5.404302
   3 C      7.417366    7.589004    5.332574
   4 C     10.331487    4.487794    4.380048
   5 C      6.173939    5.220759    5.371475
   6 C      7.318442    6.156494    5.482290
   7 C      8.741795    8.056447    5.034545
   8 C      6.928196   10.480287    5.018147
   9 C     10.599067    9.364839    4.437712
  10 C      6.119621    8.265248    5.318897
  11 C      9.391818    3.598879    4.445028
  12 C      6.706385    3.866821    5.029550
  13 C     10.910387    8.132275    4.307772
  14 C      9.897786    7.177549    4.741914
  15 C      9.742729    5.766946    4.800592
  16 C      8.078123    3.960502    4.967158
  17 C      8.429667    5.376636    5.253532
  18 C      4.367587    9.900965    5.044435
  19 C      3.667358    6.277545    4.732906
  20 C      5.781026    9.687343    5.127932
  21 C      8.180876   10.391652    4.887125
  22 C      3.622987    7.608557    5.327151
  23 C      9.208283    9.467559    4.785466

Unit cell:
           periodic     x           y           z      points  spacing
  1. axis:    yes   16.000000    0.000000    0.000000    80     0.2000
  2. axis:    yes    0.000000   16.000000    0.000000    80     0.2000
  3. axis:    yes    0.000000    0.000000   10.000000    48     0.2083

Effective grid spacing dv^(1/3) = 0.2027

                     log10-error:    total        iterations:
           time      wfs    density  energy       fermi  poisson
iter:   1  14:37:49          +inf  -182.054704    3      4      
iter:   2  14:37:50         -2.40  -182.020425    3      2      
iter:   3  14:37:50         -3.17  -182.017557    2      1      
iter:   4  14:37:51         -3.49  -182.017627    2      1      
iter:   5  14:37:51         -3.64  -182.017623    2      1      
iter:   6  14:37:52         -3.75  -182.017931    2      1      
iter:   7  14:37:53         -3.95  -182.018409    2      1      
iter:   8  14:37:53         -3.78  -182.018335    2      1      
iter:   9  14:37:54         -3.61  -182.017613    2      1      
iter:  10  14:37:54         -4.22  -182.017090    2      1      

Converged after 10 iterations.

Dipole moment: (-0.199691, 0.646820, 0.309313) |e|*Ang

Energy contributions relative to reference atoms: (reference = -24663.074771)

Kinetic:       +118.164273
Potential:     -122.906549
External:        +0.000000
XC:            -180.143221
Entropy (-ST):   -0.241379
Local:           +2.989097
--------------------------
Free energy:   -182.137779
Extrapolated:  -182.017090

Fermi level: -4.27906

 Band  Eigenvalues  Occupancy
    0    -23.45205    2.00000
    1    -22.69290    2.00000
    2    -22.08262    2.00000
    3    -21.40862    2.00000
    4    -20.90452    2.00000
    5    -20.12233    2.00000
    6    -19.85109    2.00000
    7    -18.96864    2.00000
    8    -18.65975    2.00000
    9    -17.84728    2.00000
   10    -17.18221    2.00000
   11    -16.97201    2.00000
   12    -16.64727    2.00000
   13    -15.64131    2.00000
   14    -15.05290    2.00000
   15    -14.58765    2.00000
   16    -13.99891    2.00000
   17    -13.73338    2.00000
   18    -13.27643    2.00000
   19    -12.89948    2.00000
   20    -12.53199    2.00000
   21    -11.79202    2.00000
   22    -11.59501    2.00000
   23    -11.15473    2.00000
   24    -11.11376    2.00000
   25    -10.86315    2.00000
   26    -10.59789    2.00000
   27    -10.48713    2.00000
   28    -10.09892    2.00000
   29     -9.94258    2.00000
   30     -9.64392    2.00000
   31     -9.25590    2.00000
   32     -8.93893    2.00000
   33     -8.82511    2.00000
   34     -8.59688    2.00000
   35     -8.33191    2.00000
   36     -7.89896    2.00000
   37     -7.16863    2.00000
   38     -6.89654    2.00000
   39     -6.78517    2.00000
   40     -6.43507    2.00000
   41     -6.34832    2.00000
   42     -6.18591    2.00000
   43     -5.64968    2.00000
   44     -5.39027    1.99997
   45     -5.12795    1.99959
   46     -4.94818    1.99752
   47     -4.39820    1.53398
   48     -4.14297    0.40818
   49     -3.92198    0.05473
   50     -3.69680    0.00590
   51     -3.29556    0.00011
   52     -3.12170    0.00002
   53     -2.81924    0.00000
   54     -2.37765    0.00000
   55     -2.13152    0.00000
   56     -1.16073    0.00000
   57     -0.71104    0.00000
   58      0.22609    0.00000
   59      0.73849    0.00000
   60      1.30571    0.00000
   61      2.22407    0.00000
   62      2.52339    0.00000
   63      2.88172    0.00000
   64      3.28934    0.00000
   65      3.60724    0.00000
   66      3.80357    0.00000
   67      3.94876    0.00000
   68      4.37815    0.00000
   69      5.04312    0.00000
   70      5.14111    0.00000
   71      5.79295    0.00000
   72      6.04608    0.00000
   73      6.14524    0.00000
   74      6.42165    0.00000
   75      6.64043    0.00000
   76      7.15350    0.00000
   77      7.37753    0.00000
   78      7.66842    0.00000
   79      8.15191    0.00000
   80      8.33102    0.00000
   81      8.69515    0.00000
   82      8.88662    0.00000
   83      8.92954    0.00000
   84      8.98313    0.00000
   85      9.02075    0.00000
   86      9.25063    0.00000
   87      9.47840    0.00000
   88      9.60634    0.00000
   89      9.67152    0.00000
   90      9.73698    0.00000
   91      9.82971    0.00000
   92      9.88333    0.00000
   93     10.16582    0.00000
   94     10.23177    0.00000
   95     10.44897    0.00000
   96     10.47789    0.00000
   97     10.58502    0.00000


Forces in eV/Ang:
  0 C    -0.08134   -0.07091    0.04623
  1 C    -0.04550    0.03533    0.00475
  2 C    -0.02675    0.02116    0.02484
  3 C    -0.03444    0.01648   -0.04966
  4 C     0.01057   -0.03523   -0.00454
  5 C    -0.02148   -0.02496   -0.03387
  6 C    -0.05463    0.02830   -0.04832
  7 C     0.09400    0.01628    0.04984
  8 C    -0.02229    0.01636   -0.00555
  9 C    -0.02183    0.01156    0.01678
 10 C    -0.04036   -0.01484    0.04788
 11 C    -0.00362   -0.05451   -0.04153
 12 C     0.00839   -0.02654   -0.00397
 13 C     0.02231   -0.06745    0.01342
 14 C     0.00714    0.02265    0.00193
 15 C     0.05249    0.01505   -0.02560
 16 C     0.03275   -0.06246    0.00472
 17 C     0.03709    0.01353    0.06312
 18 C    -0.05395    0.04250    0.00208
 19 C     0.03958   -0.02227    0.03145
 20 C    -0.00895   -0.00137   -0.06389
 21 C    -0.00601   -0.02320    0.01411
 22 C     0.00839    0.00590    0.00198
 23 C     0.02733   -0.00506   -0.00209

System changes: positions 

Initializing position-dependent things.

Density initialized from wave functions
           .--------------------------------------.  
          /|                                      |  
         / |                                      |  
        /  |                                      |  
       /   |                                      |  
      /    |                                      |  
     /     |                                      |  
    /      |                                      |  
   /       |                                      |  
  /        |            C                         |  
 *         |   C  C  C     C C                    |  
 |         |   C  C     C  C     C                |  
 |         .--C--C-C---C-C----C--C----------------.  
 |        /                 C                    /   
 |       /          C  C  C  C                  /    
 |      /                                      /     
 |     /                                      /      
 |    /                                      /       
 |   /                                      /        
 |  /                                      /         
 | /                                      /          
 |/                                      /           
 *--------------------------------------*            

Positions:
   0 C      5.046574    7.363117    5.560126
   1 C      3.487152    8.984722    5.080027
   2 C      4.973726    5.916072    5.403558
   3 C      7.416336    7.588807    5.330246
   4 C     10.334750    4.483668    4.384499
   5 C      6.173372    5.220626    5.367358
   6 C      7.317255    6.156252    5.479013
   7 C      8.742426    8.055700    5.031690
   8 C      6.926071   10.479970    5.018803
   9 C     10.599348    9.365001    4.436524
  10 C      6.118183    8.265193    5.322122
  11 C      9.395154    3.594231    4.445904
  12 C      6.707423    3.863389    5.030805
  13 C     10.914834    8.132074    4.308480
  14 C      9.900048    7.178060    4.739915
  15 C      9.743938    5.767010    4.798098
  16 C      8.079911    3.958384    4.966523
  17 C      8.429532    5.376545    5.252974
  18 C      4.363609    9.903943    5.045482
  19 C      3.669618    6.279387    4.734094
  20 C      5.778881    9.686244    5.126591
  21 C      8.179097   10.388685    4.888688
  22 C      3.622345    7.610403    5.328322
  23 C      9.208450    9.466950    4.782842

Unit cell:
           periodic     x           y           z      points  spacing
  1. axis:    yes   16.000000    0.000000    0.000000    80     0.2000
  2. axis:    yes    0.000000   16.000000    0.000000    80     0.2000
  3. axis:    yes    0.000000    0.000000   10.000000    48     0.2083

Effective grid spacing dv^(1/3) = 0.2027

                     log10-error:    total        iterations:
           time      wfs    density  energy       fermi  poisson
iter:   1  14:37:56          +inf  -182.023950    3      4      
iter:   2  14:37:57         -2.80  -182.019743    3      1      
iter:   3  14:37:57         -3.06  -182.018467    2      1      
iter:   4  14:37:58         -3.20  -182.019891    2      1      
iter:   5  14:37:58         -3.37  -182.018885    2      1      
iter:   6  14:37:59         -3.25  -182.023577    3      1      
iter:   7  14:37:59         -3.11  -182.022293    2      1      
iter:   8  14:38:00         -3.34  -182.018356    2      1      
iter:   9  14:38:00         -3.98  -182.018088    2      1      
iter:  10  14:38:01         -4.18  -182.018385    2      1      

Converged after 10 iterations.

Dipole moment: (-0.203362, 0.647075, 0.307505) |e|*Ang

Energy contributions relative to reference atoms: (reference = -24663.074771)

Kinetic:       +117.122063
Potential:     -122.087937
External:        +0.000000
XC:            -179.904660
Entropy (-ST):   -0.241874
Local:           +2.973087
--------------------------
Free energy:   -182.139322
Extrapolated:  -182.018385

Fermi level: -4.28163

 Band  Eigenvalues  Occupancy
    0    -23.45546    2.00000
    1    -22.68163    2.00000
    2    -22.07353    2.00000
    3    -21.40506    2.00000
    4    -20.89571    2.00000
    5    -20.11611    2.00000
    6    -19.84402    2.00000
    7    -18.96582    2.00000
    8    -18.65666    2.00000
    9    -17.84637    2.00000
   10    -17.17654    2.00000
   11    -16.96948    2.00000
   12    -16.64643    2.00000
   13    -15.63860    2.00000
   14    -15.04932    2.00000
   15    -14.58170    2.00000
   16    -13.99505    2.00000
   17    -13.73224    2.00000
   18    -13.27067    2.00000
   19    -12.90217    2.00000
   20    -12.52653    2.00000
   21    -11.79540    2.00000
   22    -11.59157    2.00000
   23    -11.15300    2.00000
   24    -11.11104    2.00000
   25    -10.85785    2.00000
   26    -10.59689    2.00000
   27    -10.48273    2.00000
   28    -10.09775    2.00000
   29     -9.94223    2.00000
   30     -9.63920    2.00000
   31     -9.26386    2.00000
   32     -8.93890    2.00000
   33     -8.82020    2.00000
   34     -8.59597    2.00000
   35     -8.32674    2.00000
   36     -7.89357    2.00000
   37     -7.16863    2.00000
   38     -6.89615    2.00000
   39     -6.78986    2.00000
   40     -6.43454    2.00000
   41     -6.34495    2.00000
   42     -6.18387    2.00000
   43     -5.65409    2.00000
   44     -5.38898    1.99997
   45     -5.12871    1.99958
   46     -4.94567    1.99739
   47     -4.40106    1.53502
   48     -4.14434    0.40430
   49     -3.93005    0.05773
   50     -3.69884    0.00587
   51     -3.30357    0.00011
   52     -3.13385    0.00002
   53     -2.82160    0.00000
   54     -2.37519    0.00000
   55     -2.13570    0.00000
   56     -1.15818    0.00000
   57     -0.71977    0.00000
   58      0.22225    0.00000
   59      0.73224    0.00000
   60      1.30081    0.00000
   61      2.21869    0.00000
   62      2.52521    0.00000
   63      2.88455    0.00000
   64      3.28601    0.00000
   65      3.58914    0.00000
   66      3.79022    0.00000
   67      3.94800    0.00000
   68      4.37023    0.00000
   69      5.03081    0.00000
   70      5.13022    0.00000
   71      5.77188    0.00000
   72      6.04821    0.00000
   73      6.14528    0.00000
   74      6.40321    0.00000
   75      6.62417    0.00000
   76      7.14343    0.00000
   77      7.35776    0.00000
   78      7.64916    0.00000
   79      8.14165    0.00000
   80      8.32579    0.00000
   81      8.68993    0.00000
   82      8.88278    0.00000
   83      8.92722    0.00000
   84      8.98059    0.00000
   85      9.02148    0.00000
   86      9.25027    0.00000
   87      9.47635    0.00000
   88      9.60256    0.00000
   89      9.67042    0.00000
   90      9.73048    0.00000
   91      9.82443    0.00000
   92      9.87952    0.00000
   93     10.16481    0.00000
   94     10.23044    0.00000
   95     10.44325    0.00000
   96     10.47548    0.00000
   97     10.58574    0.00000


Forces in eV/Ang:
  0 C    -0.07150   -0.02319    0.00460
  1 C    -0.01892   -0.00076    0.00321
  2 C    -0.01897   -0.04386    0.05251
  3 C    -0.00421    0.02962   -0.04794
  4 C    -0.03639    0.01793    0.02338
  5 C    -0.00182   -0.04609   -0.00292
  6 C    -0.02286    0.01916   -0.04815
  7 C     0.06247    0.01467    0.05770
  8 C     0.00960   -0.00080   -0.01496
  9 C    -0.00287   -0.04299    0.00563
 10 C    -0.03324   -0.00502    0.01050
 11 C    -0.03027   -0.00836   -0.02225
 12 C     0.05988    0.06414   -0.00007
 13 C     0.00857    0.00980    0.02025
 14 C    -0.01857   -0.01750    0.00063
 15 C     0.03426   -0.05046    0.00800
 16 C     0.00891   -0.01732    0.01664
 17 C     0.08926   -0.01512   -0.00401
 18 C     0.01272   -0.00169    0.00679
 19 C     0.00447    0.00080   -0.01257
 20 C    -0.04483    0.03841   -0.02743
 21 C    -0.01903   -0.00940   -0.00226
 22 C    -0.00128   -0.00135    0.02597
 23 C     0.01066   -0.00127    0.01635

