
  ___ ___ ___ _ _ _  
 |   |   |_  | | | | 
 | | | | | . | | | | 
 |__ |  _|___|_____|  1.3.0b1
 |___|_|             

User:   esb@s65n71.grendel.cscaa.dk
Date:   Wed Nov  8 17:09:52 2017
Arch:   x86_64
Pid:    57259
Python: 2.7.13
gpaw:   /home/esb/DFT/gpaw_git/gpaw
_gpaw:  /home/esb/DFT/gpaw_git/build/bin.linux-x86_64-2.7/gpaw-python
ase:    /home/esb/DFT/ase_git/ase (version 3.15.0b1)
numpy:  /comm/swstack/core/python/2.7.13/lib/python2.7/site-packages/numpy (version 1.13.3)
scipy:  /comm/swstack/core/python/2.7.13/lib/python2.7/site-packages/scipy (version 0.19.1)
units:  Angstrom and eV
cores:  16
Extra parameters: {'blacs': True}

Input parameters:
  basis: dzp
  gpts: [80 80 48]
  kpts: [1 1 1]
  maxiter: 99
  mixer: {backend: pulay,
          beta: 0.05,
          method: separate,
          nmaxold: 5,
          weight: 75}
  mode: lcao
  nbands: -50
  occupations: {name: fermi-dirac,
                width: 0.1}
  poissonsolver: {eps: 1e-07,
                  name: fd,
                  nn: 3,
                  relax: GS}
  xc: PBE

System changes: positions, numbers, cell, pbc, initial_charges, initial_magmoms 

Initialize ...

C-setup:
  name: Carbon
  id: 4aa54d4b901d75f77cc0ea3eec22967b
  Z: 6
  valence: 4
  core: 2
  charge: 0.0
  file: /home/esb/DFT/gpaw-setups-0.8.7929/C.PBE.gz
  cutoffs: 0.64(comp), 1.14(filt), 1.14(core), lmax=2
  valence states:
                energy  radius
    2s(2.00)   -13.751   0.635
    2p(2.00)    -5.284   0.635
    *s          13.461   0.635
    *p          21.927   0.635
    *d           0.000   0.635

  LCAO basis set for C:
    Name: dzp
    File: /home/esb/DFT/gpaw-setups-0.8.7929/C.dzp.basis.gz
    Number of radial functions: 5
    Number of spherical harmonics: 13
      l=0, rc=5.5469 Bohr: 2s-sz confined orbital
      l=1, rc=6.6719 Bohr: 2p-sz confined orbital
      l=0, rc=3.0312 Bohr: 2s-dz split-valence wave
      l=1, rc=3.7500 Bohr: 2p-dz split-valence wave
      l=2, rc=6.6719 Bohr: d-type Gaussian polarization

Reference energy: -24663.074771

Spin-paired calculation

Occupation numbers:
  Fermi-Dirac: width=0.1000 eV

Convergence criteria:
  Maximum total energy change: 0.0005 eV / electron
  Maximum integral of absolute density change: 0.0001 electrons
  Maximum integral of absolute eigenstate change: 4e-08 eV^2
  Maximum number of iterations: 99

Symmetries present (total): 1

  ( 1  0  0)
  ( 0  1  0)
  ( 0  0  1)

1 k-point (Gamma)
1 k-point in the irreducible part of the Brillouin zone
       k-points in crystal coordinates                weights
   0:     0.00000000    0.00000000    0.00000000          1/1

Wave functions: LCAO
  Diagonalizer: Serial LAPACK
  Atomic Correction: dense with blas
  Datatype: float
  Eigensolver: None 

LCAO using direct dense diagonalizer 

Densities:
  Coarse grid: 80*80*48 grid
  Fine grid: 160*160*96 grid
  Total Charge: 0.000000 

Density mixing:
  Method: separate
  Backend: pulay
  Linear mixing parameter: 0.05
  Mixing with 5 old densities
  Damping of long wave oscillations: 75 

Hamiltonian:
  XC and Coulomb potentials evaluated on a 160*160*96 grid
  Using the PBE Exchange-Correlation functional
  Interpolation: tri-quintic (5. degree polynomial)
  Poisson solver: Gauss-Seidel solver with 6 multi-grid levels
    Coarsest grid: 5 x 5 x 3 points
    Stencil: 6*3+1=19 point O(h^6) finite-difference Laplacian
    Max iterations: 1000
    Tolerance: 1.000000e-07 

Memory estimate:
  Process memory now: 77.59 MiB
  Calculator: 15.59 MiB
    Density: 6.13 MiB
      Arrays: 3.81 MiB
      Localized functions: 0.86 MiB
      Mixer: 1.46 MiB
    Hamiltonian: 5.40 MiB
      Arrays: 2.49 MiB
      XC: 0.00 MiB
      Poisson: 2.85 MiB
      vbar: 0.07 MiB
    Wavefunctions: 4.05 MiB
      C [qnM]: 0.23 MiB
      S, T [2 x qmm]: 1.49 MiB
      P [aqMi]: 0.01 MiB
      TCI: 0.00 MiB
      BasisFunctions: 2.33 MiB
      Eigensolver: 0.00 MiB

Total number of cores used: 16
Domain decomposition: 2 x 4 x 2

Number of atoms: 24
Number of atomic orbitals: 312
Number of bands in calculation: 98
Bands to converge: occupied states only
Number of valence electrons: 96

... initialized

Initializing position-dependent things.

Density initialized from atomic densities
           .--------------------------------------.  
          /|                                      |  
         / |                                      |  
        /  |                                      |  
       /   |                                      |  
      /    |                                      |  
     /     |                                      |  
    /      |                                      |  
   /       |      C  C                            |  
  /        |     C     C  C                       |  
 *         |               C   C  C               |  
 |         |    CC   C   C       C                |  
 |         .---C-----C---C-C---C-C----------------.  
 |        /     C  C  CC  C                      /   
 |       /                                      /    
 |      /                                      /     
 |     /                                      /      
 |    /                                      /       
 |   /                                      /        
 |  /                                      /         
 | /                                      /          
 |/                                      /           
 *--------------------------------------*            

Positions:
   0 C     10.747157    6.005169    5.043671
   1 C     11.269447    7.134263    4.957308
   2 C     11.113106    8.505769    4.934269
   3 C     10.978126    9.956465    4.854680
   4 C      9.289009    3.933811    5.174407
   5 C      9.501709    5.328032    5.187972
   6 C      9.873213    9.080310    5.151590
   7 C      7.622854    9.807095    5.802140
   8 C      6.375922    9.789677    5.940044
   9 C      7.778894    7.476540    5.450777
  10 C      8.217251    6.019402    5.321390
  11 C      8.496992    8.748068    5.468537
  12 C      5.188180   11.327063    5.594650
  13 C      6.580736    6.952233    5.125670
  14 C      3.612157    9.312026    4.607643
  15 C      4.595847    5.718686    4.542000
  16 C      7.177607    4.925782    5.176048
  17 C      7.946914    3.766529    5.195508
  18 C      3.905498   11.834828    5.423931
  19 C      5.929668    5.633895    4.937803
  20 C      3.662129   10.546018    4.960730
  21 C      4.457848    8.192534    4.651800
  22 C      5.961055    8.199529    5.034877
  23 C      4.058217    6.864453    4.413628

Unit cell:
           periodic     x           y           z      points  spacing
  1. axis:    yes   16.000000    0.000000    0.000000    80     0.2000
  2. axis:    yes    0.000000   16.000000    0.000000    80     0.2000
  3. axis:    yes    0.000000    0.000000   10.000000    48     0.2083

Effective grid spacing dv^(1/3) = 0.2027

                     log10-error:    total        iterations:
           time      wfs    density  energy       fermi  poisson
iter:   1  17:09:54          +inf  -177.679167    3      6      
iter:   2  17:09:55         -0.90  -176.655385    4      3      
iter:   3  17:09:56         -0.93  -174.315928    32     3      
iter:   4  17:09:56         -1.11  -173.794593    4      3      
iter:   5  17:09:57         -1.18  -173.493150    35     4      
iter:   6  17:09:58         -1.48  -173.307402    3      3      
iter:   7  17:09:59         -1.64  -173.288302    3      3      
iter:   8  17:09:59         -1.77  -173.269654    3      2      
iter:   9  17:10:00         -1.85  -173.250396    4      2      
iter:  10  17:10:00         -2.00  -173.237292    4      3      
iter:  11  17:10:01         -2.22  -173.233369    4      2      
iter:  12  17:10:02         -2.48  -173.227950    3      2      
iter:  13  17:10:02         -2.66  -173.226200    3      2      
iter:  14  17:10:03         -2.79  -173.240253    3      1      
iter:  15  17:10:04         -2.91  -173.224494    3      2      
iter:  16  17:10:04         -3.17  -173.217535    3      1      
iter:  17  17:10:05         -3.28  -173.224195    3      1      
iter:  18  17:10:05         -3.45  -173.221047    2      1      
iter:  19  17:10:06         -3.55  -173.220770    2      1      
iter:  20  17:10:06         -3.67  -173.225408    2      1      
iter:  21  17:10:07         -3.92  -173.222307    2      1      
iter:  22  17:10:07         -3.99  -173.221135    2      1      
iter:  23  17:10:08         -4.11  -173.222761    2      1      

Converged after 23 iterations.

Dipole moment: (-0.251309, -0.414243, 0.013785) |e|*Ang

Energy contributions relative to reference atoms: (reference = -24663.074771)

Kinetic:       +111.611848
Potential:     -114.839705
External:        +0.000000
XC:            -172.750305
Entropy (-ST):   -0.353582
Local:           +2.932193
--------------------------
Free energy:   -173.399552
Extrapolated:  -173.222761

Fermi level: -4.59948

 Band  Eigenvalues  Occupancy
    0    -23.60247    2.00000
    1    -22.90327    2.00000
    2    -21.90701    2.00000
    3    -21.62012    2.00000
    4    -21.23017    2.00000
    5    -20.43807    2.00000
    6    -19.77116    2.00000
    7    -19.45981    2.00000
    8    -18.55115    2.00000
    9    -18.34783    2.00000
   10    -17.46274    2.00000
   11    -17.11978    2.00000
   12    -16.77806    2.00000
   13    -15.47038    2.00000
   14    -14.94629    2.00000
   15    -14.45863    2.00000
   16    -14.13901    2.00000
   17    -13.50149    2.00000
   18    -13.08002    2.00000
   19    -12.83738    2.00000
   20    -12.42504    2.00000
   21    -12.05897    2.00000
   22    -11.61831    2.00000
   23    -11.01625    2.00000
   24    -10.89147    2.00000
   25    -10.55373    2.00000
   26    -10.17908    2.00000
   27     -9.97688    2.00000
   28     -9.61997    2.00000
   29     -9.50726    2.00000
   30     -9.16891    2.00000
   31     -9.05640    2.00000
   32     -8.76636    2.00000
   33     -8.67043    2.00000
   34     -8.57069    2.00000
   35     -7.80300    2.00000
   36     -7.68824    2.00000
   37     -7.48566    2.00000
   38     -7.05539    2.00000
   39     -6.95548    2.00000
   40     -6.68366    2.00000
   41     -6.25552    2.00000
   42     -5.77124    1.99998
   43     -5.68656    1.99996
   44     -5.60430    1.99991
   45     -4.94059    1.93610
   46     -4.84671    1.84436
   47     -4.66986    1.33806
   48     -4.57383    0.87247
   49     -4.03468    0.00703
   50     -3.87843    0.00148
   51     -3.79713    0.00066
   52     -2.96288    0.00000
   53     -2.45466    0.00000
   54     -2.17468    0.00000
   55     -1.87085    0.00000
   56     -1.60037    0.00000
   57     -0.76389    0.00000
   58     -0.63264    0.00000
   59     -0.11135    0.00000
   60      0.48097    0.00000
   61      0.72125    0.00000
   62      1.15538    0.00000
   63      1.46958    0.00000
   64      2.16627    0.00000
   65      2.29032    0.00000
   66      2.59072    0.00000
   67      2.76921    0.00000
   68      3.66137    0.00000
   69      3.74915    0.00000
   70      4.26649    0.00000
   71      4.61263    0.00000
   72      4.88576    0.00000
   73      5.34210    0.00000
   74      5.67238    0.00000
   75      6.12942    0.00000
   76      6.74702    0.00000
   77      7.02491    0.00000
   78      7.27281    0.00000
   79      7.39662    0.00000
   80      7.82478    0.00000
   81      8.24003    0.00000
   82      8.61001    0.00000
   83      8.64757    0.00000
   84      8.74029    0.00000
   85      8.84127    0.00000
   86      9.00006    0.00000
   87      9.18116    0.00000
   88      9.21400    0.00000
   89      9.28806    0.00000
   90      9.44191    0.00000
   91      9.51619    0.00000
   92      9.58426    0.00000
   93      9.87523    0.00000
   94      9.97173    0.00000
   95     10.23838    0.00000
   96     10.35415    0.00000
   97     10.37649    0.00000


Forces in eV/Ang:
  0 C    -0.98220   -0.53093    0.16756
  1 C     0.33304    0.64999   -0.00030
  2 C     0.59512   -0.02758   -0.18066
  3 C     0.00235   -0.62207    0.00860
  4 C    -4.25378   -1.77402    0.21135
  5 C     2.25891    1.09066   -0.08545
  6 C    -1.18142    0.20005    0.48486
  7 C     4.92177    0.40470   -0.44355
  8 C    -6.14473   -0.89864   -2.25483
  9 C     8.42970   -5.48059   -0.02251
 10 C     3.48063    0.35332    0.60414
 11 C    -0.72400    0.27572    0.65426
 12 C    -0.93517   -1.83046   -0.12940
 13 C    -7.30632    6.60307   -0.22112
 14 C     0.71240   -0.05589    0.12843
 15 C     0.17339   -0.32529    0.06178
 16 C    -1.05359    0.73913   -0.16110
 17 C     3.11852   -1.11707   -0.33016
 18 C     1.66962   -0.17526    0.59033
 19 C     2.80801   -0.27155    0.67201
 20 C     0.90452   -0.29093    0.12487
 21 C    -0.76401    0.66500   -0.24691
 22 C    -6.42279    2.33498    0.43918
 23 C     0.29836    0.03794   -0.03016

System changes: positions 

Initializing position-dependent things.

Density initialized from wave functions
           .--------------------------------------.  
          /|                                      |  
         / |                                      |  
        /  |                                      |  
       /   |                                      |  
      /    |                                      |  
     /     |                                      |  
    /      |                                      |  
   /       |      C  C                            |  
  /        |     C     C  C                       |  
 *         |               C   C  C               |  
 |         |    CC   C   C       C                |  
 |         .---C---------C--C--C-C----------------.  
 |        /     C  C  CC  C                      /   
 |       /                                      /    
 |      /                                      /     
 |     /                                      /      
 |    /                                      /       
 |   /                                      /        
 |  /                                      /         
 | /                                      /          
 |/                                      /           
 *--------------------------------------*            

Positions:
   0 C     10.743250    6.003057    5.044338
   1 C     11.270772    7.136849    4.957307
   2 C     11.115473    8.505660    4.933551
   3 C     10.978136    9.953991    4.854714
   4 C      9.272087    3.926754    5.175248
   5 C      9.510696    5.332371    5.187632
   6 C      9.868513    9.081105    5.153519
   7 C      7.642434    9.808705    5.800376
   8 C      6.351477    9.786102    5.931074
   9 C      7.812430    7.454737    5.450688
  10 C      8.231098    6.020807    5.323794
  11 C      8.494112    8.749165    5.471140
  12 C      5.184460   11.319781    5.594136
  13 C      6.551669    6.978501    5.124790
  14 C      3.614991    9.311803    4.608154
  15 C      4.596537    5.717392    4.542246
  16 C      7.173416    4.928722    5.175407
  17 C      7.959320    3.762085    5.194195
  18 C      3.912140   11.834130    5.426279
  19 C      5.940839    5.632815    4.940477
  20 C      3.665728   10.544860    4.961227
  21 C      4.454809    8.195180    4.650817
  22 C      5.935503    8.208818    5.036624
  23 C      4.059404    6.864604    4.413508

Unit cell:
           periodic     x           y           z      points  spacing
  1. axis:    yes   16.000000    0.000000    0.000000    80     0.2000
  2. axis:    yes    0.000000   16.000000    0.000000    80     0.2000
  3. axis:    yes    0.000000    0.000000   10.000000    48     0.2083

Effective grid spacing dv^(1/3) = 0.2027

                     log10-error:    total        iterations:
           time      wfs    density  energy       fermi  poisson
iter:   1  17:10:10          +inf  -174.678058    3      5      
iter:   2  17:10:10         -1.97  -174.609056    3      2      
iter:   3  17:10:11         -2.17  -174.590561    3      2      
iter:   4  17:10:12         -2.32  -174.588574    3      2      
iter:   5  17:10:12         -2.46  -174.583031    3      2      
iter:   6  17:10:13         -2.57  -174.583486    2      2      
iter:   7  17:10:13         -2.67  -174.582915    2      2      
iter:   8  17:10:14         -2.97  -174.582150    2      2      
iter:   9  17:10:15         -3.13  -174.581932    2      1      
iter:  10  17:10:15         -3.33  -174.582258    2      1      
iter:  11  17:10:16         -3.43  -174.582749    2      1      
iter:  12  17:10:16         -3.61  -174.582210    2      1      
iter:  13  17:10:17         -3.70  -174.582183    2      1      
iter:  14  17:10:17         -3.88  -174.582328    2      1      
iter:  15  17:10:18         -4.15  -174.582034    2      1      

Converged after 15 iterations.

Dipole moment: (-0.245531, -0.417132, 0.015905) |e|*Ang

Energy contributions relative to reference atoms: (reference = -24663.074771)

Kinetic:       +107.223522
Potential:     -112.199929
External:        +0.000000
XC:            -172.361922
Entropy (-ST):   -0.336876
Local:           +2.924733
--------------------------
Free energy:   -174.750472
Extrapolated:  -174.582034

Fermi level: -4.57663

 Band  Eigenvalues  Occupancy
    0    -23.37576    2.00000
    1    -22.86305    2.00000
    2    -21.90991    2.00000
    3    -21.65248    2.00000
    4    -21.13640    2.00000
    5    -20.39073    2.00000
    6    -19.72482    2.00000
    7    -19.43175    2.00000
    8    -18.52325    2.00000
    9    -18.31949    2.00000
   10    -17.46066    2.00000
   11    -17.08612    2.00000
   12    -16.77401    2.00000
   13    -15.42309    2.00000
   14    -14.97249    2.00000
   15    -14.40051    2.00000
   16    -14.18085    2.00000
   17    -13.51492    2.00000
   18    -13.10578    2.00000
   19    -12.74299    2.00000
   20    -12.43970    2.00000
   21    -12.11602    2.00000
   22    -11.56018    2.00000
   23    -11.01067    2.00000
   24    -10.84501    2.00000
   25    -10.59188    2.00000
   26    -10.18062    2.00000
   27     -9.97506    2.00000
   28     -9.62652    2.00000
   29     -9.52784    2.00000
   30     -9.16242    2.00000
   31     -9.04069    2.00000
   32     -8.73691    2.00000
   33     -8.67928    2.00000
   34     -8.57891    2.00000
   35     -7.89689    2.00000
   36     -7.79888    2.00000
   37     -7.41433    2.00000
   38     -7.03555    2.00000
   39     -6.94926    2.00000
   40     -6.67098    2.00000
   41     -6.29746    2.00000
   42     -5.87536    2.00000
   43     -5.69778    1.99997
   44     -5.63378    1.99995
   45     -4.94154    1.94929
   46     -4.86191    1.89092
   47     -4.64018    1.30745
   48     -4.54533    0.84476
   49     -3.99360    0.00586
   50     -3.81092    0.00094
   51     -3.80123    0.00086
   52     -2.96323    0.00000
   53     -2.44576    0.00000
   54     -2.11089    0.00000
   55     -1.81820    0.00000
   56     -1.62044    0.00000
   57     -0.75284    0.00000
   58     -0.57950    0.00000
   59     -0.20882    0.00000
   60      0.49460    0.00000
   61      0.79054    0.00000
   62      1.19888    0.00000
   63      1.58560    0.00000
   64      2.18846    0.00000
   65      2.24261    0.00000
   66      2.61617    0.00000
   67      2.80595    0.00000
   68      3.70773    0.00000
   69      3.79745    0.00000
   70      4.27561    0.00000
   71      4.74068    0.00000
   72      5.13146    0.00000
   73      5.34923    0.00000
   74      5.71123    0.00000
   75      6.12757    0.00000
   76      6.77885    0.00000
   77      7.17204    0.00000
   78      7.17639    0.00000
   79      7.34561    0.00000
   80      7.83736    0.00000
   81      8.31550    0.00000
   82      8.61882    0.00000
   83      8.67511    0.00000
   84      8.81418    0.00000
   85      8.91883    0.00000
   86      9.07061    0.00000
   87      9.16567    0.00000
   88      9.20038    0.00000
   89      9.34935    0.00000
   90      9.43739    0.00000
   91      9.54254    0.00000
   92      9.61512    0.00000
   93      9.87654    0.00000
   94      9.97652    0.00000
   95     10.22517    0.00000
   96     10.33959    0.00000
   97     10.38911    0.00000


Forces in eV/Ang:
  0 C    -0.43431   -0.01878    0.09394
  1 C     0.14247    0.20330    0.03473
  2 C     0.37624    0.04413   -0.12580
  3 C    -0.08209   -0.61550    0.03097
  4 C    -3.01091   -1.30958    0.12353
  5 C     1.79241    0.44526    0.06109
  6 C    -0.70502    0.31408    0.33934
  7 C     1.94955    0.67992   -0.13448
  8 C    -3.59500   -0.81711   -2.56269
  9 C     5.73162   -5.42577   -0.50269
 10 C     2.90953    0.11844    0.50931
 11 C    -0.44728   -0.22802    0.57154
 12 C    -0.51914   -2.21773   -0.09191
 13 C    -4.48943    5.95442    0.35951
 14 C     0.52906    0.11954    0.10349
 15 C     0.29072   -0.15690    0.10477
 16 C    -0.22662    0.68356   -0.08653
 17 C     1.79038   -0.83479   -0.29666
 18 C     1.42989   -0.09710    0.56849
 19 C     2.11499    0.30928    0.46822
 20 C     0.88277   -0.22632    0.12443
 21 C    -0.91663    0.49727   -0.27072
 22 C    -5.83477    2.76293    0.66869
 23 C     0.27612   -0.24043   -0.05074

System changes: positions 

Initializing position-dependent things.

Density initialized from wave functions
           .--------------------------------------.  
          /|                                      |  
         / |                                      |  
        /  |                                      |  
       /   |                                      |  
      /    |                                      |  
     /     |                                      |  
    /      |                                      |  
   /       |      C  C                            |  
  /        |     C     C  C                       |  
 *         |               C   C  C               |  
 |         |    CC   C   C       C                |  
 |         .---C---------C--C--C-C----------------.  
 |        /     C  C  CC  C                      /   
 |       /                                      /    
 |      /                                      /     
 |     /                                      /      
 |    /                                      /       
 |   /                                      /        
 |  /                                      /         
 | /                                      /          
 |/                                      /           
 *--------------------------------------*            

Positions:
   0 C     10.742747    6.004875    5.044616
   1 C     11.270896    7.136367    4.957644
   2 C     11.116872    8.506191    4.933014
   3 C     10.977332    9.950378    4.854982
   4 C      9.258975    3.920764    5.175647
   5 C      9.519531    5.332571    5.188545
   6 C      9.866141    9.083391    5.154976
   7 C      7.642759    9.813760    5.800745
   8 C      6.339836    9.781580    5.914768
   9 C      7.836139    7.422877    5.445908
  10 C      8.246142    6.020623    5.326446
  11 C      8.492511    8.745920    5.474206
  12 C      5.182959   11.305216    5.593734
  13 C      6.535749    7.011248    5.129102
  14 C      3.617427    9.313171    4.608671
  15 C      4.598697    5.717099    4.543027
  16 C      7.175192    4.932552    5.175176
  17 C      7.964898    3.758215    5.192568
  18 C      3.919687   11.833851    5.429557
  19 C      5.950727    5.636831    4.942476
  20 C      3.670863   10.543766    4.961961
  21 C      4.448816    8.197487    4.649128
  22 C      5.903235    8.226759    5.041441
  23 C      4.060952    6.862135    4.413131

Unit cell:
           periodic     x           y           z      points  spacing
  1. axis:    yes   16.000000    0.000000    0.000000    80     0.2000
  2. axis:    yes    0.000000   16.000000    0.000000    80     0.2000
  3. axis:    yes    0.000000    0.000000   10.000000    48     0.2083

Effective grid spacing dv^(1/3) = 0.2027

                     log10-error:    total        iterations:
           time      wfs    density  energy       fermi  poisson
iter:   1  17:10:20          +inf  -175.693112    3      5      
iter:   2  17:10:20         -2.02  -175.651741    3      2      
iter:   3  17:10:21         -2.20  -175.630558    2      2      
iter:   4  17:10:21         -2.40  -175.625713    3      2      
iter:   5  17:10:22         -2.57  -175.625473    2      2      
iter:   6  17:10:23         -2.70  -175.625882    2      2      
iter:   7  17:10:23         -2.86  -175.621738    3      1      
iter:   8  17:10:24         -3.00  -175.624348    3      2      
iter:   9  17:10:24         -3.16  -175.622251    2      1      
iter:  10  17:10:25         -3.43  -175.622644    2      1      
iter:  11  17:10:25         -3.51  -175.625191    2      1      
iter:  12  17:10:26         -3.59  -175.625965    2      1      
iter:  13  17:10:27         -3.69  -175.624530    2      1      
iter:  14  17:10:27         -3.84  -175.624923    2      1      
iter:  15  17:10:28         -3.97  -175.625272    2      1      
iter:  16  17:10:28         -4.11  -175.624759    2      1      

Converged after 16 iterations.

Dipole moment: (-0.244983, -0.426144, 0.015621) |e|*Ang

Energy contributions relative to reference atoms: (reference = -24663.074771)

Kinetic:       +106.415037
Potential:     -112.165417
External:        +0.000000
XC:            -172.646932
Entropy (-ST):   -0.327220
Local:           +2.936164
--------------------------
Free energy:   -175.788369
Extrapolated:  -175.624759

Fermi level: -4.55813

 Band  Eigenvalues  Occupancy
    0    -23.22838    2.00000
    1    -22.84684    2.00000
    2    -21.95128    2.00000
    3    -21.67154    2.00000
    4    -21.03929    2.00000
    5    -20.36701    2.00000
    6    -19.71938    2.00000
    7    -19.40057    2.00000
    8    -18.49306    2.00000
    9    -18.32958    2.00000
   10    -17.47311    2.00000
   11    -17.07149    2.00000
   12    -16.77791    2.00000
   13    -15.39942    2.00000
   14    -14.99822    2.00000
   15    -14.34949    2.00000
   16    -14.16587    2.00000
   17    -13.51651    2.00000
   18    -13.09450    2.00000
   19    -12.68890    2.00000
   20    -12.44373    2.00000
   21    -12.15439    2.00000
   22    -11.48378    2.00000
   23    -11.02739    2.00000
   24    -10.78187    2.00000
   25    -10.62718    2.00000
   26    -10.18013    2.00000
   27     -9.96727    2.00000
   28     -9.63382    2.00000
   29     -9.55888    2.00000
   30     -9.17491    2.00000
   31     -9.03240    2.00000
   32     -8.73625    2.00000
   33     -8.69580    2.00000
   34     -8.59867    2.00000
   35     -8.14984    2.00000
   36     -7.82615    2.00000
   37     -7.37976    2.00000
   38     -7.04014    2.00000
   39     -6.96411    2.00000
   40     -6.66437    2.00000
   41     -6.33145    2.00000
   42     -5.95005    2.00000
   43     -5.70512    1.99998
   44     -5.65658    1.99997
   45     -4.94271    1.95815
   46     -4.85932    1.90621
   47     -4.62262    1.31172
   48     -4.52119    0.81735
   49     -3.95424    0.00476
   50     -3.81895    0.00123
   51     -3.75149    0.00063
   52     -2.96197    0.00000
   53     -2.41469    0.00000
   54     -2.03683    0.00000
   55     -1.76824    0.00000
   56     -1.59969    0.00000
   57     -0.69197    0.00000
   58     -0.52096    0.00000
   59     -0.20158    0.00000
   60      0.53056    0.00000
   61      0.88450    0.00000
   62      1.26185    0.00000
   63      1.73342    0.00000
   64      2.22552    0.00000
   65      2.25790    0.00000
   66      2.65242    0.00000
   67      2.84020    0.00000
   68      3.75954    0.00000
   69      3.84148    0.00000
   70      4.32438    0.00000
   71      4.81570    0.00000
   72      5.29566    0.00000
   73      5.43041    0.00000
   74      5.82227    0.00000
   75      6.12477    0.00000
   76      6.76701    0.00000
   77      7.08928    0.00000
   78      7.25911    0.00000
   79      7.36956    0.00000
   80      7.88842    0.00000
   81      8.36724    0.00000
   82      8.62014    0.00000
   83      8.71586    0.00000
   84      8.84166    0.00000
   85      8.95501    0.00000
   86      9.10408    0.00000
   87      9.13956    0.00000
   88      9.22776    0.00000
   89      9.39407    0.00000
   90      9.47441    0.00000
   91      9.57343    0.00000
   92      9.63944    0.00000
   93      9.88706    0.00000
   94      9.99149    0.00000
   95     10.23234    0.00000
   96     10.34594    0.00000
   97     10.39294    0.00000


Forces in eV/Ang:
  0 C    -0.29451   -0.14685    0.08715
  1 C     0.20946    0.41944    0.01402
  2 C     0.26902   -0.02271   -0.08944
  3 C    -0.03629   -0.48872    0.01343
  4 C    -2.00892   -0.96882    0.07319
  5 C     1.49286    0.02656    0.13995
  6 C    -0.66474    0.26583    0.31125
  7 C     1.63302    0.38947   -0.12619
  8 C    -3.24286   -0.82785   -2.69904
  9 C     4.32045   -4.12274   -0.60672
 10 C     2.45398   -0.40057    0.38400
 11 C    -0.49179   -0.41209    0.55965
 12 C    -0.37073   -2.41817   -0.07560
 13 C    -3.17180    4.87741    0.52756
 14 C     0.29106    0.20383    0.03774
 15 C     0.47257   -0.14543    0.15004
 16 C     0.12048    0.76093   -0.06237
 17 C     0.84110   -0.71527   -0.27178
 18 C     1.33531   -0.07443    0.54849
 19 C     1.79093    0.83893    0.37048
 20 C     0.86276   -0.08552    0.14389
 21 C    -1.05820    0.30868   -0.27386
 22 C    -4.92080    2.96240    0.97001
 23 C     0.15421   -0.25913   -0.08071

System changes: positions 

Initializing position-dependent things.

Density initialized from wave functions
           .--------------------------------------.  
          /|                                      |  
         / |                                      |  
        /  |                                      |  
       /   |                                      |  
      /    |                                      |  
     /     |                                      |  
    /      |                                      |  
   /       |      C  C                            |  
  /        |     C     C  C                       |  
 *         |               C   C  C               |  
 |         |    CC  CC   C       C                |  
 |         .---C---------C--C--C-C----------------.  
 |        /     C  C  CC  C                      /   
 |       /                                      /    
 |      /                                      /     
 |     /                                      /      
 |    /                                      /       
 |   /                                      /        
 |  /                                      /         
 | /                                      /          
 |/                                      /           
 *--------------------------------------*            

Positions:
   0 C     10.742563    6.004482    5.045046
   1 C     11.272274    7.139336    4.957741
   2 C     11.117832    8.505898    4.932653
   3 C     10.977062    9.947355    4.855057
   4 C      9.251745    3.916297    5.175743
   5 C      9.528053    5.329269    5.190301
   6 C      9.862593    9.085421    5.156789
   7 C      7.646015    9.816009    5.800617
   8 C      6.323790    9.775614    5.893433
   9 C      7.854991    7.398431    5.439759
  10 C      8.260803    6.014729    5.328483
  11 C      8.489361    8.740789    5.478084
  12 C      5.181924   11.285470    5.593342
  13 C      6.525261    7.040821    5.135205
  14 C      3.618047    9.315495    4.608591
  15 C      4.603305    5.716494    4.544448
  16 C      7.179707    4.938390    5.175010
  17 C      7.963521    3.754169    5.190754
  18 C      3.928535   11.833597    5.433467
  19 C      5.960779    5.646872    4.944267
  20 C      3.677096   10.543931    4.963111
  21 C      4.439974    8.198498    4.647030
  22 C      5.872454    8.250625    5.050545
  23 C      4.061485    6.859443    4.412347

Unit cell:
           periodic     x           y           z      points  spacing
  1. axis:    yes   16.000000    0.000000    0.000000    80     0.2000
  2. axis:    yes    0.000000   16.000000    0.000000    80     0.2000
  3. axis:    yes    0.000000    0.000000   10.000000    48     0.2083

Effective grid spacing dv^(1/3) = 0.2027

                     log10-error:    total        iterations:
           time      wfs    density  energy       fermi  poisson
iter:   1  17:10:30          +inf  -176.548547    3      5      
iter:   2  17:10:31         -2.05  -176.511588    3      2      
iter:   3  17:10:31         -2.22  -176.486535    3      2      
iter:   4  17:10:32         -2.45  -176.484873    3      2      
iter:   5  17:10:32         -2.64  -176.483485    2      1      
iter:   6  17:10:33         -2.70  -176.484042    3      2      
iter:   7  17:10:33         -2.91  -176.483196    3      2      
iter:   8  17:10:34         -3.08  -176.483422    2      2      
iter:   9  17:10:35         -3.40  -176.483131    2      1      
iter:  10  17:10:35         -3.51  -176.483368    2      1      
iter:  11  17:10:36         -3.72  -176.483555    2      1      
iter:  12  17:10:36         -3.80  -176.483783    2      1      
iter:  13  17:10:37         -4.02  -176.483696    2      1      

Converged after 13 iterations.

Dipole moment: (-0.254898, -0.410827, 0.014662) |e|*Ang

Energy contributions relative to reference atoms: (reference = -24663.074771)

Kinetic:       +104.506592
Potential:     -111.094022
External:        +0.000000
XC:            -172.666206
Entropy (-ST):   -0.323959
Local:           +2.931919
--------------------------
Free energy:   -176.645676
Extrapolated:  -176.483696

Fermi level: -4.54428

 Band  Eigenvalues  Occupancy
    0    -23.11880    2.00000
    1    -22.81946    2.00000
    2    -22.02231    2.00000
    3    -21.69583    2.00000
    4    -20.96566    2.00000
    5    -20.35162    2.00000
    6    -19.70591    2.00000
    7    -19.36226    2.00000
    8    -18.45785    2.00000
    9    -18.33526    2.00000
   10    -17.47261    2.00000
   11    -17.05300    2.00000
   12    -16.76432    2.00000
   13    -15.38725    2.00000
   14    -15.00094    2.00000
   15    -14.38182    2.00000
   16    -14.11697    2.00000
   17    -13.52475    2.00000
   18    -13.08308    2.00000
   19    -12.67146    2.00000
   20    -12.45231    2.00000
   21    -12.18054    2.00000
   22    -11.41084    2.00000
   23    -11.01572    2.00000
   24    -10.73513    2.00000
   25    -10.68014    2.00000
   26    -10.17428    2.00000
   27     -9.96987    2.00000
   28     -9.66480    2.00000
   29     -9.59506    2.00000
   30     -9.20910    2.00000
   31     -9.03624    2.00000
   32     -8.78481    2.00000
   33     -8.72207    2.00000
   34     -8.62562    2.00000
   35     -8.31209    2.00000
   36     -7.83692    2.00000
   37     -7.33599    2.00000
   38     -7.03014    2.00000
   39     -6.96242    2.00000
   40     -6.65305    2.00000
   41     -6.36041    2.00000
   42     -5.96315    2.00000
   43     -5.72237    1.99998
   44     -5.66300    1.99997
   45     -4.93531    1.96072
   46     -4.85716    1.91614
   47     -4.60547    1.29677
   48     -4.50792    0.82021
   49     -3.93147    0.00435
   50     -3.80655    0.00125
   51     -3.73399    0.00061
   52     -2.98530    0.00000
   53     -2.39706    0.00000
   54     -1.98692    0.00000
   55     -1.73551    0.00000
   56     -1.60196    0.00000
   57     -0.64931    0.00000
   58     -0.48613    0.00000
   59     -0.20416    0.00000
   60      0.57657    0.00000
   61      0.97108    0.00000
   62      1.30350    0.00000
   63      1.90156    0.00000
   64      2.23415    0.00000
   65      2.26846    0.00000
   66      2.70580    0.00000
   67      2.90947    0.00000
   68      3.80358    0.00000
   69      3.88410    0.00000
   70      4.36359    0.00000
   71      4.88951    0.00000
   72      5.29923    0.00000
   73      5.50630    0.00000
   74      5.88098    0.00000
   75      6.16042    0.00000
   76      6.76842    0.00000
   77      7.03199    0.00000
   78      7.25301    0.00000
   79      7.42850    0.00000
   80      7.96707    0.00000
   81      8.39201    0.00000
   82      8.63001    0.00000
   83      8.75699    0.00000
   84      8.85520    0.00000
   85      8.96146    0.00000
   86      9.07459    0.00000
   87      9.13062    0.00000
   88      9.25230    0.00000
   89      9.39579    0.00000
   90      9.55133    0.00000
   91      9.60951    0.00000
   92      9.66718    0.00000
   93      9.89912    0.00000
   94     10.00649    0.00000
   95     10.22943    0.00000
   96     10.35311    0.00000
   97     10.39608    0.00000


Forces in eV/Ang:
  0 C    -0.01469    0.08529    0.05891
  1 C     0.10164    0.13551    0.03690
  2 C     0.15103    0.03800   -0.05877
  3 C    -0.08807   -0.45455    0.01525
  4 C    -1.60621   -0.88364    0.03950
  5 C     1.36589   -0.25467    0.16377
  6 C    -0.53503    0.27618    0.27327
  7 C     0.91571    0.25187   -0.07610
  8 C    -2.61798   -0.77833   -2.87156
  9 C     3.17334   -3.04592   -0.59632
 10 C     1.97074   -0.58012    0.26847
 11 C    -0.41617   -0.52865    0.50062
 12 C    -0.24907   -2.69429   -0.04956
 13 C    -2.30487    4.19665    0.59834
 14 C     0.06089    0.31626   -0.02006
 15 C     0.55922   -0.02551    0.16806
 16 C     0.27151    0.79062   -0.06282
 17 C     0.53948   -0.60364   -0.24418
 18 C     1.30099    0.01144    0.54471
 19 C     1.52897    1.12965    0.33570
 20 C     0.82234   -0.05247    0.13212
 21 C    -1.18261    0.16258   -0.26014
 22 C    -3.86435    2.78625    1.21999
 23 C     0.09390   -0.32236   -0.09761

System changes: positions 

Initializing position-dependent things.

Density initialized from wave functions
           .--------------------------------------.  
          /|                                      |  
         / |                                      |  
        /  |                                      |  
       /   |                                      |  
      /    |                                      |  
     /     |                                      |  
    /      |                                      |  
   /       |      C  C                            |  
  /        |     C    C   C                       |  
 *         |               C   C  C               |  
 |         |    CC  CC   C       C                |  
 |         .---C---------C--C--C-C----------------.  
 |        /     C  C  CC  C                      /   
 |       /                                      /    
 |      /                                      /     
 |     /                                      /      
 |    /                                      /       
 |   /                                      /        
 |  /                                      /         
 | /                                      /          
 |/                                      /           
 *--------------------------------------*            

Positions:
   0 C     10.744805    6.006583    5.045343
   1 C     11.272680    7.139391    4.958163
   2 C     11.118085    8.506405    4.932431
   3 C     10.976054    9.943729    4.855183
   4 C      9.243489    3.910237    5.175687
   5 C      9.538470    5.323584    5.192341
   6 C      9.859031    9.088008    5.158842
   7 C      7.646259    9.817237    5.800589
   8 C      6.307087    9.768781    5.865570
   9 C      7.871164    7.379133    5.433366
  10 C      8.274621    6.006769    5.329939
  11 C      8.486125    8.734200    5.482264
  12 C      5.181186   11.258483    5.593100
  13 C      6.515724    7.072202    5.142295
  14 C      3.616652    9.319367    4.607928
  15 C      4.609503    5.717042    4.546259
  16 C      7.185027    4.945910    5.174609
  17 C      7.962482    3.749870    5.188758
  18 C      3.939683   11.834246    5.438347
  19 C      5.971725    5.660851    4.946616
  20 C      3.684362   10.544104    4.964328
  21 C      4.427978    8.198564    4.644664
  22 C      5.845148    8.276572    5.064005
  23 C      4.061691    6.855779    4.411263

Unit cell:
           periodic     x           y           z      points  spacing
  1. axis:    yes   16.000000    0.000000    0.000000    80     0.2000
  2. axis:    yes    0.000000   16.000000    0.000000    80     0.2000
  3. axis:    yes    0.000000    0.000000   10.000000    48     0.2083

Effective grid spacing dv^(1/3) = 0.2027

                     log10-error:    total        iterations:
           time      wfs    density  energy       fermi  poisson
iter:   1  17:10:39          +inf  -177.338467    3      5      
iter:   2  17:10:39         -2.05  -177.304175    3      2      
iter:   3  17:10:40         -2.20  -177.275651    3      2      
iter:   4  17:10:40         -2.47  -177.274577    2      2      
iter:   5  17:10:41         -2.62  -177.273731    2      2      
iter:   6  17:10:41         -2.72  -177.273980    2      2      
iter:   7  17:10:42         -2.86  -177.273199    2      2      
iter:   8  17:10:43         -3.03  -177.272604    3      2      
iter:   9  17:10:43         -3.38  -177.272378    2      1      
iter:  10  17:10:44         -3.48  -177.272996    2      1      
iter:  11  17:10:44         -3.65  -177.273243    2      1      
iter:  12  17:10:45         -3.78  -177.273231    2      1      
iter:  13  17:10:45         -3.98  -177.273258    2      1      
iter:  14  17:10:46         -4.05  -177.273287    2      1      

Converged after 14 iterations.

Dipole moment: (-0.272527, -0.392637, 0.012766) |e|*Ang

Energy contributions relative to reference atoms: (reference = -24663.074771)

Kinetic:       +103.142747
Potential:     -110.355228
External:        +0.000000
XC:            -172.837442
Entropy (-ST):   -0.321183
Local:           +2.937228
--------------------------
Free energy:   -177.433879
Extrapolated:  -177.273287

Fermi level: -4.52673

 Band  Eigenvalues  Occupancy
    0    -23.03602    2.00000
    1    -22.79370    2.00000
    2    -22.11405    2.00000
    3    -21.71438    2.00000
    4    -20.90403    2.00000
    5    -20.33664    2.00000
    6    -19.70625    2.00000
    7    -19.32421    2.00000
    8    -18.44701    2.00000
    9    -18.33425    2.00000
   10    -17.46814    2.00000
   11    -17.04122    2.00000
   12    -16.73563    2.00000
   13    -15.37502    2.00000
   14    -14.99929    2.00000
   15    -14.44406    2.00000
   16    -14.06088    2.00000
   17    -13.53471    2.00000
   18    -13.06377    2.00000
   19    -12.67740    2.00000
   20    -12.45351    2.00000
   21    -12.19340    2.00000
   22    -11.33330    2.00000
   23    -11.00232    2.00000
   24    -10.75496    2.00000
   25    -10.67972    2.00000
   26    -10.16553    2.00000
   27     -9.98589    2.00000
   28     -9.71234    2.00000
   29     -9.63231    2.00000
   30     -9.25212    2.00000
   31     -9.05117    2.00000
   32     -8.85917    2.00000
   33     -8.78774    2.00000
   34     -8.63878    2.00000
   35     -8.39486    2.00000
   36     -7.84469    2.00000
   37     -7.29929    2.00000
   38     -7.02107    2.00000
   39     -6.96880    2.00000
   40     -6.64709    2.00000
   41     -6.39047    2.00000
   42     -5.96687    2.00000
   43     -5.76242    1.99999
   44     -5.66002    1.99998
   45     -4.92923    1.96490
   46     -4.84537    1.92064
   47     -4.58575    1.28683
   48     -4.49074    0.82196
   49     -3.90677    0.00405
   50     -3.77777    0.00112
   51     -3.70371    0.00053
   52     -3.00635    0.00000
   53     -2.37690    0.00000
   54     -1.93824    0.00000
   55     -1.68879    0.00000
   56     -1.56782    0.00000
   57     -0.60715    0.00000
   58     -0.44242    0.00000
   59     -0.19043    0.00000
   60      0.61578    0.00000
   61      1.05561    0.00000
   62      1.35696    0.00000
   63      2.08490    0.00000
   64      2.24148    0.00000
   65      2.31172    0.00000
   66      2.76876    0.00000
   67      3.01455    0.00000
   68      3.84809    0.00000
   69      3.93831    0.00000
   70      4.40402    0.00000
   71      4.95997    0.00000
   72      5.27701    0.00000
   73      5.53968    0.00000
   74      5.90169    0.00000
   75      6.21565    0.00000
   76      6.76923    0.00000
   77      6.97067    0.00000
   78      7.24741    0.00000
   79      7.42100    0.00000
   80      8.03123    0.00000
   81      8.40711    0.00000
   82      8.63473    0.00000
   83      8.80056    0.00000
   84      8.84346    0.00000
   85      8.95278    0.00000
   86      9.05834    0.00000
   87      9.12299    0.00000
   88      9.26427    0.00000
   89      9.38944    0.00000
   90      9.60421    0.00000
   91      9.64999    0.00000
   92      9.69355    0.00000
   93      9.92121    0.00000
   94     10.02529    0.00000
   95     10.23708    0.00000
   96     10.36257    0.00000
   97     10.39627    0.00000


Forces in eV/Ang:
  0 C    -0.01278   -0.14715    0.07276
  1 C     0.19233    0.38539    0.01821
  2 C     0.02951   -0.04283   -0.02337
  3 C    -0.08905   -0.32084   -0.00247
  4 C    -1.13328   -0.77312   -0.00070
  5 C     1.22955   -0.43241    0.18040
  6 C    -0.42994    0.21894    0.26107
  7 C     0.43788    0.10729   -0.06002
  8 C    -2.22226   -0.63353   -2.91465
  9 C     2.18494   -2.10907   -0.58434
 10 C     1.59212   -0.65500    0.17212
 11 C    -0.37821   -0.52787    0.44810
 12 C    -0.16325   -2.98492   -0.04095
 13 C    -1.47284    3.44177    0.64281
 14 C    -0.12026    0.27545   -0.09679
 15 C     0.67615    0.02964    0.19386
 16 C     0.38623    0.78133   -0.06325
 17 C     0.15392   -0.51308   -0.22769
 18 C     1.35267    0.04904    0.54576
 19 C     1.31413    1.33659    0.32753
 20 C     0.79691    0.09539    0.16058
 21 C    -1.24443    0.06422   -0.22513
 22 C    -3.07033    2.61230    1.35250
 23 C     0.00776   -0.26523   -0.11432

System changes: positions 

Initializing position-dependent things.

Density initialized from wave functions
           .--------------------------------------.  
          /|                                      |  
         / |                                      |  
        /  |                                      |  
       /   |                                      |  
      /    |                                      |  
     /     |                                      |  
    /      |                                      |  
   /       |      C  C                            |  
  /        |     C    C   C                       |  
 *         |               C   C  C               |  
 |         |    CC  CC   C       C                |  
 |         .---C---------C--C--C-C----------------.  
 |        /     C  C  CC  C                      /   
 |       /                                      /    
 |      /                                      /     
 |     /                                      /      
 |    /                                      /       
 |   /                                      /        
 |  /                                      /         
 | /                                      /          
 |/                                      /           
 *--------------------------------------*            

Positions:
   0 C     10.746006    6.005283    5.045995
   1 C     11.274569    7.143230    4.958363
   2 C     11.117462    8.505879    4.932450
   3 C     10.974988    9.941010    4.855110
   4 C      9.236254    3.903520    5.175356
   5 C      9.549793    5.316875    5.194528
   6 C      9.855595    9.090178    5.161272
   7 C      7.645048    9.817436    5.800380
   8 C      6.289076    9.762767    5.834382
   9 C      7.884382    7.364289    5.426878
  10 C      8.287848    5.998462    5.330934
  11 C      8.482650    8.727810    5.486540
  12 C      5.180539   11.225508    5.592816
  13 C      6.508705    7.102239    5.149909
  14 C      3.613880    9.322654    4.606469
  15 C      4.617368    5.717950    4.548474
  16 C      7.190790    4.954123    5.174037
  17 C      7.960066    3.745446    5.186571
  18 C      3.953449   11.835167    5.443956
  19 C      5.983162    5.677131    4.949620
  20 C      3.692408   10.545795    4.966061
  21 C      4.414291    8.198218    4.642436
  22 C      5.819805    8.303307    5.079593
  23 C      4.061213    6.852780    4.409936

Unit cell:
           periodic     x           y           z      points  spacing
  1. axis:    yes   16.000000    0.000000    0.000000    80     0.2000
  2. axis:    yes    0.000000   16.000000    0.000000    80     0.2000
  3. axis:    yes    0.000000    0.000000   10.000000    48     0.2083

Effective grid spacing dv^(1/3) = 0.2027

                     log10-error:    total        iterations:
           time      wfs    density  energy       fermi  poisson
iter:   1  17:10:48          +inf  -178.067587    3      5      
iter:   2  17:10:48         -2.03  -178.026815    3      2      
iter:   3  17:10:49         -2.19  -178.000096    3      2      
iter:   4  17:10:49         -2.39  -177.991766    3      2      
iter:   5  17:10:50         -2.57  -177.991367    3      2      
iter:   6  17:10:51         -2.70  -177.991073    3      2      
iter:   7  17:10:51         -2.88  -177.990534    2      2      
iter:   8  17:10:52         -3.01  -177.990009    3      2      
iter:   9  17:10:52         -3.41  -177.990157    2      1      
iter:  10  17:10:53         -3.50  -177.990185    2      1      
iter:  11  17:10:53         -3.71  -177.990266    2      1      
iter:  12  17:10:54         -3.83  -177.990273    2      1      
iter:  13  17:10:55         -3.93  -177.990339    2      1      
iter:  14  17:10:55         -4.06  -177.990308    2      1      

Converged after 14 iterations.

Dipole moment: (-0.302817, -0.360066, 0.010598) |e|*Ang

Energy contributions relative to reference atoms: (reference = -24663.074771)

Kinetic:       +101.261467
Potential:     -109.130900
External:        +0.000000
XC:            -172.895764
Entropy (-ST):   -0.321391
Local:           +2.935584
--------------------------
Free energy:   -178.151004
Extrapolated:  -177.990308

Fermi level: -4.51183

 Band  Eigenvalues  Occupancy
    0    -22.97656    2.00000
    1    -22.75759    2.00000
    2    -22.23566    2.00000
    3    -21.72794    2.00000
    4    -20.85492    2.00000
    5    -20.32953    2.00000
    6    -19.69117    2.00000
    7    -19.28898    2.00000
    8    -18.46003    2.00000
    9    -18.31337    2.00000
   10    -17.47387    2.00000
   11    -17.03032    2.00000
   12    -16.70635    2.00000
   13    -15.35860    2.00000
   14    -14.99419    2.00000
   15    -14.53173    2.00000
   16    -14.00973    2.00000
   17    -13.55366    2.00000
   18    -13.04463    2.00000
   19    -12.69999    2.00000
   20    -12.45537    2.00000
   21    -12.20696    2.00000
   22    -11.26010    2.00000
   23    -10.99285    2.00000
   24    -10.81674    2.00000
   25    -10.64995    2.00000
   26    -10.16169    2.00000
   27    -10.01633    2.00000
   28     -9.77330    2.00000
   29     -9.66441    2.00000
   30     -9.28935    2.00000
   31     -9.08022    2.00000
   32     -8.93343    2.00000
   33     -8.87261    2.00000
   34     -8.64445    2.00000
   35     -8.42534    2.00000
   36     -7.84883    2.00000
   37     -7.26090    2.00000
   38     -7.00858    2.00000
   39     -6.95100    2.00000
   40     -6.63759    2.00000
   41     -6.41835    2.00000
   42     -5.95117    2.00000
   43     -5.81578    2.00000
   44     -5.64344    1.99998
   45     -4.91878    1.96640
   46     -4.83082    1.92090
   47     -4.56816    1.27441
   48     -4.47809    0.83285
   49     -3.89331    0.00411
   50     -3.74277    0.00091
   51     -3.67026    0.00044
   52     -3.03292    0.00000
   53     -2.36572    0.00000
   54     -1.90231    0.00000
   55     -1.65416    0.00000
   56     -1.56489    0.00000
   57     -0.56352    0.00000
   58     -0.39774    0.00000
   59     -0.16560    0.00000
   60      0.64818    0.00000
   61      1.11604    0.00000
   62      1.41835    0.00000
   63      2.14341    0.00000
   64      2.30183    0.00000
   65      2.41196    0.00000
   66      2.83162    0.00000
   67      3.15532    0.00000
   68      3.87476    0.00000
   69      4.00686    0.00000
   70      4.43844    0.00000
   71      5.00685    0.00000
   72      5.27605    0.00000
   73      5.56497    0.00000
   74      5.90096    0.00000
   75      6.25798    0.00000
   76      6.75041    0.00000
   77      6.93687    0.00000
   78      7.24414    0.00000
   79      7.39619    0.00000
   80      8.08886    0.00000
   81      8.42110    0.00000
   82      8.62298    0.00000
   83      8.78567    0.00000
   84      8.85425    0.00000
   85      8.96230    0.00000
   86      9.05392    0.00000
   87      9.11660    0.00000
   88      9.26739    0.00000
   89      9.38535    0.00000
   90      9.61822    0.00000
   91      9.68898    0.00000
   92      9.72399    0.00000
   93      9.93175    0.00000
   94     10.04305    0.00000
   95     10.24801    0.00000
   96     10.37221    0.00000
   97     10.39743    0.00000


Forces in eV/Ang:
  0 C     0.29940    0.15131    0.03288
  1 C     0.05060   -0.00407    0.05542
  2 C    -0.04344    0.01411   -0.00478
  3 C    -0.14544   -0.26628   -0.00345
  4 C    -0.80452   -0.70230   -0.02587
  5 C     1.00124   -0.58396    0.18994
  6 C    -0.32317    0.23071    0.25674
  7 C     0.04028   -0.00410   -0.07651
  8 C    -1.85510   -0.40298   -2.86680
  9 C     1.41241   -1.34789   -0.53030
 10 C     1.25657   -0.63589    0.07585
 11 C    -0.35236   -0.47855    0.39957
 12 C    -0.07845   -3.27460   -0.03555
 13 C    -0.86536    2.81682    0.65083
 14 C    -0.29216    0.39020   -0.12491
 15 C     0.73529    0.16461    0.21390
 16 C     0.49766    0.74462   -0.06529
 17 C    -0.11666   -0.41427   -0.21528
 18 C     1.38269    0.10367    0.56967
 19 C     1.08171    1.40446    0.29709
 20 C     0.77287    0.05827    0.13313
 21 C    -1.23768   -0.02676   -0.16576
 22 C    -2.34717    2.32585    1.38775
 23 C    -0.03167   -0.28503   -0.11547

System changes: positions 

Initializing position-dependent things.

Density initialized from wave functions
           .--------------------------------------.  
          /|                                      |  
         / |                                      |  
        /  |                                      |  
       /   |                                      |  
      /    |                                      |  
     /     |                                      |  
    /      |                                      |  
   /       |      C  C                            |  
  /        |     C    C   C                       |  
 *         |               C   C  C               |  
 |         |    CC  CC   C       C                |  
 |         .---C---C-----C--C--C-C----------------.  
 |        /     C     CC  C                      /   
 |       /                                      /    
 |      /                                      /     
 |     /                                      /      
 |    /                                      /       
 |   /                                      /        
 |  /                                      /         
 | /                                      /          
 |/                                      /           
 *--------------------------------------*            

Positions:
   0 C     10.750463    6.007458    5.046298
   1 C     11.274967    7.142671    4.959069
   2 C     11.116461    8.506061    4.932529
   3 C     10.973135    9.938234    4.855039
   4 C      9.228976    3.895796    5.174884
   5 C      9.560737    5.308919    5.196891
   6 C      9.852311    9.092845    5.164211
   7 C      7.642935    9.816772    5.799569
   8 C      6.269443    9.758638    5.800244
   9 C      7.896267    7.352591    5.420613
  10 C      8.300851    5.990427    5.331354
  11 C      8.478676    8.721967    5.491033
  12 C      5.180116   11.185512    5.592456
  13 C      6.502491    7.132189    5.157902
  14 C      3.609531    9.327564    4.604747
  15 C      4.626504    5.720338    4.551115
  16 C      7.197434    4.962907    5.173282
  17 C      7.956790    3.741042    5.184114
  18 C      3.969801   11.836640    5.450711
  19 C      5.994762    5.694740    4.952964
  20 C      3.701414   10.546741    4.967628
  21 C      4.399379    8.197362    4.640632
  22 C      5.795911    8.330056    5.096655
  23 C      4.060534    6.849353    4.408512

Unit cell:
           periodic     x           y           z      points  spacing
  1. axis:    yes   16.000000    0.000000    0.000000    80     0.2000
  2. axis:    yes    0.000000   16.000000    0.000000    80     0.2000
  3. axis:    yes    0.000000    0.000000   10.000000    48     0.2083

Effective grid spacing dv^(1/3) = 0.2027

                     log10-error:    total        iterations:
           time      wfs    density  energy       fermi  poisson
iter:   1  17:10:57          +inf  -178.751813    2      5      
iter:   2  17:10:57         -2.04  -178.709715    3      2      
iter:   3  17:10:58         -2.19  -178.683635    3      2      
iter:   4  17:10:59         -2.36  -178.670029    3      2      
iter:   5  17:10:59         -2.57  -178.669754    3      2      
iter:   6  17:11:00         -2.72  -178.669118    2      2      
iter:   7  17:11:00         -2.87  -178.668684    2      2      
iter:   8  17:11:01         -3.01  -178.668270    3      2      
iter:   9  17:11:02         -3.38  -178.668404    2      1      
iter:  10  17:11:02         -3.44  -178.668431    2      1      
iter:  11  17:11:03         -3.72  -178.668575    2      1      
iter:  12  17:11:03         -3.83  -178.668673    2      1      
iter:  13  17:11:04         -3.94  -178.668582    2      1      
iter:  14  17:11:04         -4.09  -178.668542    2      1      

Converged after 14 iterations.

Dipole moment: (-0.336620, -0.331102, 0.006474) |e|*Ang

Energy contributions relative to reference atoms: (reference = -24663.074771)

Kinetic:        +99.921354
Potential:     -108.297108
External:        +0.000000
XC:            -173.074866
Entropy (-ST):   -0.320918
Local:           +2.942537
--------------------------
Free energy:   -178.829001
Extrapolated:  -178.668542

Fermi level: -4.49253

 Band  Eigenvalues  Occupancy
    0    -22.93545    2.00000
    1    -22.72420    2.00000
    2    -22.36159    2.00000
    3    -21.73326    2.00000
    4    -20.81284    2.00000
    5    -20.32323    2.00000
    6    -19.69217    2.00000
    7    -19.25924    2.00000
    8    -18.49749    2.00000
    9    -18.27898    2.00000
   10    -17.47227    2.00000
   11    -17.02521    2.00000
   12    -16.66670    2.00000
   13    -15.34795    2.00000
   14    -14.98881    2.00000
   15    -14.63745    2.00000
   16    -13.96659    2.00000
   17    -13.57954    2.00000
   18    -13.01776    2.00000
   19    -12.73625    2.00000
   20    -12.45301    2.00000
   21    -12.21632    2.00000
   22    -11.19340    2.00000
   23    -10.99717    2.00000
   24    -10.85806    2.00000
   25    -10.62236    2.00000
   26    -10.15864    2.00000
   27    -10.05233    2.00000
   28     -9.83759    2.00000
   29     -9.68278    2.00000
   30     -9.32019    2.00000
   31     -9.12793    2.00000
   32     -8.99534    2.00000
   33     -8.94958    2.00000
   34     -8.65017    2.00000
   35     -8.43169    2.00000
   36     -7.85064    2.00000
   37     -7.23568    2.00000
   38     -7.00045    2.00000
   39     -6.95262    2.00000
   40     -6.63128    2.00000
   41     -6.44419    2.00000
   42     -5.93328    2.00000
   43     -5.88493    2.00000
   44     -5.62610    1.99998
   45     -4.91074    1.96993
   46     -4.81044    1.92008
   47     -4.54700    1.26582
   48     -4.45995    0.83855
   49     -3.88420    0.00455
   50     -3.69679    0.00070
   51     -3.63877    0.00039
   52     -3.05105    0.00000
   53     -2.35187    0.00000
   54     -1.86819    0.00000
   55     -1.61414    0.00000
   56     -1.51964    0.00000
   57     -0.49527    0.00000
   58     -0.33252    0.00000
   59     -0.12543    0.00000
   60      0.67155    0.00000
   61      1.15758    0.00000
   62      1.51043    0.00000
   63      2.12875    0.00000
   64      2.35285    0.00000
   65      2.57114    0.00000
   66      2.88194    0.00000
   67      3.31867    0.00000
   68      3.90081    0.00000
   69      4.09671    0.00000
   70      4.48506    0.00000
   71      5.00974    0.00000
   72      5.32141    0.00000
   73      5.61376    0.00000
   74      5.88016    0.00000
   75      6.27253    0.00000
   76      6.69731    0.00000
   77      6.89363    0.00000
   78      7.24016    0.00000
   79      7.37648    0.00000
   80      8.13647    0.00000
   81      8.42539    0.00000
   82      8.58543    0.00000
   83      8.71838    0.00000
   84      8.88396    0.00000
   85      8.97804    0.00000
   86      9.06259    0.00000
   87      9.11504    0.00000
   88      9.25187    0.00000
   89      9.39044    0.00000
   90      9.61845    0.00000
   91      9.71195    0.00000
   92      9.74843    0.00000
   93      9.94318    0.00000
   94     10.06333    0.00000
   95     10.26061    0.00000
   96     10.37372    0.00000
   97     10.40198    0.00000


Forces in eV/Ang:
  0 C     0.16935   -0.22866    0.06113
  1 C     0.18639    0.35557    0.02933
  2 C    -0.15321   -0.06953    0.02652
  3 C    -0.14488   -0.16076   -0.01831
  4 C    -0.50366   -0.57751   -0.04678
  5 C     0.86416   -0.66222    0.20479
  6 C    -0.22855    0.17275    0.27087
  7 C    -0.33901   -0.06826   -0.11020
  8 C    -1.51266   -0.06131   -2.68612
  9 C     0.73404   -0.70887   -0.49405
 10 C     0.96001   -0.55808    0.00860
 11 C    -0.30447   -0.39075    0.33210
 12 C    -0.03748   -3.52358   -0.06204
 13 C    -0.33303    2.20691    0.66121
 14 C    -0.40083    0.27814   -0.18842
 15 C     0.80107    0.22456    0.23522
 16 C     0.51935    0.71376   -0.05472
 17 C    -0.34588   -0.33242   -0.21085
 18 C     1.49814    0.07866    0.56867
 19 C     0.93278    1.43669    0.29182
 20 C     0.73796    0.23015    0.16760
 21 C    -1.20977   -0.07486   -0.09641
 22 C    -1.76629    1.91697    1.30952
 23 C    -0.09115   -0.20298   -0.10980

System changes: positions 

Initializing position-dependent things.

Density initialized from wave functions
           .--------------------------------------.  
          /|                                      |  
         / |                                      |  
        /  |                                      |  
       /   |                                      |  
      /    |                                      |  
     /     |                                      |  
    /      |                                      |  
   /       |      C  C                            |  
  /        |     C    C   C                       |  
 *         |               C   C  C               |  
 |         |    CC  CC   C       C                |  
 |         .---C---C-----C--C--C-C----------------.  
 |        /     C     CC  C                      /   
 |       /                                      /    
 |      /                                      /     
 |     /                                      /      
 |    /                                      /       
 |   /                                      /        
 |  /                                      /         
 | /                                      /          
 |/                                      /           
 *--------------------------------------*            

Positions:
   0 C     10.752551    6.005210    5.046962
   1 C     11.276917    7.146235    4.959444
   2 C     11.114763    8.505374    4.932815
   3 C     10.971435    9.936358    4.854842
   4 C      9.222873    3.889085    5.174374
   5 C      9.570570    5.301546    5.199171
   6 C      9.849704    9.094841    5.167306
   7 C      7.639349    9.816013    5.798268
   8 C      6.252061    9.758051    5.769881
   9 C      7.905050    7.344479    5.415147
  10 C      8.311785    5.984319    5.331453
  11 C      8.475221    8.717678    5.494789
  12 C      5.179636   11.145521    5.591748
  13 C      6.498159    7.157399    5.165267
  14 C      3.604993    9.330791    4.602635
  15 C      4.635523    5.722960    4.553768
  16 C      7.203158    4.970965    5.172641
  17 C      7.953277    3.737250    5.181717
  18 C      3.986850   11.837558    5.457188
  19 C      6.005411    5.710797    4.956309
  20 C      3.709778   10.549211    4.969487
  21 C      4.385732    8.196545    4.639574
  22 C      5.775900    8.351500    5.111397
  23 C      4.059540    6.847042    4.407282

Unit cell:
           periodic     x           y           z      points  spacing
  1. axis:    yes   16.000000    0.000000    0.000000    80     0.2000
  2. axis:    yes    0.000000   16.000000    0.000000    80     0.2000
  3. axis:    yes    0.000000    0.000000   10.000000    48     0.2083

Effective grid spacing dv^(1/3) = 0.2027

                     log10-error:    total        iterations:
           time      wfs    density  energy       fermi  poisson
iter:   1  17:11:06          +inf  -179.296552    2      5      
iter:   2  17:11:07         -2.04  -179.253762    2      2      
iter:   3  17:11:07         -2.24  -179.237267    3      2      
iter:   4  17:11:08         -2.35  -179.218527    3      2      
iter:   5  17:11:08         -2.61  -179.218756    3      2      
iter:   6  17:11:09         -2.75  -179.218149    2      2      
iter:   7  17:11:10         -2.90  -179.216815    2      1      
iter:   8  17:11:10         -3.00  -179.217521    2      2      
iter:   9  17:11:11         -3.26  -179.216639    2      1      
iter:  10  17:11:11         -3.46  -179.217180    2      1      
iter:  11  17:11:12         -3.59  -179.218069    2      1      
iter:  12  17:11:12         -3.73  -179.217201    2      1      
iter:  13  17:11:13         -3.93  -179.217421    2      1      
iter:  14  17:11:13         -4.01  -179.217640    2      1      

Converged after 14 iterations.

Dipole moment: (-0.371236, -0.299116, 0.002707) |e|*Ang

Energy contributions relative to reference atoms: (reference = -24663.074771)

Kinetic:        +98.595069
Potential:     -107.416500
External:        +0.000000
XC:            -173.180009
Entropy (-ST):   -0.322215
Local:           +2.944907
--------------------------
Free energy:   -179.378747
Extrapolated:  -179.217640

Fermi level: -4.47983

 Band  Eigenvalues  Occupancy
    0    -22.91268    2.00000
    1    -22.71448    2.00000
    2    -22.47271    2.00000
    3    -21.73860    2.00000
    4    -20.78496    2.00000
    5    -20.32427    2.00000
    6    -19.67610    2.00000
    7    -19.23816    2.00000
    8    -18.53930    2.00000
    9    -18.24707    2.00000
   10    -17.48672    2.00000
   11    -17.02386    2.00000
   12    -16.64203    2.00000
   13    -15.33355    2.00000
   14    -14.98599    2.00000
   15    -14.74502    2.00000
   16    -13.94118    2.00000
   17    -13.60964    2.00000
   18    -12.99749    2.00000
   19    -12.77337    2.00000
   20    -12.45235    2.00000
   21    -12.23231    2.00000
   22    -11.15117    2.00000
   23    -11.02346    2.00000
   24    -10.86343    2.00000
   25    -10.60513    2.00000
   26    -10.16923    2.00000
   27    -10.07817    2.00000
   28     -9.89353    2.00000
   29     -9.69295    2.00000
   30     -9.34614    2.00000
   31     -9.19330    2.00000
   32     -9.04975    2.00000
   33     -8.99568    2.00000
   34     -8.65084    2.00000
   35     -8.43071    2.00000
   36     -7.85034    2.00000
   37     -7.21224    2.00000
   38     -6.99752    2.00000
   39     -6.93079    2.00000
   40     -6.62026    2.00000
   41     -6.46299    2.00000
   42     -5.94944    2.00000
   43     -5.91045    2.00000
   44     -5.60144    1.99997
   45     -4.90403    1.97165
   46     -4.79386    1.91705
   47     -4.53238    1.25687
   48     -4.44925    0.84828
   49     -3.88693    0.00531
   50     -3.65860    0.00054
   51     -3.60862    0.00033
   52     -3.06235    0.00000
   53     -2.35083    0.00000
   54     -1.85007    0.00000
   55     -1.59200    0.00000
   56     -1.52351    0.00000
   57     -0.43165    0.00000
   58     -0.22760    0.00000
   59     -0.07452    0.00000
   60      0.68679    0.00000
   61      1.17097    0.00000
   62      1.60150    0.00000
   63      2.09808    0.00000
   64      2.38924    0.00000
   65      2.68174    0.00000
   66      2.93132    0.00000
   67      3.44228    0.00000
   68      3.90995    0.00000
   69      4.16264    0.00000
   70      4.53596    0.00000
   71      5.00360    0.00000
   72      5.39305    0.00000
   73      5.69258    0.00000
   74      5.85238    0.00000
   75      6.25509    0.00000
   76      6.65915    0.00000
   77      6.84937    0.00000
   78      7.24962    0.00000
   79      7.38339    0.00000
   80      8.17332    0.00000
   81      8.43567    0.00000
   82      8.54599    0.00000
   83      8.65730    0.00000
   84      8.90382    0.00000
   85      8.99537    0.00000
   86      9.08602    0.00000
   87      9.11536    0.00000
   88      9.23780    0.00000
   89      9.39995    0.00000
   90      9.61304    0.00000
   91      9.72853    0.00000
   92      9.76564    0.00000
   93      9.93673    0.00000
   94     10.07764    0.00000
   95     10.26813    0.00000
   96     10.36962    0.00000
   97     10.40568    0.00000


Forces in eV/Ang:
  0 C     0.42566    0.07006    0.02452
  1 C     0.03701   -0.05718    0.06345
  2 C    -0.18771   -0.01892    0.03425
  3 C    -0.18691   -0.11744   -0.01938
  4 C    -0.30916   -0.51898   -0.06132
  5 C     0.70031   -0.74574    0.21764
  6 C    -0.17470    0.20049    0.28080
  7 C    -0.55855   -0.12131   -0.14385
  8 C    -1.29675    0.29517   -2.45520
  9 C     0.23905   -0.23238   -0.40913
 10 C     0.71222   -0.47544   -0.02046
 11 C    -0.28501   -0.28661    0.26524
 12 C    -0.00705   -3.62121   -0.08084
 13 C     0.03948    1.71261    0.64842
 14 C    -0.48791    0.36057   -0.19068
 15 C     0.84306    0.32633    0.23940
 16 C     0.54409    0.66663   -0.04421
 17 C    -0.50454   -0.25024   -0.20478
 18 C     1.59239    0.06385    0.55615
 19 C     0.76937    1.44429    0.26114
 20 C     0.69381    0.17962    0.15410
 21 C    -1.14661   -0.12137   -0.05648
 22 C    -1.34512    1.48796    1.18123
 23 C    -0.11271   -0.20887   -0.09783

System changes: positions 

Initializing position-dependent things.

Density initialized from wave functions
           .--------------------------------------.  
          /|                                      |  
         / |                                      |  
        /  |                                      |  
       /   |                                      |  
      /    |                                      |  
     /     |                                      |  
    /      |                                      |  
   /       |      C  C                            |  
  /        |     C    C   C                       |  
 *         |               C   C  C               |  
 |         |    CC  CC   C       C                |  
 |         .---C---C-----C--C--C-C----------------.  
 |        /     C     CC  C                      /   
 |       /                                      /    
 |      /                                      /     
 |     /                                      /      
 |    /                                      /       
 |   /                                      /        
 |  /                                      /         
 | /                                      /          
 |/                                      /           
 *--------------------------------------*            

Positions:
   0 C     10.756816    6.006012    5.047281
   1 C     11.277341    7.145547    4.960161
   2 C     11.113068    8.505219    4.933081
   3 C     10.969384    9.934735    4.854646
   4 C      9.217284    3.882581    5.173825
   5 C      9.579242    5.294067    5.201494
   6 C      9.847231    9.097172    5.170597
   7 C      7.635657    9.815026    5.796481
   8 C      6.235056    9.761040    5.742425
   9 C      7.912000    7.338792    5.410724
  10 C      8.321298    5.979515    5.331596
  11 C      8.471796    8.714785    5.497955
  12 C      5.179073   11.105536    5.590781
  13 C      6.494845    7.179375    5.172182
  14 C      3.600148    9.334713    4.600684
  15 C      4.644697    5.726364    4.556376
  16 C      7.208498    4.978499    5.172101
  17 C      7.949443    3.734002    5.179328
  18 C      4.004983   11.838102    5.463480
  19 C      6.015134    5.726167    4.959447
  20 C      3.717719   10.550908    4.971205
  21 C      4.373042    8.195609    4.638842
  22 C      5.757810    8.368547    5.124158
  23 C      4.058512    6.844763    4.406231

Unit cell:
           periodic     x           y           z      points  spacing
  1. axis:    yes   16.000000    0.000000    0.000000    80     0.2000
  2. axis:    yes    0.000000   16.000000    0.000000    80     0.2000
  3. axis:    yes    0.000000    0.000000   10.000000    48     0.2083

Effective grid spacing dv^(1/3) = 0.2027

                     log10-error:    total        iterations:
           time      wfs    density  energy       fermi  poisson
iter:   1  17:11:15          +inf  -179.754201    2      5      
iter:   2  17:11:16         -2.08  -179.718120    3      2      
iter:   3  17:11:16         -2.30  -179.704807    3      1      
iter:   4  17:11:17         -2.39  -179.686363    3      2      
iter:   5  17:11:18         -2.66  -179.690001    3      2      
iter:   6  17:11:18         -2.72  -179.686268    3      2      
iter:   7  17:11:19         -2.85  -179.684827    2      1      
iter:   8  17:11:19         -2.96  -179.686383    3      2      
iter:   9  17:11:20         -3.24  -179.685084    2      1      
iter:  10  17:11:20         -3.45  -179.685757    2      1      
iter:  11  17:11:21         -3.61  -179.686670    2      1      
iter:  12  17:11:21         -3.70  -179.686448    2      1      
iter:  13  17:11:22         -3.87  -179.686297    2      1      
iter:  14  17:11:23         -3.99  -179.686381    2      1      
iter:  15  17:11:23         -4.19  -179.686505    2      1      

Converged after 15 iterations.

Dipole moment: (-0.399259, -0.276657, -0.001618) |e|*Ang

Energy contributions relative to reference atoms: (reference = -24663.074771)

Kinetic:        +98.011257
Potential:     -107.093726
External:        +0.000000
XC:            -173.393763
Entropy (-ST):   -0.322067
Local:           +2.950760
--------------------------
Free energy:   -179.847539
Extrapolated:  -179.686505

Fermi level: -4.46529

 Band  Eigenvalues  Occupancy
    0    -22.90359    2.00000
    1    -22.75045    2.00000
    2    -22.52575    2.00000
    3    -21.74075    2.00000
    4    -20.76371    2.00000
    5    -20.32491    2.00000
    6    -19.67610    2.00000
    7    -19.22476    2.00000
    8    -18.58125    2.00000
    9    -18.21890    2.00000
   10    -17.49361    2.00000
   11    -17.02995    2.00000
   12    -16.61676    2.00000
   13    -15.32636    2.00000
   14    -14.98428    2.00000
   15    -14.85015    2.00000
   16    -13.93294    2.00000
   17    -13.63523    2.00000
   18    -12.97682    2.00000
   19    -12.80402    2.00000
   20    -12.45243    2.00000
   21    -12.24560    2.00000
   22    -11.12543    2.00000
   23    -11.04835    2.00000
   24    -10.84232    2.00000
   25    -10.59475    2.00000
   26    -10.17952    2.00000
   27    -10.08976    2.00000
   28     -9.93841    2.00000
   29     -9.69692    2.00000
   30     -9.37134    2.00000
   31     -9.26642    2.00000
   32     -9.08904    2.00000
   33     -9.01829    2.00000
   34     -8.65297    2.00000
   35     -8.42852    2.00000
   36     -7.84810    2.00000
   37     -7.20724    2.00000
   38     -6.99878    2.00000
   39     -6.93027    2.00000
   40     -6.61091    2.00000
   41     -6.47431    2.00000
   42     -6.01052    2.00000
   43     -5.89422    2.00000
   44     -5.58114    1.99997
   45     -4.90111    1.97472
   46     -4.77799    1.91598
   47     -4.51677    1.25184
   48     -4.43514    0.85038
   49     -3.89061    0.00637
   50     -3.62670    0.00046
   51     -3.58142    0.00029
   52     -3.06260    0.00000
   53     -2.34927    0.00000
   54     -1.83805    0.00000
   55     -1.57006    0.00000
   56     -1.49429    0.00000
   57     -0.39274    0.00000
   58     -0.03828    0.00000
   59     -0.01512    0.00000
   60      0.69638    0.00000
   61      1.17611    0.00000
   62      1.69842    0.00000
   63      2.07379    0.00000
   64      2.42291    0.00000
   65      2.76109    0.00000
   66      2.96543    0.00000
   67      3.52946    0.00000
   68      3.92358    0.00000
   69      4.19807    0.00000
   70      4.59014    0.00000
   71      5.01683    0.00000
   72      5.45735    0.00000
   73      5.78596    0.00000
   74      5.82454    0.00000
   75      6.21833    0.00000
   76      6.62049    0.00000
   77      6.79484    0.00000
   78      7.24822    0.00000
   79      7.41052    0.00000
   80      8.19002    0.00000
   81      8.44577    0.00000
   82      8.51343    0.00000
   83      8.61168    0.00000
   84      8.91306    0.00000
   85      9.00164    0.00000
   86      9.10944    0.00000
   87      9.12040    0.00000
   88      9.22395    0.00000
   89      9.41224    0.00000
   90      9.60879    0.00000
   91      9.74130    0.00000
   92      9.76976    0.00000
   93      9.93672    0.00000
   94     10.08744    0.00000
   95     10.27093    0.00000
   96     10.36307    0.00000
   97     10.40498    0.00000


Forces in eV/Ang:
  0 C     0.30208   -0.22082    0.04958
  1 C     0.12793    0.20358    0.04418
  2 C    -0.25754   -0.07497    0.05576
  3 C    -0.17940   -0.05649   -0.01990
  4 C    -0.13603   -0.43753   -0.07338
  5 C     0.61591   -0.74241    0.20490
  6 C    -0.11702    0.15093    0.27449
  7 C    -0.76370   -0.11898   -0.20485
  8 C    -1.07599    0.56302   -2.17679
  9 C    -0.10416    0.12271   -0.34565
 10 C     0.53164   -0.38782   -0.04179
 11 C    -0.25811   -0.18836    0.20284
 12 C     0.07316   -3.64563   -0.10003
 13 C     0.31962    1.25435    0.60551
 14 C    -0.54895    0.27623   -0.22834
 15 C     0.85753    0.37704    0.24040
 16 C     0.55533    0.63936   -0.03932
 17 C    -0.60738   -0.16858   -0.19573
 18 C     1.64344   -0.02827    0.52142
 19 C     0.64598    1.38381    0.23487
 20 C     0.66247    0.26370    0.18606
 21 C    -1.11440   -0.11209   -0.01581
 22 C    -0.98074    1.11757    0.98248
 23 C    -0.15061   -0.18427   -0.09370

System changes: positions 

Initializing position-dependent things.

Density initialized from wave functions
           .--------------------------------------.  
          /|                                      |  
         / |                                      |  
        /  |                                      |  
       /   |                                      |  
      /    |                                      |  
     /     |                                      |  
    /      |                                      |  
   /       |      C  C                            |  
  /        |     C    C   C                       |  
 *         |               C   C  C               |  
 |         |    CC  CC   C       C                |  
 |         .---C---C-----C--C--C-C----------------.  
 |        /     C     CC  C                      /   
 |       /                                      /    
 |      /                                      /     
 |     /                                      /      
 |    /                                      /       
 |   /                                      /        
 |  /                                      /         
 | /                                      /          
[...]
External:        +0.000000
XC:            -178.306375
Entropy (-ST):   -0.328155
Local:           +2.988049
--------------------------
Free energy:   -182.387196
Extrapolated:  -182.223118

Fermi level: -4.51192

 Band  Eigenvalues  Occupancy
    0    -23.55962    2.00000
    1    -22.84344    2.00000
    2    -22.58965    2.00000
    3    -21.73125    2.00000
    4    -20.89964    2.00000
    5    -20.48860    2.00000
    6    -19.65661    2.00000
    7    -19.38671    2.00000
    8    -19.01512    2.00000
    9    -18.05498    2.00000
   10    -17.51828    2.00000
   11    -17.30490    2.00000
   12    -16.48418    2.00000
   13    -15.62022    2.00000
   14    -15.29947    2.00000
   15    -15.19184    2.00000
   16    -14.03612    2.00000
   17    -13.63250    2.00000
   18    -13.01072    2.00000
   19    -12.79268    2.00000
   20    -12.51506    2.00000
   21    -12.20621    2.00000
   22    -11.39600    2.00000
   23    -10.91757    2.00000
   24    -10.79763    2.00000
   25    -10.75730    2.00000
   26    -10.28456    2.00000
   27    -10.18197    2.00000
   28     -9.88520    2.00000
   29     -9.77822    2.00000
   30     -9.73879    2.00000
   31     -9.55837    2.00000
   32     -9.17960    2.00000
   33     -9.11495    2.00000
   34     -8.72600    2.00000
   35     -8.57680    2.00000
   36     -7.83791    2.00000
   37     -7.36416    2.00000
   38     -7.09075    2.00000
   39     -6.79159    2.00000
   40     -6.61987    2.00000
   41     -6.58173    2.00000
   42     -6.21611    2.00000
   43     -5.91530    2.00000
   44     -5.42039    1.99977
   45     -4.96277    1.97821
   46     -4.78219    1.87438
   47     -4.57171    1.29040
   48     -4.48255    0.85423
   49     -3.84163    0.00245
   50     -3.68670    0.00052
   51     -3.41324    0.00003
   52     -2.93323    0.00000
   53     -2.27504    0.00000
   54     -1.86633    0.00000
   55     -1.66086    0.00000
   56     -1.54567    0.00000
   57     -0.16759    0.00000
   58      0.60703    0.00000
   59      0.99656    0.00000
   60      1.17229    0.00000
   61      1.49514    0.00000
   62      2.06347    0.00000
   63      3.01636    0.00000
   64      3.09539    0.00000
   65      3.21948    0.00000
   66      3.70761    0.00000
   67      3.94055    0.00000
   68      3.96644    0.00000
   69      4.60621    0.00000
   70      4.78872    0.00000
   71      5.23289    0.00000
   72      5.40030    0.00000
   73      5.71878    0.00000
   74      5.88154    0.00000
   75      6.37281    0.00000
   76      6.75235    0.00000
   77      6.93759    0.00000
   78      7.07237    0.00000
   79      8.01215    0.00000
   80      8.25928    0.00000
   81      8.57794    0.00000
   82      8.71852    0.00000
   83      8.87351    0.00000
   84      8.95343    0.00000
   85      8.98936    0.00000
   86      9.13696    0.00000
   87      9.15700    0.00000
   88      9.35582    0.00000
   89      9.37078    0.00000
   90      9.64643    0.00000
   91      9.75235    0.00000
   92      9.88989    0.00000
   93     10.17437    0.00000
   94     10.21339    0.00000
   95     10.33007    0.00000
   96     10.36090    0.00000
   97     10.51883    0.00000


Forces in eV/Ang:
  0 C    -0.01220   -0.03429    0.01421
  1 C     0.02848   -0.01226   -0.00241
  2 C    -0.02883   -0.00538   -0.03278
  3 C    -0.10550    0.04852    0.02096
  4 C     0.01948    0.06494   -0.01209
  5 C    -0.01225    0.06576   -0.04988
  6 C    -0.01170   -0.04582    0.01411
  7 C     0.03708    0.03839   -0.04334
  8 C    -0.04606   -0.04696    0.06254
  9 C     0.09142   -0.07186   -0.05597
 10 C    -0.01806    0.00550   -0.02794
 11 C     0.01193   -0.00245    0.08488
 12 C     0.01894    0.01378   -0.07029
 13 C    -0.06170   -0.03706   -0.04908
 14 C     0.03187    0.04343    0.04012
 15 C     0.13504   -0.01787    0.06990
 16 C    -0.07106   -0.05078   -0.05711
 17 C     0.02628    0.02734    0.07955
 18 C    -0.03734    0.03189   -0.01437
 19 C     0.04910   -0.05828   -0.02328
 20 C    -0.00878    0.05084   -0.00100
 21 C    -0.07864    0.02916   -0.06309
 22 C    -0.07058   -0.06370    0.00198
 23 C    -0.00161    0.05910    0.04647

System changes: positions 

Initializing position-dependent things.

Density initialized from wave functions
           .--------------------------------------.  
          /|                                      |  
         / |                                      |  
        /  |                                      |  
       /   |                                      |  
      /    |                                      |  
     /     |                                      |  
    /      |                                      |  
   /       |       C                              |  
  /        |    C   C                             |  
 *         |   C      C   CC   C CC               |  
 |         |    C   CC   C       C                |  
 |         .---C---C-----C-----C------------------.  
 |        /     C     C     C                    /   
 |       /             C  C                     /    
 |      /                                      /     
 |     /                                      /      
 |    /                                      /       
 |   /                                      /        
 |  /                                      /         
 | /                                      /          
 |/                                      /           
 *--------------------------------------*            

Positions:
   0 C     10.889465    5.886078    5.275066
   1 C     11.277181    7.093714    5.331026
   2 C     11.104953    8.444057    5.287217
   3 C     11.062465    9.893635    5.215876
   4 C      9.159045    3.876413    5.052927
   5 C      9.655470    5.237848    5.170678
   6 C      9.864849    9.123721    5.221753
   7 C      7.542770    9.870062    5.233975
   8 C      6.137970    9.716160    5.197813
   9 C      7.926829    7.423560    5.153689
  10 C      8.404184    6.054194    5.126914
  11 C      8.440300    8.797516    5.201242
  12 C      5.200641   10.768815    5.311594
  13 C      6.478568    7.298511    5.037306
  14 C      3.316302    9.295317    4.985293
  15 C      4.690027    5.821586    4.772590
  16 C      7.284909    5.130962    4.975420
  17 C      7.885061    3.816969    4.915905
  18 C      4.292328   11.771574    5.457445
  19 C      6.080170    5.882967    4.915068
  20 C      3.654343   10.525220    5.206669
  21 C      4.085582    8.133087    4.918232
  22 C      5.581809    8.363594    5.043800
  23 C      3.835238    6.759709    4.762522

Unit cell:
           periodic     x           y           z      points  spacing
  1. axis:    yes   16.000000    0.000000    0.000000    80     0.2000
  2. axis:    yes    0.000000   16.000000    0.000000    80     0.2000
  3. axis:    yes    0.000000    0.000000   10.000000    48     0.2083

Effective grid spacing dv^(1/3) = 0.2027

                     log10-error:    total        iterations:
           time      wfs    density  energy       fermi  poisson
iter:   1  17:16:44          +inf  -182.230378    3      5      
iter:   2  17:16:45         -2.71  -182.227783    3      1      
iter:   3  17:16:45         -2.84  -182.225823    3      1      
iter:   4  17:16:46         -3.02  -182.225472    2      1      
iter:   5  17:16:47         -3.09  -182.226293    2      1      
iter:   6  17:16:47         -3.23  -182.225708    2      1      
iter:   7  17:16:48         -3.23  -182.225515    2      1      
iter:   8  17:16:48         -3.60  -182.225631    2      1      
iter:   9  17:16:49         -3.64  -182.225572    2      1      
iter:  10  17:16:49         -3.76  -182.225629    2      1      
iter:  11  17:16:50         -4.03  -182.225630    2      1      

Converged after 11 iterations.

Dipole moment: (-0.548090, -0.260691, -0.014756) |e|*Ang

Energy contributions relative to reference atoms: (reference = -24663.074771)

Kinetic:       +112.926619
Potential:     -119.715768
External:        +0.000000
XC:            -178.246349
Entropy (-ST):   -0.329006
Local:           +2.974370
--------------------------
Free energy:   -182.390133
Extrapolated:  -182.225630

Fermi level: -4.51106

 Band  Eigenvalues  Occupancy
    0    -23.57113    2.00000
    1    -22.83668    2.00000
    2    -22.59004    2.00000
    3    -21.73143    2.00000
    4    -20.89618    2.00000
    5    -20.49048    2.00000
    6    -19.65045    2.00000
    7    -19.38741    2.00000
    8    -19.01218    2.00000
    9    -18.05785    2.00000
   10    -17.51072    2.00000
   11    -17.30506    2.00000
   12    -16.48561    2.00000
   13    -15.61203    2.00000
   14    -15.29637    2.00000
   15    -15.19429    2.00000
   16    -14.03628    2.00000
   17    -13.62929    2.00000
   18    -13.01061    2.00000
   19    -12.80410    2.00000
   20    -12.51580    2.00000
   21    -12.19998    2.00000
   22    -11.38710    2.00000
   23    -10.92008    2.00000
   24    -10.80377    2.00000
   25    -10.75371    2.00000
   26    -10.29214    2.00000
   27    -10.18141    2.00000
   28     -9.88376    2.00000
   29     -9.78093    2.00000
   30     -9.73912    2.00000
   31     -9.55215    2.00000
   32     -9.17588    2.00000
   33     -9.11524    2.00000
   34     -8.72620    2.00000
   35     -8.56691    2.00000
   36     -7.83956    2.00000
   37     -7.36636    2.00000
   38     -7.08711    2.00000
   39     -6.78933    2.00000
   40     -6.61700    2.00000
   41     -6.58118    2.00000
   42     -6.22766    2.00000
   43     -5.91312    2.00000
   44     -5.42143    1.99978
   45     -4.95760    1.97726
   46     -4.77871    1.87126
   47     -4.57255    1.29812
   48     -4.48089    0.85032
   49     -3.85082    0.00271
   50     -3.68631    0.00052
   51     -3.41232    0.00003
   52     -2.91988    0.00000
   53     -2.28571    0.00000
   54     -1.86498    0.00000
   55     -1.67010    0.00000
   56     -1.54592    0.00000
   57     -0.16710    0.00000
   58      0.60672    0.00000
   59      0.99123    0.00000
   60      1.16786    0.00000
   61      1.50683    0.00000
   62      2.06943    0.00000
   63      3.00870    0.00000
   64      3.07376    0.00000
   65      3.21368    0.00000
   66      3.73097    0.00000
   67      3.92717    0.00000
   68      3.96096    0.00000
   69      4.59578    0.00000
   70      4.78374    0.00000
   71      5.21445    0.00000
   72      5.41623    0.00000
   73      5.72223    0.00000
   74      5.87624    0.00000
   75      6.38417    0.00000
   76      6.75569    0.00000
   77      6.93589    0.00000
   78      7.06157    0.00000
   79      8.01669    0.00000
   80      8.25762    0.00000
   81      8.57223    0.00000
   82      8.71891    0.00000
   83      8.87067    0.00000
   84      8.95646    0.00000
   85      8.98971    0.00000
   86      9.13473    0.00000
   87      9.15754    0.00000
   88      9.35322    0.00000
   89      9.36524    0.00000
   90      9.64284    0.00000
   91      9.75149    0.00000
   92      9.89434    0.00000
   93     10.16994    0.00000
   94     10.21398    0.00000
   95     10.33190    0.00000
   96     10.35972    0.00000
   97     10.52255    0.00000


Forces in eV/Ang:
  0 C    -0.06305   -0.03462   -0.00396
  1 C    -0.00116   -0.03232    0.00787
  2 C    -0.03171    0.02478   -0.03394
  3 C    -0.08532    0.00310    0.02816
  4 C     0.02103    0.09089   -0.00305
  5 C     0.03959    0.04247   -0.02701
  6 C    -0.02361   -0.03026    0.02346
  7 C     0.03091    0.03488    0.01284
  8 C    -0.02471    0.08404   -0.02264
  9 C     0.06591   -0.09515   -0.03894
 10 C     0.06798    0.02781   -0.02762
 11 C    -0.02626   -0.02776    0.06663
 12 C     0.00873    0.00542    0.00589
 13 C    -0.06794   -0.02904    0.00051
 14 C    -0.01293    0.07411    0.04229
 15 C     0.07501   -0.02711    0.04390
 16 C     0.01683   -0.00826   -0.02179
 17 C     0.02689    0.02260    0.08132
 18 C     0.08810    0.00729   -0.03556
 19 C    -0.00901   -0.06727   -0.06006
 20 C    -0.04658    0.02636   -0.01616
 21 C    -0.00209   -0.01614   -0.03447
 22 C    -0.01984    0.00038    0.02937
 23 C    -0.02092   -0.04129    0.01011

System changes: positions 

Initializing position-dependent things.

Density initialized from wave functions
           .--------------------------------------.  
          /|                                      |  
         / |                                      |  
        /  |                                      |  
       /   |                                      |  
      /    |                                      |  
     /     |                                      |  
    /      |                                      |  
   /       |       C                              |  
  /        |    C   C                             |  
 *         |   C      C   CC   C CC               |  
 |         |    C   CC   C       C                |  
 |         .---C---C-----C-----C------------------.  
 |        /     C     C     C                    /   
 |       /             C  C                     /    
 |      /                                      /     
 |     /                                      /      
 |    /                                      /       
 |   /                                      /        
 |  /                                      /         
 | /                                      /          
 |/                                      /           
 *--------------------------------------*            

Positions:
   0 C     10.890072    5.885202    5.273777
   1 C     11.276332    7.093656    5.330235
   2 C     11.103945    8.444450    5.285076
   3 C     11.059515    9.894741    5.215367
   4 C      9.159651    3.878566    5.053096
   5 C      9.656394    5.239017    5.169804
   6 C      9.864162    9.123213    5.221894
   7 C      7.542893    9.869872    5.235887
   8 C      6.137732    9.716225    5.199606
   9 C      7.927405    7.422194    5.153936
  10 C      8.404390    6.054235    5.126660
  11 C      8.440453    8.796738    5.204355
  12 C      5.201002   10.769288    5.312406
  13 C      6.477698    7.297524    5.037187
  14 C      3.317535    9.297087    4.984931
  15 C      4.691221    5.820668    4.772904
  16 C      7.284646    5.130228    4.975203
  17 C      7.885088    3.817353    4.919322
  18 C      4.293041   11.772508    5.456690
  19 C      6.079965    5.882010    4.914482
  20 C      3.655056   10.526712    5.205723
  21 C      4.085121    8.132894    4.915837
  22 C      5.581144    8.362841    5.044109
  23 C      3.836267    6.758679    4.761986

Unit cell:
           periodic     x           y           z      points  spacing
  1. axis:    yes   16.000000    0.000000    0.000000    80     0.2000
  2. axis:    yes    0.000000   16.000000    0.000000    80     0.2000
  3. axis:    yes    0.000000    0.000000   10.000000    48     0.2083

Effective grid spacing dv^(1/3) = 0.2027

                     log10-error:    total        iterations:
           time      wfs    density  energy       fermi  poisson
iter:   1  17:16:52          +inf  -182.227803    2      4      
iter:   2  17:16:52         -3.21  -182.227284    2      1      
iter:   3  17:16:53         -3.30  -182.226703    2      1      
iter:   4  17:16:53         -3.53  -182.226923    2      1      
iter:   5  17:16:54         -3.61  -182.226867    2      1      
iter:   6  17:16:54         -3.76  -182.226539    2      1      
iter:   7  17:16:55         -3.80  -182.227088    2      1      
iter:   8  17:16:55         -4.04  -182.227018    2      1      

Converged after 8 iterations.

Dipole moment: (-0.547362, -0.263335, -0.015445) |e|*Ang

Energy contributions relative to reference atoms: (reference = -24663.074771)

Kinetic:       +113.058824
Potential:     -119.822998
External:        +0.000000
XC:            -178.280924
Entropy (-ST):   -0.329258
Local:           +2.982710
--------------------------
Free energy:   -182.391646
Extrapolated:  -182.227018

Fermi level: -4.51246

 Band  Eigenvalues  Occupancy
    0    -23.57306    2.00000
    1    -22.84038    2.00000
    2    -22.59178    2.00000
    3    -21.73318    2.00000
    4    -20.89166    2.00000
    5    -20.49184    2.00000
    6    -19.65380    2.00000
    7    -19.38638    2.00000
    8    -19.00975    2.00000
    9    -18.05945    2.00000
   10    -17.51115    2.00000
   11    -17.30957    2.00000
   12    -16.48758    2.00000
   13    -15.61089    2.00000
   14    -15.29394    2.00000
   15    -15.19355    2.00000
   16    -14.03909    2.00000
   17    -13.63490    2.00000
   18    -13.01074    2.00000
   19    -12.80582    2.00000
   20    -12.51304    2.00000
   21    -12.20168    2.00000
   22    -11.38508    2.00000
   23    -10.92126    2.00000
   24    -10.80238    2.00000
   25    -10.75822    2.00000
   26    -10.29137    2.00000
   27    -10.18360    2.00000
   28     -9.88439    2.00000
   29     -9.77944    2.00000
   30     -9.74028    2.00000
   31     -9.55367    2.00000
   32     -9.17660    2.00000
   33     -9.11792    2.00000
   34     -8.72271    2.00000
   35     -8.56477    2.00000
   36     -7.84124    2.00000
   37     -7.36664    2.00000
   38     -7.08752    2.00000
   39     -6.78756    2.00000
   40     -6.61555    2.00000
   41     -6.58020    2.00000
   42     -6.22569    2.00000
   43     -5.91181    2.00000
   44     -5.42265    1.99978
   45     -4.95625    1.97663
   46     -4.78016    1.87131
   47     -4.57378    1.29733
   48     -4.48261    0.85184
   49     -3.84657    0.00256
   50     -3.68569    0.00051
   51     -3.41312    0.00003
   52     -2.91474    0.00000
   53     -2.28389    0.00000
   54     -1.86282    0.00000
   55     -1.67254    0.00000
   56     -1.54676    0.00000
   57     -0.16749    0.00000
   58      0.61231    0.00000
   59      0.99290    0.00000
   60      1.16784    0.00000
   61      1.50785    0.00000
   62      2.07023    0.00000
   63      3.00173    0.00000
   64      3.07310    0.00000
   65      3.21299    0.00000
   66      3.74294    0.00000
   67      3.92583    0.00000
   68      3.96509    0.00000
   69      4.59956    0.00000
   70      4.78414    0.00000
   71      5.22228    0.00000
   72      5.42143    0.00000
   73      5.72848    0.00000
   74      5.88928    0.00000
   75      6.38073    0.00000
   76      6.75200    0.00000
   77      6.93571    0.00000
   78      7.06214    0.00000
   79      8.01894    0.00000
   80      8.26192    0.00000
   81      8.56990    0.00000
   82      8.71710    0.00000
   83      8.87257    0.00000
   84      8.95630    0.00000
   85      8.99056    0.00000
   86      9.13555    0.00000
   87      9.15926    0.00000
   88      9.35281    0.00000
   89      9.36365    0.00000
   90      9.64080    0.00000
   91      9.75128    0.00000
   92      9.89543    0.00000
   93     10.17277    0.00000
   94     10.21436    0.00000
   95     10.33132    0.00000
   96     10.35799    0.00000
   97     10.52251    0.00000


Forces in eV/Ang:
  0 C    -0.02432    0.01951   -0.00045
  1 C    -0.00025   -0.00883   -0.00287
  2 C    -0.00637   -0.00507   -0.02715
  3 C    -0.05296    0.00207   -0.00625
  4 C     0.00169    0.06110    0.00143
  5 C     0.00533    0.00045   -0.01328
  6 C    -0.06330   -0.02667    0.03847
  7 C     0.03173    0.02849    0.04398
  8 C    -0.01339    0.05568   -0.03821
  9 C     0.02451   -0.05208   -0.02840
 10 C     0.04694    0.02823   -0.03574
 11 C    -0.05866   -0.01546    0.03862
 12 C     0.01238   -0.00787    0.00886
 13 C    -0.02948   -0.01866    0.00594
 14 C    -0.01675    0.00636    0.02086
 15 C     0.01838   -0.03268    0.03816
 16 C     0.04258    0.00927   -0.00679
 17 C     0.03748    0.00032    0.06316
 18 C     0.08556    0.02858   -0.02479
 19 C     0.03089   -0.05279   -0.04474
 20 C    -0.05391    0.02497   -0.01560
 21 C    -0.00641   -0.00405   -0.00752
 22 C     0.00139    0.01955    0.02352
 23 C    -0.04268   -0.01050    0.00133

