
  ___ ___ ___ _ _ _  
 |   |   |_  | | | | 
 | | | | | . | | | | 
 |__ |  _|___|_____|  1.3.0b1
 |___|_|             

User:   esb@s65n33.grendel.cscaa.dk
Date:   Thu Nov  9 10:12:38 2017
Arch:   x86_64
Pid:    74498
Python: 2.7.13
gpaw:   /home/esb/DFT/gpaw_git/gpaw
_gpaw:  /home/esb/DFT/gpaw_git/build/bin.linux-x86_64-2.7/gpaw-python
ase:    /home/esb/DFT/ase_git/ase (version 3.15.0b1)
numpy:  /comm/swstack/core/python/2.7.13/lib/python2.7/site-packages/numpy (version 1.13.3)
scipy:  /comm/swstack/core/python/2.7.13/lib/python2.7/site-packages/scipy (version 0.19.1)
units:  Angstrom and eV
cores:  16
Extra parameters: {'blacs': True}

Input parameters:
  basis: dzp
  gpts: [80 80 48]
  kpts: [1 1 1]
  maxiter: 99
  mixer: {backend: pulay,
          beta: 0.05,
          method: separate,
          nmaxold: 5,
          weight: 75}
  mode: lcao
  nbands: -50
  occupations: {name: fermi-dirac,
                width: 0.1}
  poissonsolver: {eps: 1e-07,
                  name: fd,
                  nn: 3,
                  relax: GS}
  xc: PBE

System changes: positions, numbers, cell, pbc, initial_charges, initial_magmoms 

Initialize ...

C-setup:
  name: Carbon
  id: 4aa54d4b901d75f77cc0ea3eec22967b
  Z: 6
  valence: 4
  core: 2
  charge: 0.0
  file: /home/esb/DFT/gpaw-setups-0.8.7929/C.PBE.gz
  cutoffs: 0.64(comp), 1.14(filt), 1.14(core), lmax=2
  valence states:
                energy  radius
    2s(2.00)   -13.751   0.635
    2p(2.00)    -5.284   0.635
    *s          13.461   0.635
    *p          21.927   0.635
    *d           0.000   0.635

  LCAO basis set for C:
    Name: dzp
    File: /home/esb/DFT/gpaw-setups-0.8.7929/C.dzp.basis.gz
    Number of radial functions: 5
    Number of spherical harmonics: 13
      l=0, rc=5.5469 Bohr: 2s-sz confined orbital
      l=1, rc=6.6719 Bohr: 2p-sz confined orbital
      l=0, rc=3.0312 Bohr: 2s-dz split-valence wave
      l=1, rc=3.7500 Bohr: 2p-dz split-valence wave
      l=2, rc=6.6719 Bohr: d-type Gaussian polarization

Reference energy: -24663.074771

Spin-paired calculation

Occupation numbers:
  Fermi-Dirac: width=0.1000 eV

Convergence criteria:
  Maximum total energy change: 0.0005 eV / electron
  Maximum integral of absolute density change: 0.0001 electrons
  Maximum integral of absolute eigenstate change: 4e-08 eV^2
  Maximum number of iterations: 99

Symmetries present (total): 1

  ( 1  0  0)
  ( 0  1  0)
  ( 0  0  1)

1 k-point (Gamma)
1 k-point in the irreducible part of the Brillouin zone
       k-points in crystal coordinates                weights
   0:     0.00000000    0.00000000    0.00000000          1/1

Wave functions: LCAO
  Diagonalizer: Serial LAPACK
  Atomic Correction: dense with blas
  Datatype: float
  Eigensolver: None 

LCAO using direct dense diagonalizer 

Densities:
  Coarse grid: 80*80*48 grid
  Fine grid: 160*160*96 grid
  Total Charge: 0.000000 

Density mixing:
  Method: separate
  Backend: pulay
  Linear mixing parameter: 0.05
  Mixing with 5 old densities
  Damping of long wave oscillations: 75 

Hamiltonian:
  XC and Coulomb potentials evaluated on a 160*160*96 grid
  Using the PBE Exchange-Correlation functional
  Interpolation: tri-quintic (5. degree polynomial)
  Poisson solver: Gauss-Seidel solver with 6 multi-grid levels
    Coarsest grid: 5 x 5 x 3 points
    Stencil: 6*3+1=19 point O(h^6) finite-difference Laplacian
    Max iterations: 1000
    Tolerance: 1.000000e-07 

Memory estimate:
  Process memory now: 77.56 MiB
  Calculator: 15.59 MiB
    Density: 6.13 MiB
      Arrays: 3.81 MiB
      Localized functions: 0.86 MiB
      Mixer: 1.46 MiB
    Hamiltonian: 5.40 MiB
      Arrays: 2.49 MiB
      XC: 0.00 MiB
      Poisson: 2.85 MiB
      vbar: 0.07 MiB
    Wavefunctions: 4.05 MiB
      C [qnM]: 0.23 MiB
      S, T [2 x qmm]: 1.49 MiB
      P [aqMi]: 0.01 MiB
      TCI: 0.00 MiB
      BasisFunctions: 2.33 MiB
      Eigensolver: 0.00 MiB

Total number of cores used: 16
Domain decomposition: 2 x 4 x 2

Number of atoms: 24
Number of atomic orbitals: 312
Number of bands in calculation: 98
Bands to converge: occupied states only
Number of valence electrons: 96

... initialized

Initializing position-dependent things.

Density initialized from atomic densities
           .--------------------------------------.  
          /|                                      |  
         / |                                      |  
        /  |                                      |  
       /   |                                      |  
      /    |                                      |  
     /     |                                      |  
    /      |                                      |  
   /       |                                      |  
  /        |           C        C                 |  
 *         |     C  CC    C  C  CC                |  
 |         |  C C       C  C   C                  |  
 |         .------C--CC--C----C-------------------.  
 |        /             C   C                    /   
 |       /                 C                    /    
 |      /                                      /     
 |     /                                      /      
 |    /                                      /       
 |   /                                      /        
 |  /                                      /         
 | /                                      /          
 |/                                      /           
 *--------------------------------------*            

Positions:
   0 C      7.545008    7.469398    5.484831
   1 C      7.252239    6.043942    5.461289
   2 C      8.744317    8.020017    5.153980
   3 C      6.569842   10.046205    5.224577
   4 C      9.626277    3.499931    4.446701
   5 C      9.646979    5.747938    4.760416
   6 C      8.269004    5.191823    5.106994
   7 C      7.809452   10.175471    4.986225
   8 C      9.016181    9.454922    4.850008
   9 C      5.511718    9.104155    5.462811
  10 C      6.146601    7.817678    5.591381
  11 C      4.067361    9.110587    5.528720
  12 C      9.898563   10.644923    5.599173
  13 C     10.434076    9.421653    5.216394
  14 C      3.509808    6.783443    5.873978
  15 C      8.562908    4.459614    6.259982
  16 C      7.353857    4.115191    6.367381
  17 C     10.731988    5.840759    6.458928
  18 C      6.013438    4.129071    6.449256
  19 C     11.284718    6.998066    6.380354
  20 C      4.869990    4.668988    6.329971
  21 C     10.963267    8.034841    5.513893
  22 C      3.951991    5.618181    6.124947
  23 C      9.949949    7.491084    4.585505

Unit cell:
           periodic     x           y           z      points  spacing
  1. axis:    yes   16.000000    0.000000    0.000000    80     0.2000
  2. axis:    yes    0.000000   16.000000    0.000000    80     0.2000
  3. axis:    yes    0.000000    0.000000   10.000000    48     0.2083

Effective grid spacing dv^(1/3) = 0.2027

                     log10-error:    total        iterations:
           time      wfs    density  energy       fermi  poisson
iter:   1  10:12:40          +inf  -164.165719    2      6      
iter:   2  10:12:41         -0.88  -162.286303    3      3      
iter:   3  10:12:41         -0.93  -161.497963    4      3      
iter:   4  10:12:42         -0.93  -162.452588    3      2      
iter:   5  10:12:42         -0.92  -160.504448    5      3      
iter:   6  10:12:43         -0.99  -159.290997    4      3      
iter:   7  10:12:44         -1.21  -158.989028    4      3      
iter:   8  10:12:44         -1.37  -158.711554    3      3      
iter:   9  10:12:45         -1.62  -158.609334    3      2      
iter:  10  10:12:45         -1.72  -158.550335    3      3      
iter:  11  10:12:46         -1.88  -158.543807    2      3      
iter:  12  10:12:47         -2.01  -158.540690    3      2      
iter:  13  10:12:47         -2.10  -158.528089    4      2      
iter:  14  10:12:48         -2.42  -158.522322    3      2      
iter:  15  10:12:48         -2.52  -158.522086    3      2      
iter:  16  10:12:49         -2.74  -158.520310    3      2      
iter:  17  10:12:49         -2.93  -158.529376    2      1      
iter:  18  10:12:50         -3.07  -158.527591    2      1      
iter:  19  10:12:50         -3.20  -158.512639    3      1      
iter:  20  10:12:51         -3.41  -158.514166    2      1      
iter:  21  10:12:52         -3.61  -158.515406    2      1      
iter:  22  10:12:52         -3.89  -158.516643    2      1      
iter:  23  10:12:53         -3.99  -158.517794    2      1      
iter:  24  10:12:53         -4.13  -158.517317    2      1      

Converged after 24 iterations.

Dipole moment: (0.406323, -0.303925, -0.240672) |e|*Ang

Energy contributions relative to reference atoms: (reference = -24663.074771)

Kinetic:       +110.377512
Potential:     -111.218529
External:        +0.000000
XC:            -160.372203
Entropy (-ST):   -0.268957
Local:           +2.830382
--------------------------
Free energy:   -158.651796
Extrapolated:  -158.517317

Fermi level: -4.29910

 Band  Eigenvalues  Occupancy
    0    -24.28153    2.00000
    1    -23.48085    2.00000
    2    -21.58246    2.00000
    3    -21.45464    2.00000
    4    -20.38943    2.00000
    5    -20.12025    2.00000
    6    -19.29354    2.00000
    7    -18.94251    2.00000
    8    -18.66647    2.00000
    9    -17.84811    2.00000
   10    -17.40403    2.00000
   11    -16.42515    2.00000
   12    -16.15633    2.00000
   13    -15.68886    2.00000
   14    -15.14228    2.00000
   15    -14.89182    2.00000
   16    -14.28802    2.00000
   17    -14.12770    2.00000
   18    -13.18366    2.00000
   19    -12.86941    2.00000
   20    -12.50019    2.00000
   21    -11.82365    2.00000
   22    -11.27879    2.00000
   23    -11.13541    2.00000
   24    -11.08662    2.00000
   25    -10.52833    2.00000
   26     -9.86059    2.00000
   27     -9.53966    2.00000
   28     -9.18705    2.00000
   29     -9.11230    2.00000
   30     -8.67061    2.00000
   31     -8.47224    2.00000
   32     -8.31167    2.00000
   33     -8.01515    2.00000
   34     -7.65181    2.00000
   35     -7.43318    2.00000
   36     -7.12645    2.00000
   37     -6.88146    2.00000
   38     -6.81680    2.00000
   39     -6.64732    2.00000
   40     -6.29355    2.00000
   41     -6.06620    2.00000
   42     -5.63250    2.00000
   43     -5.48261    1.99999
   44     -5.38196    1.99996
   45     -5.29591    1.99991
   46     -4.83270    1.99042
   47     -4.41036    1.50524
   48     -4.15427    0.38053
   49     -4.00841    0.10363
   50     -3.81581    0.01580
   51     -3.66748    0.00361
   52     -3.49098    0.00062
   53     -3.41351    0.00029
   54     -3.14052    0.00002
   55     -3.00494    0.00000
   56     -2.48605    0.00000
   57     -2.31211    0.00000
   58     -2.04375    0.00000
   59     -1.74050    0.00000
   60     -1.51501    0.00000
   61     -0.99242    0.00000
   62     -0.58822    0.00000
   63     -0.11986    0.00000
   64      0.57678    0.00000
   65      0.99265    0.00000
   66      1.16883    0.00000
   67      1.27622    0.00000
   68      1.57505    0.00000
   69      2.54154    0.00000
   70      2.86918    0.00000
   71      3.56237    0.00000
   72      4.19272    0.00000
   73      4.36789    0.00000
   74      4.74616    0.00000
   75      5.13442    0.00000
   76      5.20310    0.00000
   77      5.98119    0.00000
   78      6.63433    0.00000
   79      7.27107    0.00000
   80      7.47532    0.00000
   81      7.78105    0.00000
   82      7.90686    0.00000
   83      8.28428    0.00000
   84      8.46755    0.00000
   85      8.59362    0.00000
   86      8.76388    0.00000
   87      8.84429    0.00000
   88      8.92340    0.00000
   89      9.20621    0.00000
   90      9.29167    0.00000
   91      9.50063    0.00000
   92      9.52591    0.00000
   93      9.62885    0.00000
   94      9.89664    0.00000
   95      9.92070    0.00000
   96     10.10417    0.00000
   97     10.16034    0.00000


Forces in eV/Ang:
  0 C    -5.05648   -2.92591   -0.08865
  1 C    -1.64257    5.43599   -0.66887
  2 C     2.40086    2.48255   -3.95112
  3 C     0.54417    0.20284   -0.04509
  4 C    -1.20010    3.70324    1.44535
  5 C     1.80491    0.61829    0.72070
  6 C     5.66017    1.44387   -3.95110
  7 C    -1.35088   -0.23192   -0.87055
  8 C    -3.35254   -1.16671    1.95113
  9 C    -1.24219   -1.18848   -0.09584
 10 C     1.90875   -0.33337    0.23311
 11 C     0.45768   -0.20454    0.03101
 12 C     2.71934   -0.39868    0.34171
 13 C     3.50347    3.05793    2.92756
 14 C     0.21473    2.35626   -0.47475
 15 C     3.76300   -3.92194    0.80201
 16 C    -5.82762   -2.93168    2.86799
 17 C    -0.70276   -0.69442   -0.94741
 18 C     0.63096   -0.53598    0.61996
 19 C     0.98980    0.67599    0.28080
 20 C    -0.57193    0.15780   -0.06661
 21 C    -1.72932    2.41511   -3.42492
 22 C     0.52523   -1.08707    0.33957
 23 C    -2.39950   -6.74850    1.92033

System changes: positions 

Initializing position-dependent things.

Density initialized from wave functions
           .--------------------------------------.  
          /|                                      |  
         / |                                      |  
        /  |                                      |  
       /   |                                      |  
      /    |                                      |  
     /     |                                      |  
    /      |                                      |  
   /       |                                      |  
  /        |           C        C                 |  
 *         |     C  CC    C  C  CC                |  
 |         |  C C       C  C   C                  |  
 |         .------C--CC--C----C-------------------.  
 |        /             C   C                    /   
 |       /                 C                    /    
 |      /                                      /     
 |     /                                      /      
 |    /                                      /       
 |   /                                      /        
 |  /                                      /         
 | /                                      /          
 |/                                      /           
 *--------------------------------------*            

Positions:
   0 C      7.517732    7.453615    5.484353
   1 C      7.243379    6.073265    5.457681
   2 C      8.757268    8.033408    5.132667
   3 C      6.572778   10.047299    5.224334
   4 C      9.619804    3.519907    4.454498
   5 C      9.656715    5.751273    4.764304
   6 C      8.299536    5.199612    5.085681
   7 C      7.802165   10.174220    4.981530
   8 C      8.998097    9.448628    4.860533
   9 C      5.505017    9.097744    5.462294
  10 C      6.156897    7.815880    5.592639
  11 C      4.069830    9.109484    5.528887
  12 C      9.913232   10.642772    5.601016
  13 C     10.452974    9.438148    5.232185
  14 C      3.510966    6.796153    5.871417
  15 C      8.583206    4.438458    6.264308
  16 C      7.322421    4.099377    6.382852
  17 C     10.728197    5.837013    6.453818
  18 C      6.016842    4.126180    6.452600
  19 C     11.290057    7.001712    6.381869
  20 C      4.866905    4.669839    6.329612
  21 C     10.953939    8.047868    5.495419
  22 C      3.954825    5.612317    6.126779
  23 C      9.937006    7.454681    4.595864

Unit cell:
           periodic     x           y           z      points  spacing
  1. axis:    yes   16.000000    0.000000    0.000000    80     0.2000
  2. axis:    yes    0.000000   16.000000    0.000000    80     0.2000
  3. axis:    yes    0.000000    0.000000   10.000000    48     0.2083

Effective grid spacing dv^(1/3) = 0.2027

                     log10-error:    total        iterations:
           time      wfs    density  energy       fermi  poisson
iter:   1  10:12:55          +inf  -160.480423    3      5      
iter:   2  10:12:56         -1.80  -160.395919    3      2      
iter:   3  10:12:56         -1.92  -160.324686    3      2      
iter:   4  10:12:57         -2.15  -160.312125    3      2      
iter:   5  10:12:57         -2.27  -160.307730    2      2      
iter:   6  10:12:58         -2.39  -160.305816    3      2      
iter:   7  10:12:59         -2.68  -160.304665    2      2      
iter:   8  10:12:59         -2.82  -160.303877    3      2      
iter:   9  10:13:00         -3.05  -160.305330    2      1      
iter:  10  10:13:00         -3.19  -160.305664    2      1      
iter:  11  10:13:01         -3.42  -160.304036    2      1      
iter:  12  10:13:01         -3.49  -160.303783    2      1      
iter:  13  10:13:02         -3.64  -160.304819    2      1      
iter:  14  10:13:02         -3.70  -160.303629    2      1      
iter:  15  10:13:03         -4.03  -160.303547    2      1      

Converged after 15 iterations.

Dipole moment: (0.326227, -0.306426, -0.249855) |e|*Ang

Energy contributions relative to reference atoms: (reference = -24663.074771)

Kinetic:       +103.752593
Potential:     -107.155012
External:        +0.000000
XC:            -159.591586
Entropy (-ST):   -0.259462
Local:           +2.820191
--------------------------
Free energy:   -160.433278
Extrapolated:  -160.303547

Fermi level: -4.30798

 Band  Eigenvalues  Occupancy
    0    -24.13571    2.00000
    1    -22.96888    2.00000
    2    -21.59374    2.00000
    3    -21.37938    2.00000
    4    -20.44427    2.00000
    5    -20.09174    2.00000
    6    -19.39431    2.00000
    7    -19.00164    2.00000
    8    -18.67143    2.00000
    9    -17.82406    2.00000
   10    -17.34270    2.00000
   11    -16.43248    2.00000
   12    -16.20678    2.00000
   13    -15.66357    2.00000
   14    -14.96739    2.00000
   15    -14.91057    2.00000
   16    -14.30220    2.00000
   17    -14.20702    2.00000
   18    -13.18123    2.00000
   19    -12.83167    2.00000
   20    -12.41576    2.00000
   21    -11.70413    2.00000
   22    -11.29024    2.00000
   23    -11.11071    2.00000
   24    -10.94151    2.00000
   25    -10.43588    2.00000
   26     -9.92707    2.00000
   27     -9.59778    2.00000
   28     -9.25439    2.00000
   29     -9.17141    2.00000
   30     -8.69639    2.00000
   31     -8.45703    2.00000
   32     -8.26899    2.00000
   33     -8.06113    2.00000
   34     -7.68595    2.00000
   35     -7.44150    2.00000
   36     -7.12526    2.00000
   37     -6.87965    2.00000
   38     -6.79908    2.00000
   39     -6.70206    2.00000
   40     -6.36476    2.00000
   41     -6.12654    2.00000
   42     -5.68687    2.00000
   43     -5.52894    1.99999
   44     -5.40677    1.99997
   45     -5.29932    1.99990
   46     -4.86206    1.99218
   47     -4.41987    1.50759
   48     -4.17103    0.40539
   49     -3.99858    0.08671
   50     -3.72454    0.00583
   51     -3.60996    0.00186
   52     -3.46576    0.00044
   53     -3.30956    0.00009
   54     -3.22459    0.00004
   55     -3.03574    0.00001
   56     -2.45323    0.00000
   57     -2.19284    0.00000
   58     -1.97081    0.00000
   59     -1.73773    0.00000
   60     -1.51756    0.00000
   61     -0.92003    0.00000
   62     -0.51969    0.00000
   63     -0.10634    0.00000
   64      0.60342    0.00000
   65      0.99763    0.00000
   66      1.06649    0.00000
   67      1.28331    0.00000
   68      1.62702    0.00000
   69      2.62324    0.00000
   70      3.01252    0.00000
   71      3.98278    0.00000
   72      4.11156    0.00000
   73      4.31906    0.00000
   74      4.93387    0.00000
   75      5.23861    0.00000
   76      5.31994    0.00000
   77      6.02809    0.00000
   78      6.38712    0.00000
   79      7.13389    0.00000
   80      7.41641    0.00000
   81      7.87693    0.00000
   82      7.94809    0.00000
   83      8.33034    0.00000
   84      8.46463    0.00000
   85      8.61914    0.00000
   86      8.76117    0.00000
   87      8.83329    0.00000
   88      8.88873    0.00000
   89      9.20932    0.00000
   90      9.32870    0.00000
   91      9.53742    0.00000
   92      9.58622    0.00000
   93      9.68402    0.00000
   94      9.83571    0.00000
   95      9.95890    0.00000
   96     10.11116    0.00000
   97     10.16870    0.00000


Forces in eV/Ang:
  0 C    -2.05563   -0.94574   -0.62060
  1 C    -0.86189    2.93976   -0.96907
  2 C     0.31435    1.32205   -3.30424
  3 C    -0.43845   -0.07120    0.11324
  4 C    -1.38393    3.77751    1.64188
  5 C     1.84511    0.94349    0.87110
  6 C     4.30232    1.19647   -2.16721
  7 C    -1.02536   -0.10235   -0.84327
  8 C    -2.26917   -0.59928    1.92497
  9 C    -0.68220   -1.05564   -0.11375
 10 C     0.94488   -0.16360    0.23037
 11 C     0.28601   -0.20216    0.03532
 12 C     2.41394   -0.23090    0.28239
 13 C     2.91060    2.20776    2.45935
 14 C     0.57203    1.33398   -0.26732
 15 C     0.74343   -3.85400   -0.17041
 16 C    -1.23448   -2.01036    2.02932
 17 C    -0.44683   -0.11045   -1.03459
 18 C    -0.88623   -0.38981    0.74092
 19 C     0.58316    0.70135   -0.12480
 20 C    -0.39691   -0.01842   -0.01175
 21 C    -1.25260    1.49935   -2.79673
 22 C     0.01791    0.03439    0.10441
 23 C    -1.98219   -6.14972    1.91718

System changes: positions 

Initializing position-dependent things.

Density initialized from wave functions
           .--------------------------------------.  
          /|                                      |  
         / |                                      |  
        /  |                                      |  
       /   |                                      |  
      /    |                                      |  
     /     |                                      |  
    /      |                                      |  
   /       |                                      |  
  /        |           C        C                 |  
 *         |     C  CC    C  C  CC                |  
 |         |  C C       C  C   C                  |  
 |         .------C--CC--C----C-------------------.  
 |        /              C  C                    /   
 |       /                 C                    /    
 |      /                                      /     
 |     /                                      /      
 |    /                                      /       
 |   /                                      /        
 |  /                                      /         
 | /                                      /          
 |/                                      /           
 *--------------------------------------*            

Positions:
   0 C      7.509242    7.450504    5.479883
   1 C      7.239186    6.087788    5.451404
   2 C      8.756407    8.039889    5.113479
   3 C      6.568814   10.046504    5.225231
   4 C      9.611164    3.542922    4.464719
   5 C      9.667962    5.757428    4.769788
   6 C      8.323835    5.206542    5.074900
   7 C      7.796377   10.173771    4.976450
   8 C      8.985768    9.445745    4.872176
   9 C      5.501621    9.091516    5.461580
  10 C      6.161351    7.815112    5.594033
  11 C      4.071337    9.108261    5.529107
  12 C      9.927471   10.641594    5.602650
  13 C     10.469845    9.450414    5.246484
  14 C      3.514910    6.802890    5.870071
  15 C      8.583711    4.415168    6.261984
  16 C      7.321025    4.088403    6.394050
  17 C     10.725826    5.837118    6.447426
  18 C      6.009453    4.124009    6.457255
  19 C     11.293055    7.006001    6.380573
  20 C      4.864729    4.669494    6.329613
  21 C     10.946972    8.055749    5.479285
  22 C      3.954260    5.614014    6.127101
  23 C      9.925534    7.418168    4.607491

Unit cell:
           periodic     x           y           z      points  spacing
  1. axis:    yes   16.000000    0.000000    0.000000    80     0.2000
  2. axis:    yes    0.000000   16.000000    0.000000    80     0.2000
  3. axis:    yes    0.000000    0.000000   10.000000    48     0.2083

Effective grid spacing dv^(1/3) = 0.2027

                     log10-error:    total        iterations:
           time      wfs    density  energy       fermi  poisson
iter:   1  10:13:05          +inf  -161.470204    2      5      
iter:   2  10:13:05         -1.96  -161.425848    3      2      
iter:   3  10:13:06         -2.13  -161.399939    3      2      
iter:   4  10:13:07         -2.33  -161.389289    3      2      
iter:   5  10:13:07         -2.51  -161.385380    2      2      
iter:   6  10:13:08         -2.65  -161.385943    3      2      
iter:   7  10:13:08         -2.89  -161.384398    2      1      
iter:   8  10:13:09         -3.01  -161.384826    2      1      
iter:   9  10:13:09         -3.15  -161.385739    2      1      
iter:  10  10:13:10         -3.35  -161.385510    2      1      
iter:  11  10:13:10         -3.49  -161.386805    2      1      
iter:  12  10:13:11         -3.65  -161.385531    2      1      
iter:  13  10:13:11         -3.78  -161.385456    2      1      
iter:  14  10:13:12         -3.89  -161.385830    2      1      
iter:  15  10:13:13         -4.11  -161.385201    2      1      

Converged after 15 iterations.

Dipole moment: (0.318373, -0.316341, -0.257110) |e|*Ang

Energy contributions relative to reference atoms: (reference = -24663.074771)

Kinetic:       +101.273646
Potential:     -105.796458
External:        +0.000000
XC:            -159.566333
Entropy (-ST):   -0.257331
Local:           +2.832609
--------------------------
Free energy:   -161.513866
Extrapolated:  -161.385201

Fermi level: -4.32011

 Band  Eigenvalues  Occupancy
    0    -24.01049    2.00000
    1    -22.78055    2.00000
    2    -21.62234    2.00000
    3    -21.33058    2.00000
    4    -20.42997    2.00000
    5    -20.10758    2.00000
    6    -19.45339    2.00000
    7    -19.00437    2.00000
    8    -18.63798    2.00000
    9    -17.88589    2.00000
   10    -17.31178    2.00000
   11    -16.42595    2.00000
   12    -16.22860    2.00000
   13    -15.69301    2.00000
   14    -15.06164    2.00000
   15    -14.79817    2.00000
   16    -14.28916    2.00000
   17    -14.20606    2.00000
   18    -13.20942    2.00000
   19    -12.84857    2.00000
   20    -12.36838    2.00000
   21    -11.71881    2.00000
   22    -11.33773    2.00000
   23    -11.12839    2.00000
   24    -10.83704    2.00000
   25    -10.41618    2.00000
   26     -9.97990    2.00000
   27     -9.61324    2.00000
   28     -9.28922    2.00000
   29     -9.18353    2.00000
   30     -8.72945    2.00000
   31     -8.44931    2.00000
   32     -8.25186    2.00000
   33     -8.07835    2.00000
   34     -7.70152    2.00000
   35     -7.46289    2.00000
   36     -7.13850    2.00000
   37     -6.90213    2.00000
   38     -6.82372    2.00000
   39     -6.70949    2.00000
   40     -6.37070    2.00000
   41     -6.18002    2.00000
   42     -5.71090    2.00000
   43     -5.57417    1.99999
   44     -5.41175    1.99996
   45     -5.30865    1.99990
   46     -4.92492    1.99529
   47     -4.42861    1.49486
   48     -4.18995    0.42778
   49     -3.99697    0.07600
   50     -3.70894    0.00442
   51     -3.59722    0.00145
   52     -3.43250    0.00028
   53     -3.21707    0.00003
   54     -3.19311    0.00003
   55     -3.03015    0.00000
   56     -2.40934    0.00000
   57     -2.12193    0.00000
   58     -1.86495    0.00000
   59     -1.72396    0.00000
   60     -1.52525    0.00000
   61     -0.88519    0.00000
   62     -0.48527    0.00000
   63     -0.14497    0.00000
   64      0.64270    0.00000
   65      1.00064    0.00000
   66      1.08100    0.00000
   67      1.31817    0.00000
   68      1.67072    0.00000
   69      2.63028    0.00000
   70      3.16889    0.00000
   71      3.97218    0.00000
   72      4.13735    0.00000
   73      4.53474    0.00000
   74      5.02189    0.00000
   75      5.29515    0.00000
   76      5.43777    0.00000
   77      6.09432    0.00000
   78      6.29146    0.00000
   79      7.08021    0.00000
   80      7.38790    0.00000
   81      7.90762    0.00000
   82      7.95205    0.00000
   83      8.38534    0.00000
   84      8.46749    0.00000
   85      8.62764    0.00000
   86      8.78070    0.00000
   87      8.83892    0.00000
   88      8.89822    0.00000
   89      9.20583    0.00000
   90      9.32013    0.00000
   91      9.52497    0.00000
   92      9.58338    0.00000
   93      9.72343    0.00000
   94      9.81963    0.00000
   95      9.96348    0.00000
   96     10.09581    0.00000
   97     10.17190    0.00000


Forces in eV/Ang:
  0 C    -1.16226   -0.18183   -0.76538
  1 C    -0.50721    1.78275   -1.11361
  2 C    -0.01089    0.79599   -3.04379
  3 C    -0.56033   -0.12737    0.09292
  4 C    -1.47136    3.77575    1.71027
  5 C     1.91049    1.06992    1.14371
  6 C     3.49370    1.01638   -1.36530
  7 C    -1.16450   -0.04347   -0.73328
  8 C    -1.57113   -0.18049    1.87574
  9 C    -0.49808   -0.99205   -0.10354
 10 C     0.59145   -0.16237    0.23111
 11 C     0.12812   -0.23144    0.04296
 12 C     2.06550   -0.01383    0.26032
 13 C     2.48232    1.34639    2.01294
 14 C     0.69244    1.10279   -0.21303
 15 C     0.63618   -3.45121   -0.81788
 16 C    -1.39888   -1.86559    1.80510
 17 C    -0.30303    0.22172   -1.06967
 18 C    -0.23991   -0.48440    0.74721
 19 C     0.37196    0.64876   -0.34865
 20 C    -0.59407    0.10923   -0.01457
 21 C    -1.01281    0.85326   -2.34298
 22 C    -0.09272    0.28204    0.03638
 23 C    -1.76714   -5.22791    1.91597

System changes: positions 

Initializing position-dependent things.

Density initialized from wave functions
           .--------------------------------------.  
          /|                                      |  
         / |                                      |  
        /  |                                      |  
       /   |                                      |  
      /    |                                      |  
     /     |                                      |  
    /      |                                      |  
   /       |                                      |  
  /        |           C        C                 |  
 *         |     C  CC    C  C  CC                |  
 |         |  C C       C  C   C                  |  
 |         .------C--CC--C----C-------------------.  
 |        /              C  C                    /   
 |       /                 C                    /    
 |      /                                      /     
 |     /                                      /      
 |    /                                      /       
 |   /                                      /        
 |  /                                      /         
 | /                                      /          
 |/                                      /           
 *--------------------------------------*            

Positions:
   0 C      7.505609    7.453127    5.473316
   1 C      7.237163    6.095374    5.442370
   2 C      8.753908    8.043215    5.092068
   3 C      6.563604   10.045185    5.225942
   4 C      9.599735    3.571183    4.477871
   5 C      9.682508    5.766084    4.779435
   6 C      8.346163    5.213328    5.068704
   7 C      7.787345   10.173740    4.971392
   8 C      8.977241    9.446279    4.886000
   9 C      5.498906    9.084413    5.460834
  10 C      6.163902    7.814002    5.595761
  11 C      4.071610    9.106424    5.529459
  12 C      9.941441   10.642393    5.604480
  13 C     10.486468    9.456790    5.259604
  14 C      3.520740    6.809682    5.868800
  15 C      8.586316    4.390903    6.252905
  16 C      7.312625    4.075529    6.406225
  17 C     10.724242    5.840346    6.439249
  18 C      6.009176    4.120123    6.462934
  19 C     11.294816    7.010670    6.376902
  20 C      4.859659    4.670681    6.329526
  21 C     10.940567    8.059200    5.463819
  22 C      3.952863    5.617691    6.126984
  23 C      9.913365    7.382856    4.621806

Unit cell:
           periodic     x           y           z      points  spacing
  1. axis:    yes   16.000000    0.000000    0.000000    80     0.2000
  2. axis:    yes    0.000000   16.000000    0.000000    80     0.2000
  3. axis:    yes    0.000000    0.000000   10.000000    48     0.2083

Effective grid spacing dv^(1/3) = 0.2027

                     log10-error:    total        iterations:
           time      wfs    density  energy       fermi  poisson
iter:   1  10:13:15          +inf  -162.443241    2      5      
iter:   2  10:13:15         -1.97  -162.393980    2      2      
iter:   3  10:13:16         -2.18  -162.374031    3      2      
iter:   4  10:13:16         -2.34  -162.362550    3      2      
iter:   5  10:13:17         -2.56  -162.358474    2      2      
iter:   6  10:13:17         -2.70  -162.355941    2      1      
iter:   7  10:13:18         -2.78  -162.359943    3      2      
iter:   8  10:13:18         -3.08  -162.359923    2      1      
iter:   9  10:13:19         -3.28  -162.358207    2      1      
iter:  10  10:13:20         -3.41  -162.360326    2      1      
iter:  11  10:13:20         -3.52  -162.360825    2      1      
iter:  12  10:13:21         -3.70  -162.359527    2      1      
iter:  13  10:13:21         -3.91  -162.359882    2      1      
iter:  14  10:13:22         -3.97  -162.360009    2      1      
iter:  15  10:13:22         -4.10  -162.359655    2      1      

Converged after 15 iterations.

Dipole moment: (0.296199, -0.320021, -0.255014) |e|*Ang

Energy contributions relative to reference atoms: (reference = -24663.074771)

Kinetic:        +99.488389
Potential:     -104.867732
External:        +0.000000
XC:            -159.685462
Entropy (-ST):   -0.257887
Local:           +2.834093
--------------------------
Free energy:   -162.488599
Extrapolated:  -162.359655

Fermi level: -4.32647

 Band  Eigenvalues  Occupancy
    0    -23.90041    2.00000
    1    -22.62787    2.00000
    2    -21.62500    2.00000
    3    -21.29678    2.00000
    4    -20.42254    2.00000
    5    -20.11262    2.00000
    6    -19.48757    2.00000
    7    -19.05129    2.00000
    8    -18.61412    2.00000
    9    -17.91817    2.00000
   10    -17.29685    2.00000
   11    -16.47873    2.00000
   12    -16.24602    2.00000
   13    -15.72024    2.00000
   14    -15.14129    2.00000
   15    -14.71923    2.00000
   16    -14.28270    2.00000
   17    -14.19300    2.00000
   18    -13.23820    2.00000
   19    -12.87400    2.00000
   20    -12.32355    2.00000
   21    -11.70998    2.00000
   22    -11.39427    2.00000
   23    -11.13312    2.00000
   24    -10.74783    2.00000
   25    -10.40144    2.00000
   26     -9.99338    2.00000
   27     -9.61495    2.00000
   28     -9.30128    2.00000
   29     -9.19052    2.00000
   30     -8.75713    2.00000
   31     -8.44254    2.00000
   32     -8.23712    2.00000
   33     -8.10727    2.00000
   34     -7.73076    2.00000
   35     -7.49234    2.00000
   36     -7.16402    2.00000
   37     -6.93328    2.00000
   38     -6.86692    2.00000
   39     -6.69738    2.00000
   40     -6.39227    2.00000
   41     -6.23819    2.00000
   42     -5.72758    2.00000
   43     -5.61011    1.99999
   44     -5.41492    1.99996
   45     -5.31575    1.99990
   46     -4.95265    1.99619
   47     -4.43055    1.47802
   48     -4.20435    0.45548
   49     -3.98707    0.06497
   50     -3.70554    0.00401
   51     -3.58752    0.00123
   52     -3.39963    0.00019
   53     -3.22134    0.00003
   54     -3.07951    0.00001
   55     -3.01100    0.00000
   56     -2.32563    0.00000
   57     -2.03175    0.00000
   58     -1.76034    0.00000
   59     -1.70294    0.00000
   60     -1.51708    0.00000
   61     -0.86130    0.00000
   62     -0.46671    0.00000
   63     -0.16223    0.00000
   64      0.70035    0.00000
   65      0.96867    0.00000
   66      1.09370    0.00000
   67      1.35204    0.00000
   68      1.75439    0.00000
   69      2.63688    0.00000
   70      3.25501    0.00000
   71      4.05123    0.00000
   72      4.14103    0.00000
   73      4.81469    0.00000
   74      5.07833    0.00000
   75      5.34006    0.00000
   76      5.61593    0.00000
   77      6.16225    0.00000
   78      6.25968    0.00000
   79      7.08744    0.00000
   80      7.37267    0.00000
   81      7.94699    0.00000
   82      7.97577    0.00000
   83      8.44432    0.00000
   84      8.46976    0.00000
   85      8.60749    0.00000
   86      8.79125    0.00000
   87      8.82948    0.00000
   88      8.92141    0.00000
   89      9.18952    0.00000
   90      9.30066    0.00000
   91      9.50056    0.00000
   92      9.58265    0.00000
   93      9.75232    0.00000
   94      9.81431    0.00000
   95      9.96976    0.00000
   96     10.08747    0.00000
   97     10.16239    0.00000


Forces in eV/Ang:
  0 C    -0.78013   -0.01377   -0.85669
  1 C    -0.26561    1.27388   -1.14986
  2 C    -0.15462    0.53394   -2.76413
  3 C    -0.78613   -0.19265    0.08812
  4 C    -1.59918    3.78150    1.83738
  5 C     1.85454    1.10951    1.37714
  6 C     2.88396    0.77145   -0.84561
  7 C    -0.99396   -0.02980   -0.65125
  8 C    -1.15063    0.15516    1.76276
  9 C    -0.45159   -0.89035   -0.07707
 10 C     0.41877   -0.20606    0.22615
 11 C     0.03688   -0.25964    0.04668
 12 C     1.84019   -0.02681    0.19603
 13 C     2.08710    0.78638    1.69010
 14 C     0.71742    1.12825   -0.22593
 15 C     0.17302   -3.27849   -1.22804
 16 C    -0.43078   -1.68477    1.52460
 17 C    -0.25724    0.37259   -1.11593
 18 C    -0.85444   -0.28537    0.72690
 19 C     0.30430    0.59596   -0.44315
 20 C    -0.27642   -0.01686    0.04010
 21 C    -0.83597    0.44453   -2.04930
 22 C    -0.07176    0.24846    0.03157
 23 C    -1.48181   -4.28371    1.80019

System changes: positions 

Initializing position-dependent things.

Density initialized from wave functions
           .--------------------------------------.  
          /|                                      |  
         / |                                      |  
        /  |                                      |  
       /   |                                      |  
      /    |                                      |  
     /     |                                      |  
    /      |                                      |  
   /       |                                      |  
  /        |           C        C                 |  
 *         |     C  CC    C  C   C                |  
 |         |  C C       C  C   C                  |  
 |         .------C--CC--C----C-------------------.  
 |        /              C  C                    /   
 |       /                 C                    /    
 |      /                                      /     
 |     /                                      /      
 |    /                                      /       
 |   /                                      /        
 |  /                                      /         
 | /                                      /          
 |/                                      /           
 *--------------------------------------*            

Positions:
   0 C      7.501306    7.454909    5.465284
   1 C      7.236355    6.102558    5.431845
   2 C      8.752071    8.045986    5.069207
   3 C      6.555997   10.043224    5.226566
   4 C      9.585047    3.604421    4.494589
   5 C      9.698794    5.776200    4.793104
   6 C      8.367635    5.218833    5.064619
   7 C      7.778644   10.173638    4.966265
   8 C      8.970149    9.449794    4.900971
   9 C      5.495375    9.077067    5.460288
  10 C      6.166391    7.811958    5.597736
  11 C      4.071228    9.103953    5.529904
  12 C      9.955948   10.642670    5.605940
  13 C     10.502447    9.459594    5.272234
  14 C      3.527323    6.819500    5.866829
  15 C      8.587312    4.363832    6.239209
  16 C      7.309606    4.061341    6.418379
  17 C     10.722444    5.844857    6.429209
  18 C      6.002103    4.117970    6.469217
  19 C     11.296825    7.015558    6.372204
  20 C      4.857690    4.670545    6.330038
  21 C     10.934320    8.060197    5.447871
  22 C      3.952221    5.619954    6.127156
  23 C      9.901777    7.350950    4.637227

Unit cell:
           periodic     x           y           z      points  spacing
  1. axis:    yes   16.000000    0.000000    0.000000    80     0.2000
  2. axis:    yes    0.000000   16.000000    0.000000    80     0.2000
  3. axis:    yes    0.000000    0.000000   10.000000    48     0.2083

Effective grid spacing dv^(1/3) = 0.2027

                     log10-error:    total        iterations:
           time      wfs    density  energy       fermi  poisson
iter:   1  10:13:24          +inf  -163.389002    2      5      
iter:   2  10:13:25         -1.92  -163.323195    2      2      
iter:   3  10:13:25         -2.16  -163.300524    3      2      
iter:   4  10:13:26         -2.33  -163.288012    3      2      
iter:   5  10:13:27         -2.57  -163.286317    2      2      
iter:   6  10:13:27         -2.65  -163.284504    3      2      
iter:   7  10:13:28         -2.84  -163.285572    2      2      
iter:   8  10:13:28         -3.07  -163.284315    2      1      
iter:   9  10:13:29         -3.21  -163.284676    2      1      
iter:  10  10:13:29         -3.36  -163.285166    2      1      
iter:  11  10:13:30         -3.55  -163.285443    2      1      
iter:  12  10:13:30         -3.73  -163.286001    2      1      
iter:  13  10:13:31         -3.84  -163.285765    2      1      
iter:  14  10:13:31         -3.94  -163.285400    2      1      
iter:  15  10:13:32         -4.05  -163.285493    2      1      

Converged after 15 iterations.

Dipole moment: (0.288343, -0.323734, -0.247991) |e|*Ang

Energy contributions relative to reference atoms: (reference = -24663.074771)

Kinetic:        +98.090500
Potential:     -104.140134
External:        +0.000000
XC:            -159.942162
Entropy (-ST):   -0.257949
Local:           +2.835278
--------------------------
Free energy:   -163.414468
Extrapolated:  -163.285493

Fermi level: -4.33391

 Band  Eigenvalues  Occupancy
    0    -23.81787    2.00000
    1    -22.53295    2.00000
    2    -21.64538    2.00000
    3    -21.28108    2.00000
    4    -20.41757    2.00000
    5    -20.13499    2.00000
    6    -19.51883    2.00000
    7    -19.06389    2.00000
    8    -18.60516    2.00000
    9    -17.96143    2.00000
   10    -17.28979    2.00000
   11    -16.52244    2.00000
   12    -16.26864    2.00000
   13    -15.75102    2.00000
   14    -15.21171    2.00000
   15    -14.65885    2.00000
   16    -14.28326    2.00000
   17    -14.16856    2.00000
   18    -13.29120    2.00000
   19    -12.91793    2.00000
   20    -12.29624    2.00000
   21    -11.71715    2.00000
   22    -11.45612    2.00000
   23    -11.14109    2.00000
   24    -10.67935    2.00000
   25    -10.41454    2.00000
   26     -9.98913    2.00000
   27     -9.62009    2.00000
   28     -9.31812    2.00000
   29     -9.18918    2.00000
   30     -8.79629    2.00000
   31     -8.45844    2.00000
   32     -8.22928    2.00000
   33     -8.13860    2.00000
   34     -7.77685    2.00000
   35     -7.51141    2.00000
   36     -7.19921    2.00000
   37     -6.96949    2.00000
   38     -6.89158    2.00000
   39     -6.68703    2.00000
   40     -6.39531    2.00000
   41     -6.28490    2.00000
   42     -5.75416    2.00000
   43     -5.64287    2.00000
   44     -5.41888    1.99996
   45     -5.33608    1.99991
   46     -4.98884    1.99714
   47     -4.43350    1.46052
   48     -4.21983    0.48436
   49     -3.97388    0.05318
   50     -3.70334    0.00365
   51     -3.58620    0.00113
   52     -3.36110    0.00012
   53     -3.20220    0.00002
   54     -2.99410    0.00000
   55     -2.95828    0.00000
   56     -2.21411    0.00000
   57     -1.93126    0.00000
   58     -1.68347    0.00000
   59     -1.64864    0.00000
   60     -1.48782    0.00000
   61     -0.84219    0.00000
   62     -0.47686    0.00000
   63     -0.20052    0.00000
   64      0.75216    0.00000
   65      0.94196    0.00000
   66      1.08081    0.00000
   67      1.37242    0.00000
   68      1.86604    0.00000
   69      2.64423    0.00000
   70      3.25389    0.00000
   71      4.14299    0.00000
   72      4.20418    0.00000
   73      4.99546    0.00000
   74      5.17820    0.00000
   75      5.42681    0.00000
   76      5.84181    0.00000
   77      6.19902    0.00000
   78      6.27971    0.00000
   79      7.07466    0.00000
   80      7.33831    0.00000
   81      7.95950    0.00000
   82      8.00281    0.00000
   83      8.46028    0.00000
   84      8.49711    0.00000
   85      8.58678    0.00000
   86      8.81424    0.00000
   87      8.82436    0.00000
   88      8.94699    0.00000
   89      9.17776    0.00000
   90      9.27767    0.00000
   91      9.47540    0.00000
   92      9.58218    0.00000
   93      9.76373    0.00000
   94      9.80904    0.00000
   95      9.96718    0.00000
   96     10.08119    0.00000
   97     10.15614    0.00000


Forces in eV/Ang:
  0 C    -0.32343    0.19206   -0.97970
  1 C    -0.04676    0.73698   -1.18233
  2 C    -0.38368    0.37996   -2.47703
  3 C    -0.78806   -0.22416    0.04599
  4 C    -1.72190    3.76776    1.94251
  5 C     1.78010    0.97683    1.67335
  6 C     2.32277    0.60427   -0.53281
  7 C    -1.02433   -0.02064   -0.54634
  8 C    -0.83664    0.34769    1.68443
  9 C    -0.38750   -0.83104   -0.04832
 10 C     0.19160   -0.18995    0.20583
 11 C    -0.08109   -0.29001    0.05042
 12 C     1.62788   -0.08709    0.12278
 13 C     1.77884    0.38913    1.41694
 14 C     0.86625    0.83154   -0.16207
 15 C    -0.02363   -3.12916   -1.52164
 16 C    -0.36647   -1.53010    1.29533
 17 C    -0.21917    0.48366   -1.18104
 18 C    -0.24502   -0.39494    0.73342
 19 C     0.27161    0.50696   -0.49131
 20 C    -0.51303    0.14673    0.03205
 21 C    -0.61579    0.09986   -1.67197
 22 C    -0.16801    0.53811   -0.04332
 23 C    -1.16995   -3.28258    1.55496

System changes: positions 

Initializing position-dependent things.

Density initialized from wave functions
           .--------------------------------------.  
          /|                                      |  
         / |                                      |  
        /  |                                      |  
       /   |                                      |  
      /    |                                      |  
     /     |                                      |  
    /      |                                      |  
   /       |                                      |  
  /        |           C        C                 |  
 *         |     C  CC    C  C   C                |  
 |         |  C C       C  C   C                  |  
 |         .------C--CC--C----C-------------------.  
 |        /              C  C                    /   
 |       /                 C                    /    
 |      /                                      /     
 |     /                                      /      
 |    /                                      /       
 |   /                                      /        
 |  /                                      /         
 | /                                      /          
 |/                                      /           
 *--------------------------------------*            

Positions:
   0 C      7.499012    7.456652    5.456566
   1 C      7.236738    6.107387    5.421530
   2 C      8.749117    8.048702    5.048769
   3 C      6.549201   10.041202    5.226737
   4 C      9.569608    3.637021    4.511878
   5 C      9.713963    5.784366    4.808918
   6 C      8.385406    5.223153    5.061326
   7 C      7.769769   10.173469    4.962019
   8 C      8.964390    9.453975    4.915115
   9 C      5.492021    9.070192    5.460015
  10 C      6.167544    7.810120    5.599469
  11 C      4.070047    9.101281    5.530361
  12 C      9.968998   10.641820    5.606719
  13 C     10.516328    9.460660    5.283124
  14 C      3.535053    6.826682    5.865424
  15 C      8.587609    4.337719    6.224553
  16 C      7.305546    4.048308    6.428854
  17 C     10.720673    5.849514    6.418753
  18 C      6.001358    4.114621    6.475460
  19 C     11.299058    7.019578    6.367713
  20 C      4.853235    4.672081    6.330391
  21 C     10.929733    8.059458    5.434810
  22 C      3.950880    5.624557    6.126722
  23 C      9.892861    7.327215    4.649918

Unit cell:
           periodic     x           y           z      points  spacing
  1. axis:    yes   16.000000    0.000000    0.000000    80     0.2000
  2. axis:    yes    0.000000   16.000000    0.000000    80     0.2000
  3. axis:    yes    0.000000    0.000000   10.000000    48     0.2083

Effective grid spacing dv^(1/3) = 0.2027

                     log10-error:    total        iterations:
           time      wfs    density  energy       fermi  poisson
iter:   1  10:13:34          +inf  -164.144082    2      5      
iter:   2  10:13:35         -1.96  -164.086048    2      2      
iter:   3  10:13:35         -2.20  -164.067087    2      2      
iter:   4  10:13:36         -2.40  -164.057569    2      2      
iter:   5  10:13:36         -2.62  -164.052935    2      1      
iter:   6  10:13:37         -2.70  -164.054996    3      2      
iter:   7  10:13:37         -2.99  -164.055442    2      1      
iter:   8  10:13:38         -3.10  -164.055886    2      2      
iter:   9  10:13:38         -3.37  -164.056293    2      1      
iter:  10  10:13:39         -3.42  -164.055854    2      1      
iter:  11  10:13:40         -3.62  -164.055193    2      1      
iter:  12  10:13:40         -3.85  -164.056090    2      1      
iter:  13  10:13:41         -3.95  -164.056488    2      1      
iter:  14  10:13:41         -4.17  -164.055735    1      1      

Converged after 14 iterations.

Dipole moment: (0.275152, -0.324345, -0.237104) |e|*Ang

Energy contributions relative to reference atoms: (reference = -24663.074771)

Kinetic:        +97.280254
Potential:     -103.765480
External:        +0.000000
XC:            -160.283327
Entropy (-ST):   -0.258976
Local:           +2.842305
--------------------------
Free energy:   -164.185223
Extrapolated:  -164.055735

Fermi level: -4.34199

 Band  Eigenvalues  Occupancy
    0    -23.75699    2.00000
    1    -22.46914    2.00000
    2    -21.66630    2.00000
    3    -21.26728    2.00000
    4    -20.41034    2.00000
    5    -20.15509    2.00000
    6    -19.54408    2.00000
    7    -19.10405    2.00000
    8    -18.60286    2.00000
    9    -17.99043    2.00000
   10    -17.29338    2.00000
   11    -16.58934    2.00000
   12    -16.28697    2.00000
   13    -15.78247    2.00000
   14    -15.26098    2.00000
   15    -14.62451    2.00000
   16    -14.28288    2.00000
   17    -14.14122    2.00000
   18    -13.34790    2.00000
   19    -12.95398    2.00000
   20    -12.27822    2.00000
   21    -11.71431    2.00000
   22    -11.49728    2.00000
   23    -11.14064    2.00000
   24    -10.62986    2.00000
   25    -10.43376    2.00000
   26     -9.97494    2.00000
   27     -9.61872    2.00000
   28     -9.32819    2.00000
   29     -9.17808    2.00000
   30     -8.82595    2.00000
   31     -8.48567    2.00000
   32     -8.22705    2.00000
   33     -8.16832    2.00000
   34     -7.82764    2.00000
   35     -7.53312    2.00000
   36     -7.23245    2.00000
   37     -7.00565    2.00000
   38     -6.91069    2.00000
   39     -6.67759    2.00000
   40     -6.41060    2.00000
   41     -6.32475    2.00000
   42     -5.77842    2.00000
   43     -5.66843    2.00000
   44     -5.42686    1.99996
   45     -5.35549    1.99992
   46     -5.01249    1.99755
   47     -4.43691    1.44189
   48     -4.23525    0.51177
   49     -3.96343    0.04438
   50     -3.70397    0.00338
   51     -3.58656    0.00105
   52     -3.32543    0.00008
   53     -3.18335    0.00002
   54     -2.96144    0.00000
   55     -2.87098    0.00000
   56     -2.10058    0.00000
   57     -1.83109    0.00000
   58     -1.65945    0.00000
   59     -1.56015    0.00000
   60     -1.43047    0.00000
   61     -0.81795    0.00000
   62     -0.48548    0.00000
   63     -0.20806    0.00000
   64      0.80683    0.00000
   65      0.91774    0.00000
   66      1.05032    0.00000
   67      1.40924    0.00000
   68      1.99393    0.00000
   69      2.66617    0.00000
   70      3.22417    0.00000
   71      4.13772    0.00000
   72      4.33104    0.00000
   73      5.04100    0.00000
   74      5.24971    0.00000
   75      5.58015    0.00000
   76      6.04120    0.00000
   77      6.21409    0.00000
   78      6.35053    0.00000
   79      7.09095    0.00000
   80      7.32438    0.00000
   81      7.96307    0.00000
   82      8.04667    0.00000
   83      8.45376    0.00000
   84      8.53917    0.00000
   85      8.56553    0.00000
   86      8.79688    0.00000
   87      8.82877    0.00000
   88      8.96419    0.00000
   89      9.17259    0.00000
   90      9.25449    0.00000
   91      9.45623    0.00000
   92      9.58263    0.00000
   93      9.76548    0.00000
   94      9.80496    0.00000
   95      9.96340    0.00000
   96     10.07811    0.00000
   97     10.14668    0.00000


Forces in eV/Ang:
  0 C    -0.09627    0.30098   -1.05417
  1 C     0.11462    0.37528   -1.19777
  2 C    -0.44752    0.28067   -2.24872
  3 C    -0.86408   -0.25658    0.03441
  4 C    -1.84127    3.72435    2.06386
  5 C     1.68471    0.75870    1.95179
  6 C     1.84836    0.40053   -0.27915
  7 C    -0.93610   -0.02488   -0.50317
  8 C    -0.60203    0.48058    1.55726
  9 C    -0.34980   -0.76778   -0.02632
 10 C     0.08312   -0.21122    0.18033
 11 C    -0.16916   -0.32013    0.05458
 12 C     1.44819   -0.09948    0.05807
 13 C     1.57163    0.07019    1.20617
 14 C     0.89941    0.89383   -0.15150
 15 C    -0.17764   -2.99068   -1.74959
 16 C     0.07061   -1.42400    1.07560
 17 C    -0.20739    0.54828   -1.25434
 18 C    -0.59185   -0.22356    0.68239
 19 C     0.26873    0.42413   -0.50482
 20 C    -0.19508    0.03971    0.08290
 21 C    -0.46714   -0.10550   -1.42151
 22 C    -0.12445    0.45987   -0.03097
 23 C    -0.92317   -2.38166    1.34283

System changes: positions 

Initializing position-dependent things.

Density initialized from wave functions
           .--------------------------------------.  
          /|                                      |  
         / |                                      |  
        /  |                                      |  
       /   |                                      |  
      /    |                                      |  
     /     |                                      |  
    /      |                                      |  
   /       |                                      |  
  /        |           C        C                 |  
 *         |     C  CC    C  C   C                |  
 |         |  C C       C  C   C                  |  
 |         .------C--CC--C----C-------------------.  
 |        /              C  C                    /   
 |       /                 C                    /    
 |      /                                      /     
 |     /                                      /      
 |    /                                      /       
 |   /                                      /        
 |  /                                      /         
 | /                                      /          
 |/                                      /           
 *--------------------------------------*            

Positions:
   0 C      7.496793    7.458130    5.447614
   1 C      7.237821    6.110971    5.411388
   2 C      8.746705    8.051541    5.029888
   3 C      6.542386   10.039099    5.226798
   4 C      9.553447    3.668853    4.529920
   5 C      9.728092    5.789967    4.826737
   6 C      8.400318    5.225992    5.058651
   7 C      7.761629   10.173155    4.957957
   8 C      8.959488    9.458378    4.928069
   9 C      5.488712    9.063748    5.459906
  10 C      6.168489    7.808086    5.600937
  11 C      4.068327    9.098399    5.530844
  12 C      9.980867   10.640766    5.607002
  13 C     10.529258    9.460356    5.292852
  14 C      3.542732    6.835118    5.864027
  15 C      8.588141    4.312639    6.209188
  16 C      7.303282    4.035734    6.437928
  17 C     10.718779    5.854114    6.407773
  18 C      5.997453    4.112918    6.481088
  19 C     11.301621    7.022863    6.363565
  20 C      4.851989    4.672491    6.331190
  21 C     10.926012    8.058173    5.423273
  22 C      3.950274    5.627620    6.126607
  23 C      9.885657    7.310144    4.660634

Unit cell:
           periodic     x           y           z      points  spacing
  1. axis:    yes   16.000000    0.000000    0.000000    80     0.2000
  2. axis:    yes    0.000000   16.000000    0.000000    80     0.2000
  3. axis:    yes    0.000000    0.000000   10.000000    48     0.2083

Effective grid spacing dv^(1/3) = 0.2027

                     log10-error:    total        iterations:
           time      wfs    density  energy       fermi  poisson
iter:   1  10:13:43          +inf  -164.820610    2      5      
iter:   2  10:13:44         -1.97  -164.762167    2      2      
iter:   3  10:13:44         -2.22  -164.743288    2      2      
iter:   4  10:13:45         -2.43  -164.735362    2      2      
iter:   5  10:13:45         -2.64  -164.734169    2      2      
iter:   6  10:13:46         -2.74  -164.733362    2      2      
iter:   7  10:13:47         -3.03  -164.729547    2      1      
iter:   8  10:13:47         -3.22  -164.731632    2      1      
iter:   9  10:13:48         -3.35  -164.733221    2      1      
iter:  10  10:13:48         -3.48  -164.732580    2      1      
iter:  11  10:13:49         -3.63  -164.734021    2      1      
iter:  12  10:13:49         -3.77  -164.733768    1      1      
iter:  13  10:13:50         -3.88  -164.733292    2      1      
iter:  14  10:13:50         -4.02  -164.733574    2      1      

Converged after 14 iterations.

Dipole moment: (0.267892, -0.325148, -0.222435) |e|*Ang

Energy contributions relative to reference atoms: (reference = -24663.074771)

Kinetic:        +96.579563
Potential:     -103.406720
External:        +0.000000
XC:            -160.619358
Entropy (-ST):   -0.259184
Local:           +2.842533
--------------------------
Free energy:   -164.863166
Extrapolated:  -164.733574

Fermi level: -4.35149

 Band  Eigenvalues  Occupancy
    0    -23.71284    2.00000
    1    -22.43308    2.00000
    2    -21.69524    2.00000
    3    -21.25545    2.00000
    4    -20.41249    2.00000
    5    -20.18075    2.00000
    6    -19.56474    2.00000
    7    -19.12401    2.00000
    8    -18.60732    2.00000
    9    -18.01423    2.00000
   10    -17.30330    2.00000
   11    -16.64651    2.00000
   12    -16.30686    2.00000
   13    -15.80533    2.00000
   14    -15.29211    2.00000
   15    -14.60638    2.00000
   16    -14.28736    2.00000
   17    -14.11484    2.00000
   18    -13.41152    2.00000
   19    -12.98416    2.00000
   20    -12.26899    2.00000
   21    -11.71357    2.00000
   22    -11.52240    2.00000
   23    -11.14163    2.00000
   24    -10.59468    2.00000
   25    -10.45968    2.00000
   26     -9.95948    2.00000
   27     -9.61766    2.00000
   28     -9.33910    2.00000
   29     -9.16577    2.00000
   30     -8.85287    2.00000
   31     -8.52833    2.00000
   32     -8.23026    2.00000
   33     -8.19561    2.00000
   34     -7.88231    2.00000
   35     -7.54781    2.00000
   36     -7.26248    2.00000
   37     -7.03717    2.00000
   38     -6.91596    2.00000
   39     -6.66778    2.00000
   40     -6.42090    2.00000
   41     -6.35365    2.00000
   42     -5.80385    2.00000
   43     -5.69353    2.00000
   44     -5.44590    1.99996
   45     -5.37093    1.99993
   46     -5.03962    1.99795
   47     -4.44283    1.42740
   48     -4.25039    0.53357
   49     -3.95471    0.03713
   50     -3.70219    0.00302
   51     -3.58947    0.00098
   52     -3.29272    0.00005
   53     -3.15137    0.00001
   54     -2.93171    0.00000
   55     -2.78985    0.00000
   56     -1.99271    0.00000
   57     -1.74201    0.00000
   58     -1.64408    0.00000
   59     -1.48600    0.00000
   60     -1.32894    0.00000
   61     -0.78553    0.00000
   62     -0.50785    0.00000
   63     -0.21311    0.00000
   64      0.82342    0.00000
   65      0.92512    0.00000
   66      1.00515    0.00000
   67      1.44023    0.00000
   68      2.12930    0.00000
   69      2.70081    0.00000
   70      3.18921    0.00000
   71      4.13806    0.00000
   72      4.42609    0.00000
   73      5.05681    0.00000
   74      5.27821    0.00000
   75      5.72642    0.00000
   76      6.11932    0.00000
   77      6.28921    0.00000
   78      6.43968    0.00000
   79      7.09104    0.00000
   80      7.30546    0.00000
   81      7.97073    0.00000
   82      8.06249    0.00000
   83      8.44404    0.00000
   84      8.53365    0.00000
   85      8.58430    0.00000
   86      8.78932    0.00000
   87      8.83965    0.00000
   88      8.97336    0.00000
   89      9.17783    0.00000
   90      9.23480    0.00000
   91      9.43799    0.00000
   92      9.57569    0.00000
   93      9.76471    0.00000
   94      9.80234    0.00000
   95      9.95761    0.00000
   96     10.07624    0.00000
   97     10.14409    0.00000


Forces in eV/Ang:
  0 C     0.10852    0.38405   -1.10561
  1 C     0.25277    0.09011   -1.17815
  2 C    -0.52767    0.21569   -1.96841
  3 C    -0.87303   -0.26889    0.00733
  4 C    -1.95242    3.68056    2.15421
  5 C     1.62896    0.58350    2.17915
  6 C     1.46300    0.25821   -0.13038
  7 C    -0.88880   -0.00601   -0.42572
  8 C    -0.46328    0.58383    1.48291
  9 C    -0.34238   -0.72261   -0.00516
 10 C    -0.02613   -0.21922    0.15370
 11 C    -0.24421   -0.35472    0.06017
 12 C     1.27902   -0.16660   -0.00972
 13 C     1.39728   -0.14983    1.04895
 14 C     1.00466    0.74263   -0.10584
 15 C    -0.29848   -2.88638   -1.88726
 16 C     0.23502   -1.32007    0.90011
 17 C    -0.21517    0.60477   -1.33147
 18 C    -0.30461   -0.25119    0.66846
 19 C     0.25438    0.33902   -0.51448
 20 C    -0.30726    0.15563    0.07769
 21 C    -0.28772   -0.22477   -1.13138
 22 C    -0.13218    0.57650   -0.06049
 23 C    -0.73254   -1.65365    1.10818

System changes: positions 

Initializing position-dependent things.

Density initialized from wave functions
           .--------------------------------------.  
          /|                                      |  
         / |                                      |  
        /  |                                      |  
       /   |                                      |  
      /    |                                      |  
     /     |                                      |  
    /      |                                      |  
   /       |                                      |  
  /        |           C        C                 |  
 *         |     C  CC    C  C   C                |  
 |         |  C C       C  C   C                  |  
 |         .------C--CC--C----C-------------------.  
 |        /              C  C                    /   
 |       /                 C                    /    
 |      /                                      /     
 |     /                                      /      
 |    /                                      /       
 |   /                                      /        
 |  /                                      /         
 | /                                      /          
 |/                                      /           
 *--------------------------------------*            

Positions:
   0 C      7.494888    7.459325    5.438604
   1 C      7.239489    6.113844    5.401744
   2 C      8.744270    8.054583    5.013196
   3 C      6.535884   10.037052    5.226639
   4 C      9.536608    3.700059    4.548430
   5 C      9.741715    5.793887    4.845887
   6 C      8.413227    5.227992    5.055904
   7 C      7.753997   10.172990    4.954458
   8 C      8.954610    9.462937    4.940480
   9 C      5.485170    9.057575    5.459945
  10 C      6.169082    7.805990    5.602158
  11 C      4.066233    9.095263    5.531369
  12 C      9.991690   10.638904    5.606763
  13 C     10.541428    9.459555    5.301951
  14 C      3.551167    6.842374    5.863002
  15 C      8.588312    4.288104    6.193850
  16 C      7.301547    4.023786    6.445951
  17 C     10.716590    5.858716    6.396234
  18 C      5.996309    4.110811    6.486576
  19 C     11.304274    7.025469    6.359664
  20 C      4.849390    4.674088    6.331840
  21 C     10.923526    8.057081    5.413680
  22 C      3.949775    5.631415    6.126322
  23 C      9.879532    7.297545    4.669327

Unit cell:
           periodic     x           y           z      points  spacing
  1. axis:    yes   16.000000    0.000000    0.000000    80     0.2000
  2. axis:    yes    0.000000   16.000000    0.000000    80     0.2000
  3. axis:    yes    0.000000    0.000000   10.000000    48     0.2083

Effective grid spacing dv^(1/3) = 0.2027

                     log10-error:    total        iterations:
           time      wfs    density  energy       fermi  poisson
iter:   1  10:13:52          +inf  -165.433133    3      5      
iter:   2  10:13:53         -1.99  -165.378161    2      2      
iter:   3  10:13:54         -2.24  -165.359084    2      2      
iter:   4  10:13:54         -2.46  -165.352254    2      2      
iter:   5  10:13:55         -2.65  -165.350756    2      2      
iter:   6  10:13:55         -2.76  -165.350269    2      2      
iter:   7  10:13:56         -3.04  -165.346510    2      1      
iter:   8  10:13:56         -3.21  -165.348293    2      1      
iter:   9  10:13:57         -3.33  -165.349381    2      1      
iter:  10  10:13:57         -3.50  -165.349015    2      1      
iter:  11  10:13:58         -3.62  -165.350731    2      1      
iter:  12  10:13:58         -3.73  -165.350689    2      1      
iter:  13  10:13:59         -3.87  -165.349958    2      1      
iter:  14  10:14:00         -4.04  -165.350366    2      1      

Converged after 14 iterations.

Dipole moment: (0.259810, -0.324534, -0.205218) |e|*Ang

Energy contributions relative to reference atoms: (reference = -24663.074771)

Kinetic:        +96.055318
Potential:     -103.134494
External:        +0.000000
XC:            -160.986362
Entropy (-ST):   -0.259503
Local:           +2.844925
--------------------------
Free energy:   -165.480117
Extrapolated:  -165.350366

Fermi level: -4.36225

 Band  Eigenvalues  Occupancy
    0    -23.67746    2.00000
    1    -22.41214    2.00000
    2    -21.72620    2.00000
    3    -21.24572    2.00000
    4    -20.41297    2.00000
    5    -20.20742    2.00000
    6    -19.58337    2.00000
    7    -19.15388    2.00000
    8    -18.61656    2.00000
    9    -18.03008    2.00000
   10    -17.31869    2.00000
   11    -16.70910    2.00000
   12    -16.32477    2.00000
   13    -15.82942    2.00000
   14    -15.31570    2.00000
   15    -14.59859    2.00000
   16    -14.29066    2.00000
   17    -14.09003    2.00000
   18    -13.47742    2.00000
   19    -13.00657    2.00000
   20    -12.26583    2.00000
   21    -11.71306    2.00000
   22    -11.53286    2.00000
   23    -11.14203    2.00000
   24    -10.57241    2.00000
   25    -10.48258    2.00000
   26     -9.94321    2.00000
   27     -9.61441    2.00000
   28     -9.34904    2.00000
   29     -9.14773    2.00000
   30     -8.87338    2.00000
   31     -8.58133    2.00000
   32     -8.24997    2.00000
   33     -8.20935    2.00000
   34     -7.93802    2.00000
   35     -7.56410    2.00000
   36     -7.28980    2.00000
   37     -7.06515    2.00000
   38     -6.92117    2.00000
   39     -6.65497    2.00000
   40     -6.43573    2.00000
   41     -6.37723    2.00000
   42     -5.82569    2.00000
   43     -5.71922    2.00000
   44     -5.47658    1.99997
   45     -5.37833    1.99992
   46     -5.06237    1.99818
   47     -4.45026    1.41366
   48     -4.26619    0.55349
   49     -3.94739    0.03108
   50     -3.70290    0.00273
   51     -3.59410    0.00092
   52     -3.25959    0.00003
   53     -3.11713    0.00001
   54     -2.90070    0.00000
   55     -2.71500    0.00000
   56     -1.89715    0.00000
   57     -1.66547    0.00000
   58     -1.62696    0.00000
   59     -1.41918    0.00000
   60     -1.21821    0.00000
   61     -0.73062    0.00000
   62     -0.52088    0.00000
   63     -0.20545    0.00000
   64      0.81264    0.00000
   65      0.95546    0.00000
   66      0.96456    0.00000
   67      1.48961    0.00000
   68      2.26260    0.00000
   69      2.75631    0.00000
   70      3.16010    0.00000
   71      4.13566    0.00000
   72      4.49932    0.00000
   73      5.06493    0.00000
   74      5.29527    0.00000
   75      5.84163    0.00000
   76      6.12594    0.00000
   77      6.37750    0.00000
   78      6.55257    0.00000
   79      7.09866    0.00000
   80      7.29743    0.00000
   81      7.98018    0.00000
   82      8.08174    0.00000
   83      8.43511    0.00000
   84      8.51300    0.00000
   85      8.61292    0.00000
   86      8.77400    0.00000
   87      8.83931    0.00000
   88      8.97729    0.00000
   89      9.18199    0.00000
   90      9.22404    0.00000
   91      9.42063    0.00000
   92      9.55511    0.00000
   93      9.76544    0.00000
   94      9.79948    0.00000
   95      9.95628    0.00000
   96     10.07260    0.00000
   97     10.14229    0.00000


Forces in eV/Ang:
  0 C     0.25373    0.44914   -1.16107
  1 C     0.37724   -0.13321   -1.18631
  2 C    -0.57298    0.17984   -1.80043
  3 C    -0.89875   -0.27810   -0.01073
  4 C    -2.07142    3.58576    2.25440
  5 C     1.57881    0.42871    2.39515
  6 C     1.12144    0.13018   -0.00728
  7 C    -0.86082    0.02857   -0.34375
  8 C    -0.30932    0.67890    1.35408
  9 C    -0.32298   -0.67710    0.01176
 10 C    -0.11374   -0.22780    0.12526
 11 C    -0.31593   -0.39177    0.06849
 12 C     1.10864   -0.20724   -0.06089
 13 C     1.28403   -0.31804    0.91213
 14 C     1.03507    0.73259   -0.08831
 15 C    -0.38361   -2.76053   -2.00970
 16 C     0.43782   -1.25145    0.76438
 17 C    -0.22270    0.63753   -1.40779
 18 C    -0.39839   -0.15450    0.62844
 19 C     0.24026    0.26881   -0.51470
 20 C    -0.11404    0.10037    0.11073
 21 C    -0.15433   -0.32437   -0.92486
 22 C    -0.12885    0.58933   -0.06538
 23 C    -0.53945   -1.07274    0.90837

System changes: positions 

Initializing position-dependent things.

Density initialized from wave functions
           .--------------------------------------.  
          /|                                      |  
         / |                                      |  
        /  |                                      |  
       /   |                                      |  
      /    |                                      |  
     /     |                                      |  
    /      |                                      |  
   /       |                                      |  
  /        |           C        C                 |  
 *         |     C  CC    C  C   C                |  
 |         |  C C       C  C   C                  |  
 |         .------C--CC--C----C-------------------.  
 |        /              C  C                    /   
 |       /                 C                    /    
 |      /                                      /     
 |     /                                      /      
 |    /                                      /       
 |   /                                      /        
 |  /                                      /         
 | /                                      /          
 |/                                      /           
 *--------------------------------------*            

Positions:
   0 C      7.493036    7.460408    5.429331
   1 C      7.241714    6.116246    5.392090
   2 C      8.741989    8.057969    4.997205
   3 C      6.529479   10.035064    5.226346
   4 C      9.518888    3.730338    4.567645
   5 C      9.755063    5.796560    4.866426
   6 C      8.424528    5.229356    5.053073
   7 C      7.746377   10.173168    4.951581
   8 C      8.950202    9.467744    4.951849
   9 C      5.481619    9.051625    5.460080
  10 C      6.169396    7.803846    5.603140
  11 C      4.063727    9.091828    5.531971
  12 C     10.001460   10.636650    5.606220
  13 C     10.553496    9.458530    5.310565
  14 C      3.559613    6.849928    5.862045
  15 C      8.588609    4.264308    6.178320
  16 C      7.300216    4.011980    6.453446
  17 C     10.714187    5.863220    6.384088
  18 C      5.994254    4.109534    6.491704
  19 C     11.306949    7.027605    6.355978
  20 C      4.848654    4.675025    6.332768
  21 C     10.921759    8.056055    5.405090
  22 C      3.949365    5.635035    6.126085
  23 C      9.874529    7.287748    4.676575

Unit cell:
           periodic     x           y           z      points  spacing
  1. axis:    yes   16.000000    0.000000    0.000000    80     0.2000
  2. axis:    yes    0.000000   16.000000    0.000000    80     0.2000
  3. axis:    yes    0.000000    0.000000   10.000000    48     0.2083

Effective grid spacing dv^(1/3) = 0.2027

                     log10-error:    total        iterations:
           time      wfs    density  energy       fermi  poisson
iter:   1  10:14:02          +inf  -166.016638    3      5      
iter:   2  10:14:02         -2.00  -165.960523    2      2      
iter:   3  10:14:03         -2.24  -165.940135    2      2      
iter:   4  10:14:03         -2.48  -165.933863    2      2      
iter:   5  10:14:04         -2.65  -165.932071    2      2      
iter:   6  10:14:04         -2.77  -165.931607    2      2      
iter:   7  10:14:05         -3.03  -165.927556    2      1      
iter:   8  10:14:06         -3.21  -165.929487    2      1      
iter:   9  10:14:06         -3.32  -165.930504    2      1      
iter:  10  10:14:07         -3.50  -165.930156    2      1      
iter:  11  10:14:07         -3.62  -165.931991    2      1      
iter:  12  10:14:08         -3.73  -165.931974    2      1      
iter:  13  10:14:08         -3.87  -165.931281    2      1      
iter:  14  10:14:09         -4.03  -165.931706    2      1      

Converged after 14 iterations.

Dipole moment: (0.255693, -0.324049, -0.185743) |e|*Ang

Energy contributions relative to reference atoms: (reference = -24663.074771)

Kinetic:        +95.514061
Potential:     -102.809916
External:        +0.000000
XC:            -161.353444
Entropy (-ST):   -0.259673
Local:           +2.847429
--------------------------
Free energy:   -166.061542
Extrapolated:  -165.931706

Fermi level: -4.37459

 Band  Eigenvalues  Occupancy
    0    -23.64808    2.00000
    1    -22.40594    2.00000
    2    -21.75920    2.00000
    3    -21.24117    2.00000
    4    -20.41857    2.00000
    5    -20.23663    2.00000
    6    -19.59875    2.00000
    7    -19.17400    2.00000
    8    -18.62871    2.00000
    9    -18.04367    2.00000
   10    -17.33888    2.00000
   11    -16.77398    2.00000
   12    -16.34020    2.00000
   13    -15.84528    2.00000
   14    -15.33086    2.00000
   15    -14.59838    2.00000
   16    -14.29506    2.00000
   17    -14.06616    2.00000
   18    -13.54701    2.00000
   19    -13.02442    2.00000
   20    -12.26587    2.00000
   21    -11.71992    2.00000
   22    -11.53359    2.00000
   23    -11.14238    2.00000
   24    -10.57340    2.00000
   25    -10.49218    2.00000
   26     -9.92990    2.00000
   27     -9.61151    2.00000
   28     -9.36242    2.00000
   29     -9.12924    2.00000
   30     -8.89276    2.00000
   31     -8.64041    2.00000
   32     -8.27939    2.00000
   33     -8.21355    2.00000
   34     -7.99323    2.00000
   35     -7.57951    2.00000
   36     -7.31236    2.00000
   37     -7.09020    2.00000
   38     -6.92310    2.00000
   39     -6.63647    2.00000
   40     -6.45031    2.00000
   41     -6.39597    2.00000
   42     -5.84681    2.00000
   43     -5.74667    2.00000
   44     -5.51448    1.99998
   45     -5.37993    1.99991
   46     -5.08734    1.99840
   47     -4.45973    1.40171
   48     -4.28273    0.57047
   49     -3.94216    0.02614
   50     -3.70596    0.00249
   51     -3.60120    0.00088
   52     -3.22514    0.00002
   53     -3.07869    0.00000
   54     -2.86932    0.00000
   55     -2.64503    0.00000
   56     -1.81515    0.00000
   57     -1.63261    0.00000
   58     -1.57374    0.00000
   59     -1.35840    0.00000
   60     -1.11282    0.00000
   61     -0.65897    0.00000
   62     -0.50847    0.00000
   63     -0.19317    0.00000
   64      0.79184    0.00000
   65      0.91065    0.00000
   66      1.00679    0.00000
   67      1.55057    0.00000
   68      2.37516    0.00000
   69      2.83695    0.00000
   70      3.14749    0.00000
   71      4.13900    0.00000
   72      4.55612    0.00000
   73      5.06490    0.00000
   74      5.30677    0.00000
   75      5.93405    0.00000
   76      6.12294    0.00000
   77      6.44222    0.00000
   78      6.66576    0.00000
   79      7.09637    0.00000
   80      7.29567    0.00000
   81      7.99002    0.00000
   82      8.08783    0.00000
   83      8.42486    0.00000
   84      8.48970    0.00000
   85      8.63846    0.00000
   86      8.76337    0.00000
   87      8.83626    0.00000
   88      8.98262    0.00000
   89      9.17669    0.00000
   90      9.22648    0.00000
   91      9.40364    0.00000
   92      9.51974    0.00000
   93      9.76733    0.00000
   94      9.79835    0.00000
   95      9.95974    0.00000
   96     10.06631    0.00000
   97     10.14465    0.00000


Forces in eV/Ang:
  0 C     0.38961    0.49632   -1.21658
  1 C     0.49079   -0.35201   -1.16937
  2 C    -0.58840    0.14240   -1.60806
  3 C    -0.94754   -0.29733   -0.01346
  4 C    -2.15786    3.44819    2.30848
  5 C     1.50829    0.31875    2.56432
  6 C     0.81241    0.04918    0.10846
  7 C    -0.81598    0.04479   -0.29429
  8 C    -0.21906    0.76780    1.30690
  9 C    -0.30015   -0.62454    0.02291
 10 C    -0.18386   -0.23353    0.09802
 11 C    -0.37713   -0.43010    0.07850
 12 C     0.96377   -0.24070   -0.11692
 13 C     1.17344   -0.46031    0.78487
 14 C     1.09764    0.66259   -0.07247
 15 C    -0.49036   -2.64361   -2.09158
 16 C     0.61112   -1.15959    0.60240
 17 C    -0.24186    0.68973   -1.49826
 18 C    -0.26256   -0.14999    0.59549
 19 C     0.22290    0.20159   -0.51102
 20 C    -0.14869    0.17828    0.11033
 21 C    -0.02871   -0.41537   -0.72025
 22 C    -0.09945    0.61758   -0.07454
 23 C    -0.39103   -0.56829    0.72240

System changes: positions 

Initializing position-dependent things.

Density initialized from wave functions
           .--------------------------------------.  
          /|                                      |  
         / |                                      |  
        /  |                                      |  
       /   |                                      |  
      /    |                                      |  
     /     |                                      |  
    /      |                                      |  
   /       |                                      |  
  /        |           C        C                 |  
 *         |     C  CC    C  C   C                |  
 |         |  C C       C  C   C                  |  
 |         .------C--CC--C----C-------------------.  
 |        /              C  C                    /   
 |       /                 C                    /    
 |      /                                      /     
 |     /                                      /      
 |    /                                      /       
[...]
iter:  10  10:26:01         -4.18  -182.675754    2      1      

Converged after 10 iterations.

Dipole moment: (-0.083293, 0.123065, -0.177186) |e|*Ang

Energy contributions relative to reference atoms: (reference = -24663.074771)

Kinetic:       +105.876440
Potential:     -113.594910
External:        +0.000000
XC:            -178.011878
Entropy (-ST):   -0.057989
Local:           +3.083589
--------------------------
Free energy:   -182.704748
Extrapolated:  -182.675754

Fermi level: -4.04865

 Band  Eigenvalues  Occupancy
    0    -23.45701    2.00000
    1    -22.19210    2.00000
    2    -21.21608    2.00000
    3    -20.52020    2.00000
    4    -20.30327    2.00000
    5    -19.86910    2.00000
    6    -19.43394    2.00000
    7    -19.32052    2.00000
    8    -18.57607    2.00000
    9    -18.15418    2.00000
   10    -17.72045    2.00000
   11    -17.17149    2.00000
   12    -16.38694    2.00000
   13    -15.53159    2.00000
   14    -15.44490    2.00000
   15    -14.91461    2.00000
   16    -14.59181    2.00000
   17    -13.48373    2.00000
   18    -13.36521    2.00000
   19    -13.17779    2.00000
   20    -12.94455    2.00000
   21    -12.31143    2.00000
   22    -12.22530    2.00000
   23    -11.78506    2.00000
   24    -11.43693    2.00000
   25    -10.71953    2.00000
   26    -10.45335    2.00000
   27     -9.83068    2.00000
   28     -9.54666    2.00000
   29     -9.10056    2.00000
   30     -8.94849    2.00000
   31     -8.89439    2.00000
   32     -8.53108    2.00000
   33     -8.34317    2.00000
   34     -8.25273    2.00000
   35     -7.83045    2.00000
   36     -7.70180    2.00000
   37     -7.19102    2.00000
   38     -7.10266    2.00000
   39     -6.63457    2.00000
   40     -6.54989    2.00000
   41     -6.40390    2.00000
   42     -6.33690    2.00000
   43     -5.87680    2.00000
   44     -5.49420    2.00000
   45     -5.26359    1.99999
   46     -5.03766    1.99990
   47     -4.38932    1.93583
   48     -3.70416    0.06184
   49     -3.37719    0.00242
   50     -2.84845    0.00001
   51     -2.74710    0.00000
   52     -2.59316    0.00000
   53     -2.17284    0.00000
   54     -1.70572    0.00000
   55     -1.34229    0.00000
   56     -0.97503    0.00000
   57     -0.60862    0.00000
   58     -0.43747    0.00000
   59      0.00751    0.00000
   60      0.07457    0.00000
   61      0.66723    0.00000
   62      1.50889    0.00000
   63      1.81472    0.00000
   64      2.87627    0.00000
   65      3.01865    0.00000
   66      3.23552    0.00000
   67      4.45861    0.00000
   68      4.86001    0.00000
   69      5.25472    0.00000
   70      5.32347    0.00000
   71      5.85376    0.00000
   72      6.12258    0.00000
   73      6.37404    0.00000
   74      6.83433    0.00000
   75      7.25971    0.00000
   76      7.40897    0.00000
   77      8.06697    0.00000
   78      8.14826    0.00000
   79      8.28207    0.00000
   80      8.61254    0.00000
   81      8.87415    0.00000
   82      8.96096    0.00000
   83      9.12426    0.00000
   84      9.19774    0.00000
   85      9.29991    0.00000
   86      9.52946    0.00000
   87      9.65862    0.00000
   88      9.76110    0.00000
   89      9.86522    0.00000
   90      9.92948    0.00000
   91      9.94236    0.00000
   92     10.04736    0.00000
   93     10.16424    0.00000
   94     10.34650    0.00000
   95     10.41085    0.00000
   96     10.48241    0.00000
   97     10.60430    0.00000


Forces in eV/Ang:
  0 C     0.01399   -0.04056    0.02036
  1 C    -0.08985    0.04818    0.05204
  2 C     0.05153    0.03704   -0.00902
  3 C     0.00706    0.01469    0.01165
  4 C     0.01309    0.03742   -0.11237
  5 C    -0.06207    0.00650    0.02733
  6 C    -0.02115    0.06697   -0.07050
  7 C    -0.01015    0.03486    0.00801
  8 C    -0.05125   -0.00188   -0.00164
  9 C     0.06286   -0.02844   -0.02268
 10 C     0.03033    0.05596   -0.07411
 11 C     0.05672    0.01651   -0.02740
 12 C     0.02683    0.00901    0.00638
 13 C     0.03303    0.02738    0.03211
 14 C     0.02415    0.00067    0.01783
 15 C    -0.03851   -0.02184    0.03909
 16 C    -0.01726   -0.03012    0.03318
 17 C     0.01408   -0.02240    0.08153
 18 C     0.05620    0.00267   -0.01085
 19 C     0.03480    0.00269   -0.01877
 20 C    -0.00678   -0.01371    0.03991
 21 C    -0.07187   -0.02860   -0.00880
 22 C     0.02102   -0.00707   -0.02715
 23 C    -0.03267   -0.11281   -0.00662

System changes: positions 

Initializing position-dependent things.

Density initialized from wave functions
           .--------------------------------------.  
          /|                                      |  
         / |                                      |  
        /  |                                      |  
       /   |                                      |  
      /    |                                      |  
     /     |                                      |  
    /      |                                      |  
   /       |                                      |  
  /        |             C      C C               |  
 *         | C C C    C      C    C               |  
 |         |  C     C       C  CC                 |  
 |         .----C-C---C--CC--C--------------------.  
 |        /             C                        /   
 |       /                                      /    
 |      /                                      /     
 |     /                                      /      
 |    /                                      /       
 |   /                                      /        
 |  /                                      /         
 | /                                      /          
 |/                                      /           
 *--------------------------------------*            

Positions:
   0 C      7.939779    7.840866    4.152370
   1 C      7.749524    6.487889    4.387100
   2 C      9.026269    8.660727    4.541431
   3 C      6.345309    9.642906    5.253962
   4 C      8.417255    4.411870    5.580656
   5 C     10.025478    6.356327    5.085958
   6 C      8.780692    5.659379    4.982589
   7 C      7.404260   10.316348    5.127517
   8 C      8.807690   10.019446    5.069205
   9 C      5.692103    8.359481    5.204042
  10 C      6.648089    7.510364    4.564014
  11 C      4.568502    7.818766    5.878903
  12 C     10.037775   10.448215    5.582109
  13 C     11.046527    9.704804    5.869321
  14 C      3.871038    6.858207    6.290245
  15 C      7.497695    3.709692    6.061807
  16 C      6.303639    3.254555    6.534930
  17 C     11.281902    6.080992    5.766728
  18 C      5.127464    3.581584    6.856215
  19 C     11.893305    7.139292    6.144450
  20 C      4.041405    4.396719    6.904716
  21 C     11.290160    8.358263    5.644231
  22 C      3.688947    5.606354    6.784952
  23 C     10.122886    7.852153    4.881892

Unit cell:
           periodic     x           y           z      points  spacing
  1. axis:    yes   16.000000    0.000000    0.000000    80     0.2000
  2. axis:    yes    0.000000   16.000000    0.000000    80     0.2000
  3. axis:    yes    0.000000    0.000000   10.000000    48     0.2083

Effective grid spacing dv^(1/3) = 0.2027

                     log10-error:    total        iterations:
           time      wfs    density  energy       fermi  poisson
iter:   1  10:26:03          +inf  -182.677761    2      4      
iter:   2  10:26:03         -3.27  -182.677140    2      1      
iter:   3  10:26:04         -3.35  -182.675914    2      1      
iter:   4  10:26:04         -3.58  -182.675230    2      1      
iter:   5  10:26:05         -3.85  -182.675183    2      1      
iter:   6  10:26:05         -3.93  -182.676949    2      1      
iter:   7  10:26:06         -4.11  -182.676489    2      1      

Converged after 7 iterations.

Dipole moment: (-0.085016, 0.122532, -0.177037) |e|*Ang

Energy contributions relative to reference atoms: (reference = -24663.074771)

Kinetic:       +106.413199
Potential:     -114.004711
External:        +0.000000
XC:            -178.143038
Entropy (-ST):   -0.058346
Local:           +3.087234
--------------------------
Free energy:   -182.705662
Extrapolated:  -182.676489

Fermi level: -4.04751

 Band  Eigenvalues  Occupancy
    0    -23.46142    2.00000
    1    -22.19814    2.00000
    2    -21.22167    2.00000
    3    -20.52102    2.00000
    4    -20.30585    2.00000
    5    -19.87148    2.00000
    6    -19.43613    2.00000
    7    -19.32156    2.00000
    8    -18.57961    2.00000
    9    -18.15444    2.00000
   10    -17.72101    2.00000
   11    -17.17161    2.00000
   12    -16.38968    2.00000
   13    -15.53324    2.00000
   14    -15.44575    2.00000
   15    -14.91876    2.00000
   16    -14.59199    2.00000
   17    -13.48512    2.00000
   18    -13.36566    2.00000
   19    -13.18147    2.00000
   20    -12.94562    2.00000
   21    -12.31258    2.00000
   22    -12.22763    2.00000
   23    -11.79026    2.00000
   24    -11.43621    2.00000
   25    -10.72284    2.00000
   26    -10.45242    2.00000
   27     -9.83240    2.00000
   28     -9.54848    2.00000
   29     -9.10302    2.00000
   30     -8.94827    2.00000
   31     -8.89453    2.00000
   32     -8.53047    2.00000
   33     -8.34274    2.00000
   34     -8.25382    2.00000
   35     -7.82961    2.00000
   36     -7.70381    2.00000
   37     -7.19349    2.00000
   38     -7.10178    2.00000
   39     -6.63197    2.00000
   40     -6.55118    2.00000
   41     -6.40300    2.00000
   42     -6.33611    2.00000
   43     -5.87750    2.00000
   44     -5.49310    2.00000
   45     -5.26285    1.99999
   46     -5.03803    1.99990
   47     -4.38737    1.93532
   48     -3.70380    0.06231
   49     -3.37750    0.00246
   50     -2.84350    0.00001
   51     -2.74791    0.00000
   52     -2.59230    0.00000
   53     -2.17013    0.00000
   54     -1.70541    0.00000
   55     -1.34041    0.00000
   56     -0.97496    0.00000
   57     -0.60382    0.00000
   58     -0.44382    0.00000
   59      0.00722    0.00000
   60      0.08473    0.00000
   61      0.66505    0.00000
   62      1.51668    0.00000
   63      1.82202    0.00000
   64      2.88619    0.00000
   65      3.02863    0.00000
   66      3.23912    0.00000
   67      4.47384    0.00000
   68      4.86709    0.00000
   69      5.26479    0.00000
   70      5.33269    0.00000
   71      5.86887    0.00000
   72      6.13415    0.00000
   73      6.37868    0.00000
   74      6.84797    0.00000
   75      7.26587    0.00000
   76      7.41641    0.00000
   77      8.07637    0.00000
   78      8.14758    0.00000
   79      8.28594    0.00000
   80      8.61180    0.00000
   81      8.87544    0.00000
   82      8.96153    0.00000
   83      9.12625    0.00000
   84      9.20070    0.00000
   85      9.30137    0.00000
   86      9.53525    0.00000
   87      9.65871    0.00000
   88      9.76552    0.00000
   89      9.86856    0.00000
   90      9.93186    0.00000
   91      9.94957    0.00000
   92     10.05288    0.00000
   93     10.16534    0.00000
   94     10.34735    0.00000
   95     10.41441    0.00000
   96     10.48429    0.00000
   97     10.60624    0.00000


Forces in eV/Ang:
  0 C    -0.00754   -0.02456   -0.00930
  1 C    -0.09882    0.04907    0.01593
  2 C     0.02821    0.01825   -0.03189
  3 C     0.02132    0.00712    0.00307
  4 C    -0.03532   -0.01495   -0.07711
  5 C    -0.05427    0.02810    0.03105
  6 C    -0.00809    0.04408   -0.05124
  7 C    -0.04117    0.05449    0.00249
  8 C    -0.01133    0.00235    0.01869
  9 C     0.01735   -0.01270   -0.01310
 10 C     0.03483    0.03327   -0.06202
 11 C     0.03238   -0.01957   -0.00231
 12 C     0.01086    0.01926    0.01328
 13 C     0.05649    0.03017    0.03092
 14 C     0.04194    0.01463    0.00443
 15 C     0.03155    0.00427    0.01034
 16 C    -0.01951   -0.04634    0.03087
 17 C     0.01324   -0.04729    0.05907
 18 C    -0.01323    0.02887    0.00817
 19 C     0.05909   -0.02501    0.01117
 20 C     0.00387   -0.00675    0.03616
 21 C    -0.05148    0.01301    0.00852
 22 C     0.04102   -0.01362   -0.02119
 23 C    -0.01274   -0.08683   -0.02748

System changes: positions 

Initializing position-dependent things.

Density initialized from wave functions
           .--------------------------------------.  
          /|                                      |  
         / |                                      |  
        /  |                                      |  
       /   |                                      |  
      /    |                                      |  
     /     |                                      |  
    /      |                                      |  
   /       |                                      |  
  /        |             C      C C               |  
 *         | C C C    C      C    C               |  
 |         |  C     C       C  CC                 |  
 |         .----C-C---C--CC--C--------------------.  
 |        /             C                        /   
 |       /                                      /    
 |      /                                      /     
 |     /                                      /      
 |    /                                      /       
 |   /                                      /        
 |  /                                      /         
 | /                                      /          
 |/                                      /           
 *--------------------------------------*            

Positions:
   0 C      7.942275    7.842011    4.148689
   1 C      7.747574    6.489998    4.383566
   2 C      9.028655    8.661538    4.537366
   3 C      6.347096    9.643582    5.259908
   4 C      8.414511    4.415801    5.578088
   5 C     10.024185    6.356158    5.084872
   6 C      8.779234    5.661652    4.977603
   7 C      7.405746   10.316697    5.130760
   8 C      8.808542   10.019641    5.067143
   9 C      5.696332    8.358972    5.206471
  10 C      6.650104    7.513418    4.558877
  11 C      4.572409    7.817134    5.880339
  12 C     10.038595   10.448566    5.580338
  13 C     11.045433    9.703225    5.870317
  14 C      3.873176    6.856753    6.290809
  15 C      7.497235    3.713010    6.062380
  16 C      6.305560    3.255984    6.538759
  17 C     11.277866    6.080525    5.772718
  18 C      5.127929    3.580794    6.858142
  19 C     11.889296    7.139262    6.149698
  20 C      4.040367    4.394170    6.906392
  21 C     11.286809    8.356549    5.644256
  22 C      3.687644    5.603611    6.782611
  23 C     10.123050    7.850374    4.878244

Unit cell:
           periodic     x           y           z      points  spacing
  1. axis:    yes   16.000000    0.000000    0.000000    80     0.2000
  2. axis:    yes    0.000000   16.000000    0.000000    80     0.2000
  3. axis:    yes    0.000000    0.000000   10.000000    48     0.2083

Effective grid spacing dv^(1/3) = 0.2027

                     log10-error:    total        iterations:
           time      wfs    density  energy       fermi  poisson
iter:   1  10:26:08          +inf  -182.677452    2      4      
iter:   2  10:26:08         -3.21  -182.677503    2      1      
iter:   3  10:26:09         -3.29  -182.678293    2      1      
iter:   4  10:26:09         -3.52  -182.677567    2      1      
iter:   5  10:26:10         -3.69  -182.677475    2      1      
iter:   6  10:26:10         -3.93  -182.677777    2      1      
iter:   7  10:26:11         -4.08  -182.677515    2      1      

Converged after 7 iterations.

Dipole moment: (-0.084574, 0.123076, -0.180176) |e|*Ang

Energy contributions relative to reference atoms: (reference = -24663.074771)

Kinetic:       +106.528458
Potential:     -114.078841
External:        +0.000000
XC:            -178.172125
Entropy (-ST):   -0.060137
Local:           +3.075060
--------------------------
Free energy:   -182.707583
Extrapolated:  -182.677515

Fermi level: -4.04883

 Band  Eigenvalues  Occupancy
    0    -23.47447    2.00000
    1    -22.20392    2.00000
    2    -21.22363    2.00000
    3    -20.51770    2.00000
    4    -20.30420    2.00000
    5    -19.87392    2.00000
    6    -19.43508    2.00000
    7    -19.31923    2.00000
    8    -18.58486    2.00000
    9    -18.15442    2.00000
   10    -17.71888    2.00000
   11    -17.17007    2.00000
   12    -16.38864    2.00000
   13    -15.53615    2.00000
   14    -15.44732    2.00000
   15    -14.91917    2.00000
   16    -14.59139    2.00000
   17    -13.48545    2.00000
   18    -13.36354    2.00000
   19    -13.18447    2.00000
   20    -12.94208    2.00000
   21    -12.31090    2.00000
   22    -12.23132    2.00000
   23    -11.79350    2.00000
   24    -11.43558    2.00000
   25    -10.72785    2.00000
   26    -10.45272    2.00000
   27     -9.83893    2.00000
   28     -9.55080    2.00000
   29     -9.10451    2.00000
   30     -8.94572    2.00000
   31     -8.89141    2.00000
   32     -8.53066    2.00000
   33     -8.34491    2.00000
   34     -8.25672    2.00000
   35     -7.82681    2.00000
   36     -7.70464    2.00000
   37     -7.19309    2.00000
   38     -7.09980    2.00000
   39     -6.62991    2.00000
   40     -6.55354    2.00000
   41     -6.40421    2.00000
   42     -6.33721    2.00000
   43     -5.88250    2.00000
   44     -5.49476    2.00000
   45     -5.26057    1.99999
   46     -5.03554    1.99990
   47     -4.38452    1.93266
   48     -3.70954    0.06504
   49     -3.37623    0.00240
   50     -2.84630    0.00001
   51     -2.74735    0.00000
   52     -2.59743    0.00000
   53     -2.17048    0.00000
   54     -1.70736    0.00000
   55     -1.34547    0.00000
   56     -0.97790    0.00000
   57     -0.60414    0.00000
   58     -0.44759    0.00000
   59      0.01282    0.00000
   60      0.08456    0.00000
   61      0.66572    0.00000
   62      1.51959    0.00000
   63      1.83009    0.00000
   64      2.90079    0.00000
   65      3.01786    0.00000
   66      3.24206    0.00000
   67      4.48691    0.00000
   68      4.87147    0.00000
   69      5.27299    0.00000
   70      5.33453    0.00000
   71      5.88181    0.00000
   72      6.14011    0.00000
   73      6.37721    0.00000
   74      6.85450    0.00000
   75      7.27074    0.00000
   76      7.41646    0.00000
   77      8.08069    0.00000
   78      8.14396    0.00000
   79      8.28999    0.00000
   80      8.60422    0.00000
   81      8.87303    0.00000
   82      8.96076    0.00000
   83      9.12959    0.00000
   84      9.20039    0.00000
   85      9.30225    0.00000
   86      9.53169    0.00000
   87      9.65972    0.00000
   88      9.76581    0.00000
   89      9.86640    0.00000
   90      9.93424    0.00000
   91      9.95061    0.00000
   92     10.05610    0.00000
   93     10.16449    0.00000
   94     10.34655    0.00000
   95     10.41577    0.00000
   96     10.48431    0.00000
   97     10.60464    0.00000


Forces in eV/Ang:
  0 C    -0.03485    0.01182   -0.03457
  1 C    -0.04311    0.03464   -0.01445
  2 C    -0.00988    0.02879   -0.03638
  3 C     0.01914   -0.01394    0.01799
  4 C    -0.02560   -0.02737   -0.07975
  5 C    -0.03483    0.02414    0.02682
  6 C    -0.02254   -0.00071   -0.00657
  7 C    -0.03166    0.05370   -0.00711
  8 C     0.01415    0.00230    0.03144
  9 C    -0.01870    0.00058   -0.01394
 10 C    -0.00860    0.04015   -0.02540
 11 C     0.01918   -0.06610    0.00490
 12 C     0.02043    0.00757    0.02191
 13 C     0.04413    0.04198    0.00908
 14 C     0.06215    0.01423   -0.00696
 15 C     0.04183    0.01383    0.00813
 16 C    -0.05726   -0.04168    0.04368
 17 C    -0.02688   -0.03649    0.05008
 18 C     0.00599    0.02525    0.00233
 19 C     0.02749   -0.04567   -0.01651
 20 C     0.00482    0.01623    0.02452
 21 C    -0.00642    0.02986    0.03132
 22 C     0.05805    0.00154   -0.01845
 23 C     0.00718   -0.04099   -0.00241

