
  ___ ___ ___ _ _ _  
 |   |   |_  | | | | 
 | | | | | . | | | | 
 |__ |  _|___|_____|  1.3.0b1
 |___|_|             

User:   esb@s66n12.grendel.cscaa.dk
Date:   Thu Nov  9 11:43:17 2017
Arch:   x86_64
Pid:    115877
Python: 2.7.13
gpaw:   /home/esb/DFT/gpaw_git/gpaw
_gpaw:  /home/esb/DFT/gpaw_git/build/bin.linux-x86_64-2.7/gpaw-python
ase:    /home/esb/DFT/ase_git/ase (version 3.15.0b1)
numpy:  /comm/swstack/core/python/2.7.13/lib/python2.7/site-packages/numpy (version 1.13.3)
scipy:  /comm/swstack/core/python/2.7.13/lib/python2.7/site-packages/scipy (version 0.19.1)
units:  Angstrom and eV
cores:  16
Extra parameters: {'blacs': True}

Input parameters:
  basis: dzp
  gpts: [80 80 48]
  kpts: [1 1 1]
  maxiter: 99
  mixer: {backend: pulay,
          beta: 0.05,
          method: separate,
          nmaxold: 5,
          weight: 75}
  mode: lcao
  nbands: -50
  occupations: {name: fermi-dirac,
                width: 0.1}
  poissonsolver: {eps: 1e-07,
                  name: fd,
                  nn: 3,
                  relax: GS}
  xc: PBE

System changes: positions, numbers, cell, pbc, initial_charges, initial_magmoms 

Initialize ...

C-setup:
  name: Carbon
  id: 4aa54d4b901d75f77cc0ea3eec22967b
  Z: 6
  valence: 4
  core: 2
  charge: 0.0
  file: /home/esb/DFT/gpaw-setups-0.8.7929/C.PBE.gz
  cutoffs: 0.64(comp), 1.14(filt), 1.14(core), lmax=2
  valence states:
                energy  radius
    2s(2.00)   -13.751   0.635
    2p(2.00)    -5.284   0.635
    *s          13.461   0.635
    *p          21.927   0.635
    *d           0.000   0.635

  LCAO basis set for C:
    Name: dzp
    File: /home/esb/DFT/gpaw-setups-0.8.7929/C.dzp.basis.gz
    Number of radial functions: 5
    Number of spherical harmonics: 13
      l=0, rc=5.5469 Bohr: 2s-sz confined orbital
      l=1, rc=6.6719 Bohr: 2p-sz confined orbital
      l=0, rc=3.0312 Bohr: 2s-dz split-valence wave
      l=1, rc=3.7500 Bohr: 2p-dz split-valence wave
      l=2, rc=6.6719 Bohr: d-type Gaussian polarization

Reference energy: -24663.074771

Spin-paired calculation

Occupation numbers:
  Fermi-Dirac: width=0.1000 eV

Convergence criteria:
  Maximum total energy change: 0.0005 eV / electron
  Maximum integral of absolute density change: 0.0001 electrons
  Maximum integral of absolute eigenstate change: 4e-08 eV^2
  Maximum number of iterations: 99

Symmetries present (total): 1

  ( 1  0  0)
  ( 0  1  0)
  ( 0  0  1)

1 k-point (Gamma)
1 k-point in the irreducible part of the Brillouin zone
       k-points in crystal coordinates                weights
   0:     0.00000000    0.00000000    0.00000000          1/1

Wave functions: LCAO
  Diagonalizer: Serial LAPACK
  Atomic Correction: dense with blas
  Datatype: float
  Eigensolver: None 

LCAO using direct dense diagonalizer 

Densities:
  Coarse grid: 80*80*48 grid
  Fine grid: 160*160*96 grid
  Total Charge: 0.000000 

Density mixing:
  Method: separate
  Backend: pulay
  Linear mixing parameter: 0.05
  Mixing with 5 old densities
  Damping of long wave oscillations: 75 

Hamiltonian:
  XC and Coulomb potentials evaluated on a 160*160*96 grid
  Using the PBE Exchange-Correlation functional
  Interpolation: tri-quintic (5. degree polynomial)
  Poisson solver: Gauss-Seidel solver with 6 multi-grid levels
    Coarsest grid: 5 x 5 x 3 points
    Stencil: 6*3+1=19 point O(h^6) finite-difference Laplacian
    Max iterations: 1000
    Tolerance: 1.000000e-07 

Memory estimate:
  Process memory now: 79.53 MiB
  Calculator: 15.59 MiB
    Density: 6.13 MiB
      Arrays: 3.81 MiB
      Localized functions: 0.86 MiB
      Mixer: 1.46 MiB
    Hamiltonian: 5.40 MiB
      Arrays: 2.49 MiB
      XC: 0.00 MiB
      Poisson: 2.85 MiB
      vbar: 0.07 MiB
    Wavefunctions: 4.05 MiB
      C [qnM]: 0.23 MiB
      S, T [2 x qmm]: 1.49 MiB
      P [aqMi]: 0.01 MiB
      TCI: 0.00 MiB
      BasisFunctions: 2.33 MiB
      Eigensolver: 0.00 MiB

Total number of cores used: 16
Domain decomposition: 2 x 4 x 2

Number of atoms: 24
Number of atomic orbitals: 312
Number of bands in calculation: 98
Bands to converge: occupied states only
Number of valence electrons: 96

... initialized

Initializing position-dependent things.

Density initialized from atomic densities
           .--------------------------------------.  
          /|                                      |  
         / |                                      |  
        /  |                                      |  
       /   |                                      |  
      /    |                                      |  
     /     |                                      |  
    /      |                                      |  
   /       |                                      |  
  /        |   C  C  C  C C                       |  
 *         | C            CC  C                   |  
 |         | C       C          C                 |  
 |         .----C--C--C--C-----C------------------.  
 |        /    C            C                    /   
 |       /       C  C     C                     /    
 |      /              C                       /     
 |     /                                      /      
 |    /                                      /       
 |   /                                      /        
 |  /                                      /         
 | /                                      /          
 |/                                      /           
 *--------------------------------------*            

Positions:
   0 C     10.692401    5.970584    4.880153
   1 C      9.255071    3.886307    4.346313
   2 C      9.564880    5.142666    4.880196
   3 C     10.811222    7.104521    5.404637
   4 C      8.159939    3.277575    4.418648
   5 C      9.844170    7.819532    6.118883
   6 C      8.409757    5.753245    5.621567
   7 C      6.989294    3.696174    5.058286
   8 C      8.549781    7.066304    6.239489
   9 C      7.146232    5.035173    5.719325
  10 C      5.708739    3.158161    5.223853
  11 C      4.748184    3.663144    5.855929
  12 C      7.855764   10.019034    5.269534
  13 C      6.821572   10.734129    5.310669
  14 C      8.597020    8.821074    5.232599
  15 C      5.532242   11.117621    5.380054
  16 C      4.300057   10.829750    5.467888
  17 C      3.281061    9.959600    5.555818
  18 C      2.910930    7.456615    5.627819
  19 C      5.845276    6.194392    5.393467
  20 C      4.563241    5.500083    5.497140
  21 C      6.421131    7.481066    5.340602
  22 C      2.779866    8.794726    5.616736
  23 C      3.406534    6.298784    5.599783

Unit cell:
           periodic     x           y           z      points  spacing
  1. axis:    yes   16.000000    0.000000    0.000000    80     0.2000
  2. axis:    yes    0.000000   16.000000    0.000000    80     0.2000
  3. axis:    yes    0.000000    0.000000   10.000000    48     0.2083

Effective grid spacing dv^(1/3) = 0.2027

                     log10-error:    total        iterations:
           time      wfs    density  energy       fermi  poisson
iter:   1  11:43:18          +inf  -177.810407    2      6      
iter:   2  11:43:19         -0.91  -176.923547    3      3      
iter:   3  11:43:20         -0.94  -174.234078    33     4      
iter:   4  11:43:20         -1.16  -173.589658    31     3      
iter:   5  11:43:21         -1.40  -173.649004    34     3      
iter:   6  11:43:21         -1.59  -173.533264    3      3      
iter:   7  11:43:22         -1.76  -173.504070    3      3      
iter:   8  11:43:23         -1.94  -173.489416    3      2      
iter:   9  11:43:23         -2.07  -173.471837    3      2      
iter:  10  11:43:24         -2.23  -173.466693    3      2      
iter:  11  11:43:24         -2.34  -173.469020    3      2      
iter:  12  11:43:25         -2.83  -173.461816    2      1      
iter:  13  11:43:25         -2.88  -173.454751    2      2      
iter:  14  11:43:26         -3.06  -173.452410    2      1      
iter:  15  11:43:26         -3.24  -173.450424    2      1      
iter:  16  11:43:27         -3.41  -173.454049    2      1      
iter:  17  11:43:27         -3.51  -173.461594    2      1      
iter:  18  11:43:28         -3.57  -173.456933    2      1      
iter:  19  11:43:28         -3.65  -173.454212    2      1      
iter:  20  11:43:29         -3.70  -173.448495    2      1      
iter:  21  11:43:30         -3.96  -173.452999    2      1      
iter:  22  11:43:30         -4.17  -173.454061    2      1      

Converged after 22 iterations.

Dipole moment: (-0.058674, 0.302461, -0.070891) |e|*Ang

Energy contributions relative to reference atoms: (reference = -24663.074771)

Kinetic:        +76.895787
Potential:      -91.006621
External:        +0.000000
XC:            -162.227202
Entropy (-ST):   -0.216447
Local:           +2.992199
--------------------------
Free energy:   -173.562284
Extrapolated:  -173.454061

Fermi level: -4.29994

 Band  Eigenvalues  Occupancy
    0    -22.12765    2.00000
    1    -21.06123    2.00000
    2    -20.74143    2.00000
    3    -20.37618    2.00000
    4    -20.02239    2.00000
    5    -19.49104    2.00000
    6    -19.19007    2.00000
    7    -18.96640    2.00000
    8    -18.29376    2.00000
    9    -18.04783    2.00000
   10    -17.53193    2.00000
   11    -16.77903    2.00000
   12    -16.40573    2.00000
   13    -15.56022    2.00000
   14    -15.38070    2.00000
   15    -14.96544    2.00000
   16    -14.41416    2.00000
   17    -13.66215    2.00000
   18    -13.25603    2.00000
   19    -12.74068    2.00000
   20    -12.73448    2.00000
   21    -11.91080    2.00000
   22    -11.66957    2.00000
   23    -10.98919    2.00000
   24    -10.56209    2.00000
   25     -9.90526    2.00000
   26     -9.55675    2.00000
   27     -9.35820    2.00000
   28     -9.34152    2.00000
   29     -8.90937    2.00000
   30     -8.67907    2.00000
   31     -8.62530    2.00000
   32     -8.30564    2.00000
   33     -8.16508    2.00000
   34     -7.94894    2.00000
   35     -7.50066    2.00000
   36     -7.24166    2.00000
   37     -6.92987    2.00000
   38     -6.89113    2.00000
   39     -6.59970    2.00000
   40     -6.41720    2.00000
   41     -6.10167    2.00000
   42     -5.95215    2.00000
   43     -5.60290    2.00000
   44     -5.50192    1.99999
   45     -5.17298    1.99968
   46     -5.01371    1.99841
   47     -4.43274    1.58102
   48     -4.16117    0.39956
   49     -3.84356    0.02063
   50     -3.50448    0.00070
   51     -3.13420    0.00002
   52     -2.95937    0.00000
   53     -2.74250    0.00000
   54     -2.55986    0.00000
   55     -2.01967    0.00000
   56     -1.92469    0.00000
   57     -1.61074    0.00000
   58     -0.91821    0.00000
   59     -0.63940    0.00000
   60     -0.28988    0.00000
   61     -0.27716    0.00000
   62      0.27392    0.00000
   63      0.47840    0.00000
   64      1.47506    0.00000
   65      1.73877    0.00000
   66      2.03151    0.00000
   67      2.73105    0.00000
   68      3.53692    0.00000
   69      3.73195    0.00000
   70      4.88123    0.00000
   71      5.24403    0.00000
   72      5.27906    0.00000
   73      5.79551    0.00000
   74      6.06574    0.00000
   75      6.98765    0.00000
   76      7.20087    0.00000
   77      7.31545    0.00000
   78      7.50764    0.00000
   79      7.75573    0.00000
   80      8.03202    0.00000
   81      8.16302    0.00000
   82      8.28445    0.00000
   83      8.41078    0.00000
   84      8.50699    0.00000
   85      9.00704    0.00000
   86      9.08612    0.00000
   87      9.16769    0.00000
   88      9.23050    0.00000
   89      9.32448    0.00000
   90      9.45787    0.00000
   91      9.56971    0.00000
   92      9.71367    0.00000
   93      9.85204    0.00000
   94      9.90251    0.00000
   95      9.95388    0.00000
   96     10.04276    0.00000
   97     10.17629    0.00000


Forces in eV/Ang:
  0 C     1.19714   -0.91240   -0.20983
  1 C     0.84353    0.51855    0.04455
  2 C     0.21816   -0.23922    0.12318
  3 C    -0.18539    0.35440    0.28050
  4 C    -0.64414   -0.18357    0.14244
  5 C    -4.95609    2.51962   -2.33952
  6 C    -0.32418   -0.42034    0.68793
  7 C     0.31798    0.42401    0.88715
  8 C     0.43360    1.03914   -2.08203
  9 C    -0.36830    1.98057   -3.00126
 10 C     0.22901   -0.13817   -0.37725
 11 C    -2.26617    4.32002   -0.45430
 12 C     3.89437   -4.79429    0.44546
 13 C    -3.29875    1.60908   -0.07324
 14 C     1.75101    0.95453    2.92391
 15 C     2.42161   -0.15933   -0.24853
 16 C    -1.90345   -0.86496    0.19544
 17 C     1.10433    1.48329   -0.11438
 18 C    -0.72287    2.02822   -0.08563
 19 C     2.82595   -3.15532    2.20982
 20 C    -1.22570   -1.30011    0.92204
 21 C    -1.19019   -0.89630    0.22847
 22 C    -0.27063   -1.71963    0.10754
 23 C     2.03209   -2.39597   -0.21707

System changes: positions 

Initializing position-dependent things.

Density initialized from wave functions
           .--------------------------------------.  
          /|                                      |  
         / |                                      |  
        /  |                                      |  
       /   |                                      |  
      /    |                                      |  
     /     |                                      |  
    /      |                                      |  
   /       |                                      |  
  /        |   C  C  C  C C                       |  
 *         | C            CC  C                   |  
 |         | C       C          C                 |  
 |         .----C--C--C--C-----C------------------.  
 |        /    C            C                    /   
 |       /       C  C     C                     /    
 |      /              C                       /     
 |     /                                      /      
 |    /                                      /       
 |   /                                      /        
 |  /                                      /         
 | /                                      /          
 |/                                      /           
 *--------------------------------------*            

Positions:
   0 C     10.700134    5.964690    4.878797
   1 C      9.260519    3.889656    4.346601
   2 C      9.566289    5.141121    4.880992
   3 C     10.810024    7.106810    5.406449
   4 C      8.155779    3.276389    4.419568
   5 C      9.812158    7.835807    6.103772
   6 C      8.407663    5.750530    5.626010
   7 C      6.991348    3.698912    5.064016
   8 C      8.552582    7.073016    6.226040
   9 C      7.143853    5.047965    5.699939
  10 C      5.710218    3.157268    5.221417
  11 C      4.733547    3.691048    5.852995
  12 C      7.880918    9.988067    5.272411
  13 C      6.800264   10.744522    5.310196
  14 C      8.608330    8.827240    5.251485
  15 C      5.547884   11.116592    5.378448
  16 C      4.287763   10.824163    5.469150
  17 C      3.288195    9.969181    5.555079
  18 C      2.906261    7.469716    5.627266
  19 C      5.863529    6.174011    5.407740
  20 C      4.555324    5.491685    5.503096
  21 C      6.413444    7.475276    5.342078
  22 C      2.778118    8.783619    5.617430
  23 C      3.419660    6.283308    5.598381

Unit cell:
           periodic     x           y           z      points  spacing
  1. axis:    yes   16.000000    0.000000    0.000000    80     0.2000
  2. axis:    yes    0.000000   16.000000    0.000000    80     0.2000
  3. axis:    yes    0.000000    0.000000   10.000000    48     0.2083

Effective grid spacing dv^(1/3) = 0.2027

                     log10-error:    total        iterations:
           time      wfs    density  energy       fermi  poisson
iter:   1  11:43:32          +inf  -174.802467    3      5      
iter:   2  11:43:32         -1.78  -174.688773    3      2      
iter:   3  11:43:33         -1.91  -174.614220    3      2      
iter:   4  11:43:33         -2.15  -174.598076    3      2      
iter:   5  11:43:34         -2.35  -174.594542    2      2      
iter:   6  11:43:35         -2.47  -174.590797    2      2      
iter:   7  11:43:35         -2.72  -174.589437    2      2      
iter:   8  11:43:36         -3.07  -174.588983    2      1      
iter:   9  11:43:36         -3.15  -174.588401    2      1      
iter:  10  11:43:37         -3.26  -174.587641    2      1      
iter:  11  11:43:37         -3.50  -174.587971    2      1      
iter:  12  11:43:38         -3.66  -174.588943    2      1      
iter:  13  11:43:38         -3.79  -174.588328    2      1      
iter:  14  11:43:39         -3.96  -174.589069    2      1      
iter:  15  11:43:39         -4.19  -174.589308    1      1      

Converged after 15 iterations.

Dipole moment: (-0.056073, 0.312643, -0.053120) |e|*Ang

Energy contributions relative to reference atoms: (reference = -24663.074771)

Kinetic:        +69.806986
Potential:      -85.733025
External:        +0.000000
XC:            -161.529331
Entropy (-ST):   -0.177026
Local:           +2.954576
--------------------------
Free energy:   -174.677821
Extrapolated:  -174.589308

Fermi level: -4.32761

 Band  Eigenvalues  Occupancy
    0    -22.13822    2.00000
    1    -21.06737    2.00000
    2    -20.72791    2.00000
    3    -20.35181    2.00000
    4    -20.01506    2.00000
    5    -19.43230    2.00000
    6    -19.16279    2.00000
    7    -19.00124    2.00000
    8    -18.26910    2.00000
    9    -17.98163    2.00000
   10    -17.56830    2.00000
   11    -16.87567    2.00000
   12    -16.39830    2.00000
   13    -15.50158    2.00000
   14    -15.39163    2.00000
   15    -14.96535    2.00000
   16    -14.38572    2.00000
   17    -13.68200    2.00000
   18    -13.26687    2.00000
   19    -12.76287    2.00000
   20    -12.72801    2.00000
   21    -11.89081    2.00000
   22    -11.66004    2.00000
   23    -11.11760    2.00000
   24    -10.58829    2.00000
   25     -9.94421    2.00000
   26     -9.65178    2.00000
   27     -9.35844    2.00000
   28     -9.33252    2.00000
   29     -8.94787    2.00000
   30     -8.72148    2.00000
   31     -8.62095    2.00000
   32     -8.29979    2.00000
   33     -8.14922    2.00000
   34     -7.98223    2.00000
   35     -7.46434    2.00000
   36     -7.21235    2.00000
   37     -6.89206    2.00000
   38     -6.83226    2.00000
   39     -6.56762    2.00000
   40     -6.38512    2.00000
   41     -6.06957    2.00000
   42     -5.91294    2.00000
   43     -5.58140    1.99999
   44     -5.49865    1.99998
   45     -5.15963    1.99951
   46     -5.01199    1.99787
   47     -4.49816    1.69250
   48     -4.15623    0.30534
   49     -3.71089    0.00419
   50     -3.51689    0.00060
   51     -3.15958    0.00002
   52     -3.00066    0.00000
   53     -2.76877    0.00000
   54     -2.51096    0.00000
   55     -2.01281    0.00000
   56     -1.91815    0.00000
   57     -1.55172    0.00000
   58     -0.91465    0.00000
   59     -0.66352    0.00000
   60     -0.33960    0.00000
   61     -0.24138    0.00000
   62      0.23537    0.00000
   63      0.55715    0.00000
   64      1.47792    0.00000
   65      1.78816    0.00000
   66      2.12924    0.00000
   67      2.89566    0.00000
   68      3.50205    0.00000
   69      3.80376    0.00000
   70      4.91133    0.00000
   71      5.19461    0.00000
   72      5.43879    0.00000
   73      5.80056    0.00000
   74      6.05445    0.00000
   75      6.99999    0.00000
   76      7.24293    0.00000
   77      7.31093    0.00000
   78      7.54473    0.00000
   79      7.78436    0.00000
   80      8.13386    0.00000
   81      8.24578    0.00000
   82      8.33696    0.00000
   83      8.55916    0.00000
   84      8.81050    0.00000
   85      8.93889    0.00000
   86      9.11568    0.00000
   87      9.18862    0.00000
   88      9.22409    0.00000
   89      9.28126    0.00000
   90      9.36373    0.00000
   91      9.49701    0.00000
   92      9.73884    0.00000
   93      9.85224    0.00000
   94      9.94515    0.00000
   95     10.00526    0.00000
   96     10.08254    0.00000
   97     10.18970    0.00000


Forces in eV/Ang:
  0 C     1.16779   -0.20544    0.20086
  1 C     0.13005    0.03352    0.06418
  2 C     0.27275   -0.12868    0.16142
  3 C    -0.48486    0.10345    0.13385
  4 C     0.06830    0.17824    0.08798
  5 C    -4.47568    2.27946   -2.82218
  6 C    -0.06582   -0.16635    0.54555
  7 C     0.26193    0.35837    0.80320
  8 C     0.03414    0.57853   -1.94924
  9 C    -0.63653    1.91902   -2.77962
 10 C    -1.19439    0.60240    0.46835
 11 C    -0.81005    3.56034   -1.32011
 12 C     1.09428   -2.44860    0.39640
 13 C     0.34568   -0.66796   -0.26913
 14 C     2.07772    0.82554    3.15318
 15 C     0.58100   -0.07153   -0.07863
 16 C    -0.77687   -0.40388    0.07123
 17 C     0.57411    0.64706   -0.03110
 18 C     0.14639   -0.17353   -0.10982
 19 C     2.72754   -2.92597    2.06828
 20 C    -0.77598   -1.51149    0.97790
 21 C    -1.20208   -1.15872    0.30769
 22 C    -0.07094   -0.58756    0.02150
 23 C     0.93047   -0.62231   -0.15608

System changes: positions 

Initializing position-dependent things.

Density initialized from wave functions
           .--------------------------------------.  
          /|                                      |  
         / |                                      |  
        /  |                                      |  
       /   |                                      |  
      /    |                                      |  
     /     |                                      |  
    /      |                                      |  
   /       |                                      |  
  /        |   C  C  C  C C                       |  
 *         | C            C C C                   |  
 |         | C       C          C                 |  
 |         .----C--C--C--C-----C------------------.  
 |        /    C            C                    /   
 |       /       C  C     C                     /    
 |      /              C                       /     
 |     /                                      /      
 |    /                                      /       
 |   /                                      /        
 |  /                                      /         
 | /                                      /          
 |/                                      /           
 *--------------------------------------*            

Positions:
   0 C     10.708229    5.962797    4.879912
   1 C      9.261895    3.890212    4.347031
   2 C      9.568139    5.140157    4.882082
   3 C     10.806871    7.107694    5.407472
   4 C      8.155775    3.277380    4.420213
   5 C      9.780885    7.851731    6.084577
   6 C      8.407036    5.749210    5.629878
   7 C      6.993197    3.701435    5.069627
   8 C      8.553085    7.077324    6.212471
   9 C      7.139630    5.061278    5.680569
  10 C      5.702909    3.160939    5.224091
  11 C      4.726972    3.716178    5.844444
  12 C      7.890357    9.969566    5.275186
  13 C      6.800220   10.741424    5.308466
  14 C      8.622480    8.833035    5.273138
  15 C      5.553132   11.116038    5.377791
  16 C      4.281637   10.821062    5.469726
  17 C      3.292519    9.974214    5.554808
  18 C      2.906693    7.469987    5.626523
  19 C      5.882458    6.153623    5.422138
  20 C      4.549658    5.481374    5.509821
  21 C      6.405138    7.467439    5.344153
  22 C      2.777494    8.778799    5.617636
  23 C      3.426831    6.277820    5.597261

Unit cell:
           periodic     x           y           z      points  spacing
  1. axis:    yes   16.000000    0.000000    0.000000    80     0.2000
  2. axis:    yes    0.000000   16.000000    0.000000    80     0.2000
  3. axis:    yes    0.000000    0.000000   10.000000    48     0.2083

Effective grid spacing dv^(1/3) = 0.2027

                     log10-error:    total        iterations:
           time      wfs    density  energy       fermi  poisson
iter:   1  11:43:41          +inf  -175.584812    3      5      
iter:   2  11:43:42         -1.86  -175.492205    3      2      
iter:   3  11:43:42         -2.03  -175.430056    3      2      
iter:   4  11:43:43         -2.38  -175.422115    2      2      
iter:   5  11:43:43         -2.57  -175.420692    2      2      
iter:   6  11:43:44         -2.70  -175.419554    2      2      
iter:   7  11:43:45         -2.88  -175.418814    2      2      
iter:   8  11:43:45         -3.24  -175.418563    2      1      
iter:   9  11:43:46         -3.33  -175.418393    2      1      
iter:  10  11:43:46         -3.45  -175.417993    2      1      
iter:  11  11:43:47         -3.70  -175.418898    2      1      
iter:  12  11:43:47         -3.79  -175.419470    2      1      
iter:  13  11:43:48         -3.93  -175.418691    2      1      
iter:  14  11:43:48         -4.12  -175.419303    2      1      

Converged after 14 iterations.

Dipole moment: (-0.061520, 0.299552, -0.034364) |e|*Ang

Energy contributions relative to reference atoms: (reference = -24663.074771)

Kinetic:        +68.296138
Potential:      -84.726707
External:        +0.000000
XC:            -161.880972
Entropy (-ST):   -0.156972
Local:           +2.970725
--------------------------
Free energy:   -175.497789
Extrapolated:  -175.419303

Fermi level: -4.30585

 Band  Eigenvalues  Occupancy
    0    -22.14478    2.00000
    1    -21.09034    2.00000
    2    -20.70251    2.00000
    3    -20.34011    2.00000
    4    -20.01566    2.00000
    5    -19.40127    2.00000
    6    -19.18670    2.00000
    7    -19.03806    2.00000
    8    -18.28189    2.00000
    9    -17.96234    2.00000
   10    -17.59327    2.00000
   11    -16.90571    2.00000
   12    -16.37652    2.00000
   13    -15.50099    2.00000
   14    -15.37651    2.00000
   15    -14.97045    2.00000
   16    -14.34403    2.00000
   17    -13.67973    2.00000
   18    -13.25647    2.00000
   19    -12.78244    2.00000
   20    -12.70588    2.00000
   21    -11.87181    2.00000
   22    -11.64343    2.00000
   23    -11.22099    2.00000
   24    -10.62517    2.00000
   25     -9.98426    2.00000
   26     -9.76442    2.00000
   27     -9.34792    2.00000
   28     -9.30851    2.00000
   29     -9.03424    2.00000
   30     -8.74173    2.00000
   31     -8.62662    2.00000
   32     -8.29547    2.00000
   33     -8.16344    2.00000
   34     -7.97930    2.00000
   35     -7.43172    2.00000
   36     -7.22468    2.00000
   37     -6.89613    2.00000
   38     -6.81153    2.00000
   39     -6.54172    2.00000
   40     -6.38015    2.00000
   41     -6.05708    2.00000
   42     -5.93906    2.00000
   43     -5.61064    2.00000
   44     -5.50534    1.99999
   45     -5.18206    1.99969
   46     -5.01825    1.99839
   47     -4.49747    1.74344
   48     -4.11385    0.25573
   49     -3.62494    0.00221
   50     -3.48424    0.00054
   51     -3.16262    0.00002
   52     -2.98955    0.00000
   53     -2.73987    0.00000
   54     -2.45660    0.00000
   55     -1.98511    0.00000
   56     -1.88511    0.00000
   57     -1.48816    0.00000
   58     -0.88356    0.00000
   59     -0.64040    0.00000
   60     -0.35002    0.00000
   61     -0.17270    0.00000
   62      0.26964    0.00000
   63      0.65597    0.00000
   64      1.54837    0.00000
   65      1.84751    0.00000
   66      2.26922    0.00000
   67      3.13354    0.00000
   68      3.52660    0.00000
   69      3.92756    0.00000
   70      4.95188    0.00000
   71      5.17687    0.00000
   72      5.62158    0.00000
   73      5.82719    0.00000
   74      6.07297    0.00000
   75      6.97672    0.00000
   76      7.21478    0.00000
   77      7.31117    0.00000
   78      7.57025    0.00000
   79      7.80667    0.00000
   80      8.12276    0.00000
   81      8.28965    0.00000
   82      8.30631    0.00000
   83      8.62820    0.00000
   84      8.89475    0.00000
   85      8.98487    0.00000
   86      9.12754    0.00000
   87      9.15540    0.00000
   88      9.23294    0.00000
   89      9.31051    0.00000
   90      9.37880    0.00000
   91      9.49571    0.00000
   92      9.74523    0.00000
   93      9.85199    0.00000
   94      9.96125    0.00000
   95     10.02077    0.00000
   96     10.12925    0.00000
   97     10.20757    0.00000


Forces in eV/Ang:
  0 C     0.98918   -0.06566    0.34573
  1 C     0.05245   -0.00316    0.08512
  2 C     0.33546   -0.05645    0.19855
  3 C    -0.67544    0.28990    0.19108
  4 C     0.04920    0.19071    0.14864
  5 C    -3.95769    2.10065   -3.11803
  6 C     0.11562   -0.05455    0.36041
  7 C     0.08933    0.26075    0.68932
  8 C    -0.33568    0.23213   -1.78824
  9 C    -0.76685    1.71064   -2.53041
 10 C    -1.15680    0.81380    0.57945
 11 C    -0.55454    3.50871   -1.47315
 12 C     0.40374   -1.66637    0.36986
 13 C     0.77024   -1.06271   -0.28890
 14 C     2.36771    0.57881    3.14199
 15 C     0.26137   -0.17883   -0.02633
 16 C     0.00128    0.00005   -0.01925
 17 C     0.03874   -0.06244    0.05003
 18 C     0.33994   -0.53375   -0.10406
 19 C     2.39723   -2.75416    1.94231
 20 C    -0.34292   -1.64805    0.96612
 21 C    -1.12573   -1.25008    0.38831
 22 C     0.08586   -0.15553   -0.02793
 23 C     0.54242   -0.18324   -0.11657

System changes: positions 

Initializing position-dependent things.

Density initialized from wave functions
           .--------------------------------------.  
          /|                                      |  
         / |                                      |  
        /  |                                      |  
       /   |                                      |  
      /    |                                      |  
     /     |                                      |  
    /      |                                      |  
   /       |                                      |  
  /        |   C  C  C  C C                       |  
 *         | C            C C C                   |  
 |         | C       C          C                 |  
 |         .----C--C--C--C-----C------------------.  
 |        /    C            C                    /   
 |       /       C  C     C                     /    
 |      /              C                       /     
 |     /                                      /      
 |    /                                      /       
 |   /                                      /        
 |  /                                      /         
 | /                                      /          
 |/                                      /           
 *--------------------------------------*            

Positions:
   0 C     10.715209    5.961270    4.881989
   1 C      9.263466    3.891027    4.347666
   2 C      9.570640    5.139683    4.883552
   3 C     10.802058    7.110693    5.409277
   4 C      8.154755    3.278130    4.421538
   5 C      9.751866    7.867306    6.061875
   6 C      8.407778    5.748561    5.632420
   7 C      6.993603    3.703279    5.074632
   8 C      8.550594    7.079185    6.199367
   9 C      7.134209    5.073577    5.662006
  10 C      5.697140    3.165985    5.227001
  11 C      4.720667    3.743381    5.834894
  12 C      7.897179    9.954479    5.277951
  13 C      6.799911   10.737059    5.306664
  14 C      8.639930    8.837034    5.295856
  15 C      5.557866   11.114331    5.377385
  16 C      4.281140   10.821033    5.469630
  17 C      3.292692    9.973856    5.555189
  18 C      2.907963    7.469453    5.625813
  19 C      5.899637    6.133235    5.436468
  20 C      4.547181    5.469333    5.516817
  21 C      6.397017    7.458524    5.347035
  22 C      2.778077    8.776415    5.617490
  23 C      3.432102    6.274036    5.596368

Unit cell:
           periodic     x           y           z      points  spacing
  1. axis:    yes   16.000000    0.000000    0.000000    80     0.2000
  2. axis:    yes    0.000000   16.000000    0.000000    80     0.2000
  3. axis:    yes    0.000000    0.000000   10.000000    48     0.2083

Effective grid spacing dv^(1/3) = 0.2027

                     log10-error:    total        iterations:
           time      wfs    density  energy       fermi  poisson
iter:   1  11:43:50          +inf  -176.339548    3      5      
iter:   2  11:43:51         -1.88  -176.257165    3      2      
iter:   3  11:43:51         -2.05  -176.199272    3      2      
iter:   4  11:43:52         -2.44  -176.191992    2      2      
iter:   5  11:43:52         -2.66  -176.190793    2      2      
iter:   6  11:43:53         -2.79  -176.190018    2      2      
iter:   7  11:43:53         -2.94  -176.189303    2      2      
iter:   8  11:43:54         -3.31  -176.189044    2      1      
iter:   9  11:43:55         -3.39  -176.188962    2      1      
iter:  10  11:43:55         -3.50  -176.188518    2      1      
iter:  11  11:43:56         -3.76  -176.189101    2      1      
iter:  12  11:43:56         -3.81  -176.190067    2      1      
iter:  13  11:43:57         -4.09  -176.189531    2      1      

Converged after 13 iterations.

Dipole moment: (-0.069740, 0.283245, -0.017322) |e|*Ang

Energy contributions relative to reference atoms: (reference = -24663.074771)

Kinetic:        +67.568414
Potential:      -84.314846
External:        +0.000000
XC:            -162.345681
Entropy (-ST):   -0.143831
Local:           +2.974497
--------------------------
Free energy:   -176.261446
Extrapolated:  -176.189531

Fermi level: -4.26915

 Band  Eigenvalues  Occupancy
    0    -22.15509    2.00000
    1    -21.13287    2.00000
    2    -20.67893    2.00000
    3    -20.34176    2.00000
    4    -20.02004    2.00000
    5    -19.38211    2.00000
    6    -19.21165    2.00000
    7    -19.07020    2.00000
    8    -18.28577    2.00000
    9    -17.95266    2.00000
   10    -17.60483    2.00000
   11    -16.90926    2.00000
   12    -16.36618    2.00000
   13    -15.50118    2.00000
   14    -15.36578    2.00000
   15    -14.97649    2.00000
   16    -14.31513    2.00000
   17    -13.68315    2.00000
   18    -13.24664    2.00000
   19    -12.81440    2.00000
   20    -12.68902    2.00000
   21    -11.85762    2.00000
   22    -11.63306    2.00000
   23    -11.31632    2.00000
   24    -10.66930    2.00000
   25    -10.02519    2.00000
   26     -9.89016    2.00000
   27     -9.34434    2.00000
   28     -9.28423    2.00000
   29     -9.11503    2.00000
   30     -8.77321    2.00000
   31     -8.62417    2.00000
   32     -8.29812    2.00000
   33     -8.18926    2.00000
   34     -7.96178    2.00000
   35     -7.40582    2.00000
   36     -7.22907    2.00000
   37     -6.90341    2.00000
   38     -6.78748    2.00000
   39     -6.50989    2.00000
   40     -6.36964    2.00000
   41     -6.06028    2.00000
   42     -5.95183    2.00000
   43     -5.64432    2.00000
   44     -5.51086    1.99999
   45     -5.20104    1.99982
   46     -5.02461    1.99895
   47     -4.47532    1.77424
   48     -4.06243    0.22464
   49     -3.56618    0.00177
   50     -3.44844    0.00055
   51     -3.16815    0.00003
   52     -2.98057    0.00001
   53     -2.71838    0.00000
   54     -2.39919    0.00000
   55     -1.96893    0.00000
   56     -1.83241    0.00000
   57     -1.41996    0.00000
   58     -0.87744    0.00000
   59     -0.61763    0.00000
   60     -0.34735    0.00000
   61     -0.09373    0.00000
   62      0.31539    0.00000
   63      0.75462    0.00000
   64      1.62676    0.00000
   65      1.89500    0.00000
   66      2.42392    0.00000
   67      3.39349    0.00000
   68      3.57252    0.00000
   69      4.05481    0.00000
   70      4.98612    0.00000
   71      5.16109    0.00000
   72      5.76712    0.00000
   73      5.87371    0.00000
   74      6.14999    0.00000
   75      6.91928    0.00000
   76      7.19796    0.00000
   77      7.33315    0.00000
   78      7.57650    0.00000
   79      7.82681    0.00000
   80      8.11693    0.00000
   81      8.28204    0.00000
   82      8.33793    0.00000
   83      8.67893    0.00000
   84      8.92723    0.00000
   85      9.03378    0.00000
   86      9.13584    0.00000
   87      9.16065    0.00000
   88      9.26039    0.00000
   89      9.34328    0.00000
   90      9.40801    0.00000
   91      9.50516    0.00000
   92      9.75691    0.00000
   93      9.84891    0.00000
   94      9.97176    0.00000
   95     10.02807    0.00000
   96     10.17294    0.00000
   97     10.21572    0.00000


Forces in eV/Ang:
  0 C     0.84321    0.15567    0.48924
  1 C    -0.12959   -0.10950    0.10442
  2 C     0.37245   -0.01112    0.23464
  3 C    -0.78880    0.33665    0.16085
  4 C     0.16840    0.25893    0.18147
  5 C    -3.49719    1.93038   -3.22814
  6 C     0.16859   -0.02481    0.18424
  7 C     0.00648    0.21318    0.59707
  8 C    -0.65369    0.01647   -1.59591
  9 C    -0.67837    1.43747   -2.30954
 10 C    -1.28472    1.01122    0.74187
 11 C    -0.26812    3.41211   -1.64716
 12 C    -0.08445   -1.11355    0.33517
 13 C     1.28513   -1.41674   -0.30357
 14 C     2.41529    0.52719    3.04295
 15 C    -0.01967   -0.20768    0.01610
 16 C     0.11107   -0.00881   -0.05325
 17 C     0.08680   -0.03726    0.06676
 18 C     0.48930   -0.85482   -0.09787
 19 C     2.04030   -2.51250    1.77778
 20 C    -0.07060   -1.75884    0.98258
 21 C    -0.97778   -1.30696    0.48015
 22 C     0.11257   -0.06826   -0.05357
 23 C     0.32031    0.13483   -0.10235

System changes: positions 

Initializing position-dependent things.

Density initialized from wave functions
           .--------------------------------------.  
          /|                                      |  
         / |                                      |  
        /  |                                      |  
       /   |                                      |  
      /    |                                      |  
     /     |                                      |  
    /      |                                      |  
   /       |                                      |  
  /        |   C  C   C C C                       |  
 *         | C            C C C                   |  
 |         | C       C          C                 |  
 |         .---C---C--C--C-----C------------------.  
 |        /    C            C                    /   
 |       /       C  C     C                     /    
 |      /              C                       /     
 |     /                                      /      
 |    /                                      /       
 |   /                                      /        
 |  /                                      /         
 | /                                      /          
 |/                                      /           
 *--------------------------------------*            

Positions:
   0 C     10.721385    5.961377    4.885314
   1 C      9.263761    3.891130    4.348523
   2 C      9.573620    5.139480    4.885464
   3 C     10.796118    7.114355    5.410892
   4 C      8.154492    3.279418    4.423291
   5 C      9.724578    7.882660    6.036984
   6 C      8.408663    5.747797    5.633552
   7 C      6.993426    3.704943    5.079234
   8 C      8.545169    7.079671    6.187061
   9 C      7.129844    5.084092    5.643905
  10 C      5.690519    3.172757    5.231148
  11 C      4.715546    3.772368    5.823526
  12 C      7.902389    9.941307    5.280621
  13 C      6.801828   10.730789    5.304742
  14 C      8.658554    8.841300    5.319075
  15 C      5.561787   11.112267    5.377209
  16 C      4.279562   10.819792    5.469393
  17 C      3.294839    9.975727    5.555582
  18 C      2.910019    7.467585    5.625128
  19 C      5.914693    6.113537    5.450369
  20 C      4.546546    5.455444    5.524544
  21 C      6.389847    7.448605    5.351016
  22 C      2.778573    8.773150    5.617191
  23 C      3.436804    6.271418    5.595449

Unit cell:
           periodic     x           y           z      points  spacing
  1. axis:    yes   16.000000    0.000000    0.000000    80     0.2000
  2. axis:    yes    0.000000   16.000000    0.000000    80     0.2000
  3. axis:    yes    0.000000    0.000000   10.000000    48     0.2083

Effective grid spacing dv^(1/3) = 0.2027

                     log10-error:    total        iterations:
           time      wfs    density  energy       fermi  poisson
iter:   1  11:43:58          +inf  -177.059470    3      5      
iter:   2  11:43:59         -1.89  -176.985935    2      2      
iter:   3  11:44:00         -2.06  -176.929619    3      2      
iter:   4  11:44:00         -2.46  -176.922416    2      2      
iter:   5  11:44:01         -2.69  -176.921392    2      2      
iter:   6  11:44:01         -2.82  -176.920789    2      2      
iter:   7  11:44:02         -2.96  -176.920101    2      2      
iter:   8  11:44:02         -3.34  -176.919984    2      1      
iter:   9  11:44:03         -3.41  -176.919921    2      1      
iter:  10  11:44:03         -3.53  -176.919427    2      1      
iter:  11  11:44:04         -3.78  -176.920072    2      1      
iter:  12  11:44:04         -3.92  -176.920855    2      1      
iter:  13  11:44:05         -4.06  -176.920711    2      1      

Converged after 13 iterations.

Dipole moment: (-0.074785, 0.259455, -0.002066) |e|*Ang

Energy contributions relative to reference atoms: (reference = -24663.074771)

Kinetic:        +67.884235
Potential:      -84.721835
External:        +0.000000
XC:            -162.999130
Entropy (-ST):   -0.134227
Local:           +2.983133
--------------------------
Free energy:   -176.987824
Extrapolated:  -176.920711

Fermi level: -4.23050

 Band  Eigenvalues  Occupancy
    0    -22.17400    2.00000
    1    -21.19312    2.00000
    2    -20.65604    2.00000
    3    -20.35668    2.00000
    4    -20.01347    2.00000
    5    -19.37514    2.00000
    6    -19.23792    2.00000
    7    -19.10463    2.00000
    8    -18.28968    2.00000
    9    -17.94269    2.00000
   10    -17.61962    2.00000
   11    -16.90978    2.00000
   12    -16.34988    2.00000
   13    -15.52287    2.00000
   14    -15.35992    2.00000
   15    -14.98505    2.00000
   16    -14.28566    2.00000
   17    -13.68854    2.00000
   18    -13.23596    2.00000
   19    -12.85476    2.00000
   20    -12.67398    2.00000
   21    -11.85404    2.00000
   22    -11.64044    2.00000
   23    -11.40089    2.00000
   24    -10.73022    2.00000
   25    -10.07231    2.00000
   26    -10.01443    2.00000
   27     -9.35424    2.00000
   28     -9.25747    2.00000
   29     -9.16593    2.00000
   30     -8.82930    2.00000
   31     -8.60857    2.00000
   32     -8.29842    2.00000
   33     -8.21676    2.00000
   34     -7.92891    2.00000
   35     -7.38366    2.00000
   36     -7.23736    2.00000
   37     -6.92174    2.00000
   38     -6.77461    2.00000
   39     -6.48467    2.00000
   40     -6.35738    2.00000
   41     -6.08741    2.00000
   42     -5.95334    2.00000
   43     -5.67321    2.00000
   44     -5.51988    1.99999
   45     -5.21108    1.99989
   46     -5.02377    1.99928
   47     -4.44786    1.79571
   48     -4.01241    0.20297
   49     -3.51364    0.00154
   50     -3.41229    0.00056
   51     -3.16455    0.00005
   52     -2.97214    0.00001
   53     -2.69868    0.00000
   54     -2.34106    0.00000
   55     -1.94988    0.00000
   56     -1.76724    0.00000
   57     -1.35807    0.00000
   58     -0.86174    0.00000
   59     -0.58984    0.00000
   60     -0.33918    0.00000
   61     -0.01802    0.00000
   62      0.38940    0.00000
   63      0.84584    0.00000
   64      1.70839    0.00000
   65      1.94165    0.00000
   66      2.58193    0.00000
   67      3.63098    0.00000
   68      3.70009    0.00000
   69      4.17325    0.00000
   70      5.01597    0.00000
   71      5.14641    0.00000
   72      5.83455    0.00000
   73      5.92587    0.00000
   74      6.31975    0.00000
   75      6.85667    0.00000
   76      7.17357    0.00000
   77      7.36287    0.00000
   78      7.59325    0.00000
   79      7.86168    0.00000
   80      8.13594    0.00000
   81      8.30123    0.00000
   82      8.36746    0.00000
   83      8.73273    0.00000
   84      8.94344    0.00000
   85      9.06461    0.00000
   86      9.15184    0.00000
   87      9.17107    0.00000
   88      9.29621    0.00000
   89      9.37370    0.00000
   90      9.43902    0.00000
   91      9.52945    0.00000
   92      9.76251    0.00000
   93      9.84973    0.00000
   94      9.98292    0.00000
   95     10.02758    0.00000
   96     10.20582    0.00000
   97     10.22112    0.00000


Forces in eV/Ang:
  0 C     0.69259    0.24424    0.55636
  1 C    -0.14498   -0.10139    0.12196
  2 C     0.39089   -0.00322    0.25731
  3 C    -0.87134    0.45249    0.15690
  4 C     0.13310    0.23812    0.22362
  5 C    -2.99805    1.59777   -3.15727
  6 C     0.21730   -0.01405    0.01119
  7 C    -0.05601    0.16036    0.51019
  8 C    -0.88314   -0.14477   -1.41940
  9 C    -0.57656    1.15784   -2.09613
 10 C    -1.27725    1.11431    0.80919
 11 C    -0.07676    3.34048   -1.74523
 12 C    -0.34256   -0.76897    0.32169
 13 C     1.44182   -1.59031   -0.29932
 14 C     2.26507    0.67235    2.77731
 15 C    -0.16538   -0.27535    0.04905
 16 C     0.49945    0.17187   -0.10565
 17 C    -0.18445   -0.42626    0.11491
 18 C     0.58246   -1.00813   -0.08675
 19 C     1.66513   -2.20156    1.60637
 20 C     0.06019   -1.74877    1.00283
 21 C    -0.83806   -1.35730    0.55524
 22 C     0.21477    0.21923   -0.08762
 23 C     0.25676    0.23074   -0.09520

System changes: positions 

Initializing position-dependent things.

Density initialized from wave functions
           .--------------------------------------.  
          /|                                      |  
         / |                                      |  
        /  |                                      |  
       /   |                                      |  
      /    |                                      |  
     /     |                                      |  
    /      |                                      |  
   /       |                                      |  
  /        |   C  C   C C C                       |  
 *         | C            C C C                   |  
 |         | C       C          C                 |  
 |         .---C---C--C--C-----C------------------.  
 |        /    C            C                    /   
 |       /       C  C     C                     /    
 |      /              C                       /     
 |     /                                      /      
 |    /                                      /       
 |   /                                      /        
 |  /                                      /         
 | /                                      /          
 |/                                      /           
 *--------------------------------------*            

Positions:
   0 C     10.727089    5.961894    4.889381
   1 C      9.264473    3.891683    4.349653
   2 C      9.577055    5.139099    4.887799
   3 C     10.788896    7.119613    5.412627
   4 C      8.153469    3.280419    4.425667
   5 C      9.698054    7.896478    6.010421
   6 C      8.409796    5.746740    5.633279
   7 C      6.992929    3.706448    5.083756
   8 C      8.537352    7.079282    6.174649
   9 C      7.126378    5.093325    5.625112
  10 C      5.683364    3.180957    5.236149
  11 C      4.711009    3.804877    5.809988
  12 C      7.907614    9.927877    5.283616
  13 C      6.803836   10.723080    5.302696
  14 C      8.677044    8.848764    5.342214
  15 C      5.565737   11.109287    5.377237
  16 C      4.280899   10.819858    5.468699
  17 C      3.294827    9.974287    5.556454
  18 C      2.912814    7.465027    5.624474
  19 C      5.928260    6.094357    5.464543
  20 C      4.546065    5.440249    5.533627
  21 C      6.383092    7.436943    5.356209
  22 C      2.780087    8.772021    5.616561
  23 C      3.442707    6.267965    5.594375

Unit cell:
           periodic     x           y           z      points  spacing
  1. axis:    yes   16.000000    0.000000    0.000000    80     0.2000
  2. axis:    yes    0.000000   16.000000    0.000000    80     0.2000
  3. axis:    yes    0.000000    0.000000   10.000000    48     0.2083

Effective grid spacing dv^(1/3) = 0.2027

                     log10-error:    total        iterations:
           time      wfs    density  energy       fermi  poisson
iter:   1  11:44:07          +inf  -177.767236    3      5      
iter:   2  11:44:07         -1.88  -177.689861    2      2      
iter:   3  11:44:08         -2.04  -177.628217    3      2      
iter:   4  11:44:08         -2.46  -177.620641    2      2      
iter:   5  11:44:09         -2.69  -177.619811    2      2      
iter:   6  11:44:10         -2.81  -177.619178    2      2      
iter:   7  11:44:10         -2.96  -177.618521    2      2      
iter:   8  11:44:11         -3.34  -177.618432    2      1      
iter:   9  11:44:11         -3.43  -177.618445    2      1      
iter:  10  11:44:12         -3.52  -177.617998    1      1      
iter:  11  11:44:12         -3.72  -177.618635    1      1      
iter:  12  11:44:13         -3.88  -177.619332    2      1      
iter:  13  11:44:13         -3.96  -177.619708    2      1      
iter:  14  11:44:14         -4.13  -177.619184    1      1      

Converged after 14 iterations.

Dipole moment: (-0.083310, 0.233225, 0.012100) |e|*Ang

Energy contributions relative to reference atoms: (reference = -24663.074771)

Kinetic:        +69.176118
Potential:      -85.896496
External:        +0.000000
XC:            -163.829313
Entropy (-ST):   -0.126391
Local:           +2.993703
--------------------------
Free energy:   -177.682380
Extrapolated:  -177.619184

Fermi level: -4.18752

 Band  Eigenvalues  Occupancy
    0    -22.19910    2.00000
    1    -21.26477    2.00000
    2    -20.64263    2.00000
    3    -20.37998    2.00000
    4    -20.00434    2.00000
    5    -19.39664    2.00000
    6    -19.24319    2.00000
    7    -19.14212    2.00000
    8    -18.28560    2.00000
    9    -17.94278    2.00000
   10    -17.63556    2.00000
   11    -16.90643    2.00000
   12    -16.35312    2.00000
   13    -15.54552    2.00000
   14    -15.36024    2.00000
   15    -14.99102    2.00000
   16    -14.26268    2.00000
   17    -13.69698    2.00000
   18    -13.23238    2.00000
   19    -12.89947    2.00000
   20    -12.66614    2.00000
   21    -11.86052    2.00000
   22    -11.67890    2.00000
   23    -11.45980    2.00000
   24    -10.81401    2.00000
   25    -10.16193    2.00000
   26    -10.08826    2.00000
   27     -9.38644    2.00000
   28     -9.23572    2.00000
   29     -9.18419    2.00000
   30     -8.90217    2.00000
   31     -8.58918    2.00000
   32     -8.30187    2.00000
   33     -8.23703    2.00000
   34     -7.88861    2.00000
   35     -7.36880    2.00000
   36     -7.23675    2.00000
   37     -6.94593    2.00000
   38     -6.75845    2.00000
   39     -6.45971    2.00000
   40     -6.33994    2.00000
   41     -6.12947    2.00000
   42     -5.94406    2.00000
   43     -5.69865    2.00000
   44     -5.53084    2.00000
   45     -5.22260    1.99994
   46     -5.01429    1.99949
   47     -4.41461    1.81288
   48     -3.95942    0.18542
   49     -3.47198    0.00156
   50     -3.38354    0.00064
   51     -3.15933    0.00007
   52     -2.96185    0.00001
   53     -2.68561    0.00000
   54     -2.28304    0.00000
   55     -1.92440    0.00000
   56     -1.68776    0.00000
   57     -1.28252    0.00000
   58     -0.85774    0.00000
   59     -0.56276    0.00000
   60     -0.32844    0.00000
   61      0.04767    0.00000
   62      0.48263    0.00000
   63      0.92848    0.00000
   64      1.78899    0.00000
   65      1.99287    0.00000
   66      2.73080    0.00000
   67      3.71151    0.00000
   68      4.04663    0.00000
   69      4.30629    0.00000
   70      5.05015    0.00000
   71      5.13365    0.00000
   72      5.85417    0.00000
   73      5.98328    0.00000
   74      6.53345    0.00000
   75      6.79464    0.00000
   76      7.16092    0.00000
   77      7.40778    0.00000
   78      7.60965    0.00000
   79      7.89302    0.00000
   80      8.16891    0.00000
   81      8.34652    0.00000
   82      8.42036    0.00000
   83      8.76850    0.00000
   84      8.97276    0.00000
   85      9.09671    0.00000
   86      9.17931    0.00000
   87      9.20133    0.00000
   88      9.33406    0.00000
   89      9.39824    0.00000
   90      9.47091    0.00000
   91      9.58499    0.00000
   92      9.76092    0.00000
   93      9.85711    0.00000
   94     10.00180    0.00000
   95     10.02970    0.00000
   96     10.22613    0.00000
   97     10.23731    0.00000


Forces in eV/Ang:
  0 C     0.57576    0.37346    0.63999
  1 C    -0.25512   -0.17318    0.13457
  2 C     0.40965    0.01870    0.27919
  3 C    -0.92317    0.47491    0.09522
  4 C     0.21467    0.25132    0.23833
  5 C    -2.46300    1.20148   -2.93035
  6 C     0.24110   -0.00642   -0.15193
  7 C    -0.13181    0.09750    0.41330
  8 C    -1.06707   -0.25994   -1.26245
  9 C    -0.42905    0.85822   -1.84250
 10 C    -1.23837    1.18742    0.84718
 11 C     0.07802    3.16619   -1.77512
 12 C    -0.68781   -0.29031    0.30982
 13 C     1.64057   -1.74943   -0.29136
 14 C     2.08427    0.83211    2.41037
 15 C    -0.25215   -0.32592    0.07862
 16 C     0.50443    0.11301   -0.12888
 17 C    -0.07673   -0.31901    0.12307
 18 C     0.68787   -1.15547   -0.07792
 19 C     1.26595   -1.85986    1.44446
 20 C     0.20935   -1.72047    0.96713
 21 C    -0.68475   -1.36177    0.64174
 22 C     0.22048    0.14709   -0.10793
 23 C     0.08507    0.46124   -0.07367

System changes: positions 

Initializing position-dependent things.

Density initialized from wave functions
           .--------------------------------------.  
          /|                                      |  
         / |                                      |  
        /  |                                      |  
       /   |                                      |  
      /    |                                      |  
     /     |                                      |  
    /      |                                      |  
   /       |                                      |  
  /        |   C  C   C C C                       |  
 *         | C            C C C                   |  
 |         | C       C          C                 |  
 |         .---C---C--C--C-----C------------------.  
 |        /    C            C                    /   
 |       /       C  C     C                     /    
 |      /              C                       /     
 |     /                                      /      
 |    /                                      /       
 |   /                                      /        
 |  /                                      /         
 | /                                      /          
 |/                                      /           
 *--------------------------------------*            

Positions:
   0 C     10.732915    5.963494    4.894802
   1 C      9.264343    3.891633    4.351082
   2 C      9.581232    5.138780    4.890725
   3 C     10.780151    7.125771    5.413861
   4 C      8.153127    3.281611    4.428510
   5 C      9.671927    7.908259    5.982583
   6 C      8.411141    5.745416    5.631474
   7 C      6.991671    3.707598    5.088184
   8 C      8.526901    7.078236    6.161275
   9 C      7.124082    5.101272    5.605376
  10 C      5.675862    3.190862    5.241952
  11 C      4.706518    3.841389    5.794281
  12 C      7.911160    9.916191    5.287134
  13 C      6.806925   10.713269    5.300443
  14 C      8.696292    8.859987    5.365047
  15 C      5.570491   11.105263    5.377486
  16 C      4.281107   10.818555    5.467777
  17 C      3.297019    9.975153    5.557431
  18 C      2.916926    7.461350    5.623788
  19 C      5.940365    6.075263    5.479830
  20 C      4.546417    5.423011    5.543809
  21 C      6.376618    7.423350    5.363197
  22 C      2.781623    8.768603    5.615678
  23 C      3.448232    6.265806    5.593335

Unit cell:
           periodic     x           y           z      points  spacing
  1. axis:    yes   16.000000    0.000000    0.000000    80     0.2000
  2. axis:    yes    0.000000   16.000000    0.000000    80     0.2000
  3. axis:    yes    0.000000    0.000000   10.000000    48     0.2083

Effective grid spacing dv^(1/3) = 0.2027

                     log10-error:    total        iterations:
           time      wfs    density  energy       fermi  poisson
iter:   1  11:44:16          +inf  -178.425369    3      5      
iter:   2  11:44:16         -1.88  -178.348095    2      2      
iter:   3  11:44:17         -2.04  -178.285471    3      2      
iter:   4  11:44:17         -2.46  -178.278025    2      2      
iter:   5  11:44:18         -2.68  -178.277267    2      2      
iter:   6  11:44:18         -2.80  -178.276695    2      2      
iter:   7  11:44:19         -2.96  -178.276126    2      2      
iter:   8  11:44:20         -3.35  -178.276036    2      1      
iter:   9  11:44:20         -3.45  -178.276433    2      1      
iter:  10  11:44:21         -3.52  -178.276007    1      1      
iter:  11  11:44:21         -3.69  -178.276386    2      1      
iter:  12  11:44:22         -3.82  -178.277451    2      1      
iter:  13  11:44:22         -3.92  -178.277472    2      1      
iter:  14  11:44:23         -3.99  -178.276833    1      1      
iter:  15  11:44:23         -4.22  -178.276928    1      1      

Converged after 15 iterations.

Dipole moment: (-0.095070, 0.201370, 0.025630) |e|*Ang

Energy contributions relative to reference atoms: (reference = -24663.074771)

Kinetic:        +71.788062
Potential:      -88.112538
External:        +0.000000
XC:            -164.898735
Entropy (-ST):   -0.122729
Local:           +3.007648
--------------------------
Free energy:   -178.338293
Extrapolated:  -178.276928

Fermi level: -4.14761

 Band  Eigenvalues  Occupancy
    0    -22.23007    2.00000
    1    -21.34539    2.00000
    2    -20.64680    2.00000
    3    -20.40069    2.00000
    4    -19.99314    2.00000
    5    -19.43125    2.00000
    6    -19.24328    2.00000
    7    -19.18335    2.00000
    8    -18.28462    2.00000
    9    -17.94741    2.00000
   10    -17.65419    2.00000
   11    -16.90601    2.00000
   12    -16.35556    2.00000
   13    -15.58055    2.00000
   14    -15.36871    2.00000
   15    -14.99918    2.00000
   16    -14.24431    2.00000
   17    -13.70792    2.00000
   18    -13.24037    2.00000
   19    -12.94299    2.00000
   20    -12.66410    2.00000
   21    -11.88711    2.00000
   22    -11.74513    2.00000
   23    -11.49398    2.00000
   24    -10.92098    2.00000
   25    -10.26623    2.00000
   26    -10.12484    2.00000
   27     -9.43367    2.00000
   28     -9.22770    2.00000
   29     -9.17689    2.00000
   30     -8.97455    2.00000
   31     -8.57297    2.00000
   32     -8.30859    2.00000
   33     -8.24600    2.00000
   34     -7.84365    2.00000
   35     -7.36041    2.00000
   36     -7.23700    2.00000
   37     -6.97930    2.00000
   38     -6.75261    2.00000
   39     -6.45082    2.00000
   40     -6.31733    2.00000
   41     -6.17218    2.00000
   42     -5.93275    2.00000
   43     -5.71788    2.00000
   44     -5.54290    2.00000
   45     -5.22909    1.99996
   46     -4.99635    1.99959
   47     -4.37939    1.82069
   48     -3.91462    0.17736
   49     -3.43263    0.00157
   50     -3.35635    0.00073
   51     -3.14268    0.00009
   52     -2.95110    0.00001
   53     -2.67862    0.00000
   54     -2.22402    0.00000
   55     -1.88194    0.00000
   56     -1.60302    0.00000
   57     -1.21040    0.00000
   58     -0.84556    0.00000
   59     -0.52470    0.00000
   60     -0.31076    0.00000
   61      0.10989    0.00000
   62      0.60319    0.00000
   63      1.00288    0.00000
   64      1.85941    0.00000
   65      2.06039    0.00000
   66      2.87598    0.00000
   67      3.80893    0.00000
   68      4.29988    0.00000
   69      4.58950    0.00000
   70      5.08055    0.00000
   71      5.14303    0.00000
   72      5.87502    0.00000
   73      6.04617    0.00000
   74      6.67066    0.00000
   75      6.81307    0.00000
   76      7.13491    0.00000
   77      7.46760    0.00000
   78      7.64233    0.00000
   79      7.91925    0.00000
   80      8.21470    0.00000
   81      8.40266    0.00000
   82      8.50345    0.00000
   83      8.80392    0.00000
   84      9.00593    0.00000
   85      9.10459    0.00000
   86      9.19186    0.00000
   87      9.25463    0.00000
   88      9.38312    0.00000
   89      9.42792    0.00000
   90      9.50124    0.00000
   91      9.66457    0.00000
   92      9.75849    0.00000
   93      9.87269    0.00000
   94     10.01083    0.00000
   95     10.04440    0.00000
   96     10.23332    0.00000
   97     10.27001    0.00000


Forces in eV/Ang:
  0 C     0.44287    0.41085    0.68262
  1 C    -0.25317   -0.16841    0.14912
  2 C     0.42495    0.02879    0.29553
  3 C    -0.96785    0.54430    0.04361
  4 C     0.18640    0.20408    0.26540
  5 C    -1.83166    0.64978   -2.54023
  6 C     0.27395   -0.00704   -0.31037
  7 C    -0.17571    0.03532    0.29231
  8 C    -1.23384   -0.36719   -1.08687
  9 C    -0.27312    0.51342   -1.57660
 10 C    -1.20283    1.25330    0.88818
 11 C     0.27470    2.79331   -1.78197
 12 C    -0.83127    0.05839    0.27329
 13 C     1.59484   -1.75172   -0.27054
 14 C     1.73357    1.14328    1.92609
 15 C    -0.36343   -0.38495    0.10503
 16 C     0.79748    0.23505   -0.17275
 17 C    -0.28458   -0.64632    0.16234
 18 C     0.74179   -1.17988   -0.06465
 19 C     0.85145   -1.49710    1.26725
 20 C     0.21903   -1.42256    0.91027
 21 C    -0.47498   -1.30117    0.71526
 22 C     0.31470    0.38439   -0.14231
 23 C     0.05115    0.45791   -0.05724

System changes: positions 

Initializing position-dependent things.

Density initialized from wave functions
           .--------------------------------------.  
          /|                                      |  
         / |                                      |  
        /  |                                      |  
       /   |                                      |  
      /    |                                      |  
     /     |                                      |  
    /      |                                      |  
   /       |                                      |  
  /        |   C  C   C C C                       |  
 *         | C            C CC                    |  
 |         | C       C          C                 |  
 |         .---C---C--C--C-----C------------------.  
 |        /    C            C                    /   
 |       /       C  C     C                     /    
 |      /              C                       /     
 |     /                                      /      
 |    /                                      /       
 |   /                                      /        
 |  /                                      /         
 | /                                      /          
 |/                                      /           
 *--------------------------------------*            

Positions:
   0 C     10.738502    5.965213    4.900965
   1 C      9.264471    3.891719    4.352774
   2 C      9.585940    5.138421    4.894058
   3 C     10.770295    7.132925    5.414550
   4 C      8.152458    3.282359    4.431802
   5 C      9.648455    7.915566    5.956641
   6 C      8.412769    5.743827    5.628322
   7 C      6.990195    3.708392    5.092026
   8 C      8.514429    7.076639    6.147727
   9 C      7.123125    5.107080    5.585639
  10 C      5.667518    3.202253    5.248748
  11 C      4.703388    3.877339    5.777024
  12 C      7.914656    9.905692    5.290660
  13 C      6.809245   10.703024    5.298163
  14 C      8.713362    8.876455    5.385305
  15 C      5.574800   11.100387    5.377952
  16 C      4.283782   10.818133    5.466407
  17 C      3.297491    9.972916    5.558848
  18 C      2.921779    7.457527    5.623142
  19 C      5.950466    6.057244    5.495415
  20 C      4.545767    5.408017    5.554397
  21 C      6.371438    7.409230    5.371522
  22 C      2.784230    8.767235    5.614391
  23 C      3.454633    6.262540    5.592315

Unit cell:
           periodic     x           y           z      points  spacing
  1. axis:    yes   16.000000    0.000000    0.000000    80     0.2000
  2. axis:    yes    0.000000   16.000000    0.000000    80     0.2000
  3. axis:    yes    0.000000    0.000000   10.000000    48     0.2083

Effective grid spacing dv^(1/3) = 0.2027

                     log10-error:    total        iterations:
           time      wfs    density  energy       fermi  poisson
iter:   1  11:44:25          +inf  -178.954073    3      5      
iter:   2  11:44:26         -1.92  -178.889875    2      2      
iter:   3  11:44:26         -2.07  -178.835222    3      2      
iter:   4  11:44:27         -2.49  -178.828694    2      2      
iter:   5  11:44:27         -2.69  -178.828219    2      2      
iter:   6  11:44:28         -2.81  -178.827738    2      2      
iter:   7  11:44:28         -3.00  -178.827310    2      2      
iter:   8  11:44:29         -3.40  -178.827789    2      1      
iter:   9  11:44:30         -3.52  -178.827448    2      1      
iter:  10  11:44:30         -3.67  -178.827782    2      1      
iter:  11  11:44:31         -3.76  -178.828270    2      1      
iter:  12  11:44:31         -3.99  -178.828376    2      1      
iter:  13  11:44:32         -4.07  -178.828387    2      1      

Converged after 13 iterations.

Dipole moment: (-0.110849, 0.172241, 0.037652) |e|*Ang

Energy contributions relative to reference atoms: (reference = -24663.074771)

Kinetic:        +75.541909
Potential:      -91.212141
External:        +0.000000
XC:            -166.121211
Entropy (-ST):   -0.121232
Local:           +3.023672
--------------------------
Free energy:   -178.889003
Extrapolated:  -178.828387

Fermi level: -4.11153

 Band  Eigenvalues  Occupancy
    0    -22.25884    2.00000
    1    -21.41561    2.00000
    2    -20.67476    2.00000
    3    -20.40892    2.00000
    4    -19.98789    2.00000
    5    -19.46560    2.00000
    6    -19.26537    2.00000
    7    -19.20626    2.00000
    8    -18.28223    2.00000
    9    -17.96472    2.00000
   10    -17.67240    2.00000
   11    -16.90734    2.00000
   12    -16.37703    2.00000
   13    -15.60917    2.00000
   14    -15.38152    2.00000
   15    -15.00490    2.00000
   16    -14.23674    2.00000
   17    -13.72066    2.00000
   18    -13.26422    2.00000
   19    -12.97564    2.00000
   20    -12.67424    2.00000
   21    -11.94212    2.00000
   22    -11.79302    2.00000
   23    -11.52470    2.00000
   24    -11.01928    2.00000
   25    -10.34573    2.00000
   26    -10.14512    2.00000
   27     -9.48026    2.00000
   28     -9.24207    2.00000
   29     -9.16296    2.00000
   30     -9.02422    2.00000
   31     -8.56715    2.00000
   32     -8.31852    2.00000
   33     -8.24831    2.00000
   34     -7.80205    2.00000
   35     -7.36005    2.00000
   36     -7.23225    2.00000
   37     -7.01594    2.00000
   38     -6.74644    2.00000
   39     -6.44730    2.00000
   40     -6.30083    2.00000
   41     -6.20488    2.00000
   42     -5.92025    2.00000
   43     -5.73269    2.00000
   44     -5.55559    2.00000
   45     -5.24459    1.99998
   46     -4.97450    1.99964
   47     -4.34532    1.82394
   48     -3.87636    0.17386
   49     -3.39781    0.00159
   50     -3.33857    0.00088
   51     -3.12161    0.00010
   52     -2.93375    0.00002
   53     -2.66854    0.00000
   54     -2.17371    0.00000
   55     -1.82913    0.00000
   56     -1.51515    0.00000
   57     -1.12875    0.00000
   58     -0.84059    0.00000
   59     -0.48747    0.00000
   60     -0.29339    0.00000
   61      0.17597    0.00000
   62      0.72131    0.00000
   63      1.06824    0.00000
   64      1.90010    0.00000
   65      2.15901    0.00000
   66      3.00768    0.00000
   67      3.91218    0.00000
   68      4.43019    0.00000
   69      4.93211    0.00000
   70      5.08492    0.00000
   71      5.20485    0.00000
   72      5.93004    0.00000
   73      6.12477    0.00000
   74      6.65303    0.00000
   75      6.96727    0.00000
   76      7.11490    0.00000
   77      7.53637    0.00000
   78      7.66056    0.00000
   79      7.94507    0.00000
   80      8.24286    0.00000
   81      8.47480    0.00000
   82      8.59515    0.00000
   83      8.82338    0.00000
   84      9.05625    0.00000
   85      9.14281    0.00000
   86      9.20607    0.00000
   87      9.27751    0.00000
   88      9.41302    0.00000
   89      9.48885    0.00000
   90      9.52681    0.00000
   91      9.72093    0.00000
   92      9.78681    0.00000
   93      9.89740    0.00000
   94     10.01465    0.00000
   95     10.06990    0.00000
   96     10.24538    0.00000
   97     10.30675    0.00000


Forces in eV/Ang:
  0 C     0.32418    0.46497    0.72149
  1 C    -0.30234   -0.20743    0.16382
  2 C     0.44123    0.04025    0.30415
  3 C    -0.96091    0.50835   -0.03159
  4 C     0.23047    0.17174    0.26554
  5 C    -1.26146    0.17947   -2.11245
  6 C     0.28857   -0.01910   -0.44539
  7 C    -0.24649   -0.03239    0.17154
  8 C    -1.37614   -0.48036   -0.96333
  9 C    -0.13456    0.18921   -1.28505
 10 C    -1.04772    1.20147    0.85999
 11 C     0.37618    2.25844   -1.68502
 12 C    -1.12054    0.53143    0.22657
 13 C     1.58804   -1.71775   -0.24118
 14 C     1.50057    1.30913    1.46733
 15 C    -0.39442   -0.40931    0.12402
 16 C     0.71174    0.13806   -0.18840
 17 C    -0.13836   -0.50209    0.16528
 18 C     0.81998   -1.21297   -0.05520
 19 C     0.46898   -1.12872    1.11900
 20 C     0.28997   -1.00684    0.82646
 21 C    -0.23769   -1.23734    0.78186
 22 C     0.30743    0.26417   -0.15989
 23 C    -0.13719    0.63768   -0.03665

System changes: positions 

Initializing position-dependent things.

Density initialized from wave functions
           .--------------------------------------.  
          /|                                      |  
         / |                                      |  
        /  |                                      |  
       /   |                                      |  
      /    |                                      |  
     /     |                                      |  
    /      |                                      |  
   /       |                                      |  
  /        |   C  C   C C C                       |  
 *         | C            C CC                    |  
 |         | C       C          C                 |  
 |         .---C---C--C--C-----C------------------.  
 |        /    C            C                    /   
 |       /       C  C     C                     /    
 |      /              C                       /     
 |     /                                      /      
 |    /                                      /       
 |   /                                      /        
 |  /                                      /         
 | /                                      /          
 |/                                      /           
 *--------------------------------------*            

Positions:
   0 C     10.744142    5.967465    4.908403
   1 C      9.264234    3.891410    4.354903
   2 C      9.591621    5.138060    4.897980
   3 C     10.759112    7.140418    5.414445
   4 C      8.152239    3.282800    4.435508
   5 C      9.626189    7.919228    5.931423
   6 C      8.414773    5.741782    5.623571
   7 C      6.987792    3.708637    5.095330
   8 C      8.498840    7.073824    6.132534
   9 C      7.123187    5.110907    5.565292
  10 C      5.659635    3.214470    5.256131
  11 C      4.700406    3.912565    5.758310
  12 C      7.915556    9.898396    5.294250
  13 C      6.811616   10.691850    5.295825
  14 C      8.731044    8.897549    5.404257
  15 C      5.579789   11.094591    5.378638
  16 C      4.285107   10.816168    5.464729
  17 C      3.300241    9.972634    5.560451
  18 C      2.928318    7.452869    5.622454
  19 C      5.959027    6.039620    5.512598
  20 C      4.545265    5.396270    5.565749
  21 C      6.367878    7.393521    5.381859
  22 C      2.786993    8.763621    5.612745
  23 C      3.459850    6.260822    5.591344

Unit cell:
           periodic     x           y           z      points  spacing
  1. axis:    yes   16.000000    0.000000    0.000000    80     0.2000
  2. axis:    yes    0.000000   16.000000    0.000000    80     0.2000
  3. axis:    yes    0.000000    0.000000   10.000000    48     0.2083

Effective grid spacing dv^(1/3) = 0.2027

                     log10-error:    total        iterations:
           time      wfs    density  energy       fermi  poisson
iter:   1  11:44:33          +inf  -179.400467    3      5      
iter:   2  11:44:34         -1.97  -179.349733    2      2      
iter:   3  11:44:35         -2.12  -179.305447    2      2      
iter:   4  11:44:35         -2.51  -179.300081    2      2      
iter:   5  11:44:36         -2.70  -179.299762    2      2      
iter:   6  11:44:36         -2.83  -179.299384    2      2      
iter:   7  11:44:37         -3.02  -179.299151    2      2      
iter:   8  11:44:37         -3.44  -179.299772    2      1      
iter:   9  11:44:38         -3.52  -179.300045    2      1      
iter:  10  11:44:39         -3.62  -179.299594    2      1      
iter:  11  11:44:39         -3.79  -179.299837    2      1      
iter:  12  11:44:40         -3.95  -179.300132    2      1      
iter:  13  11:44:40         -4.02  -179.301005    2      1      

Converged after 13 iterations.

Dipole moment: (-0.125831, 0.144946, 0.048924) |e|*Ang

Energy contributions relative to reference atoms: (reference = -24663.074771)

Kinetic:        +80.395424
Potential:      -95.161748
External:        +0.000000
XC:            -167.505768
Entropy (-ST):   -0.123888
Local:           +3.033030
--------------------------
Free energy:   -179.362949
Extrapolated:  -179.301005

Fermi level: -4.08426

 Band  Eigenvalues  Occupancy
    0    -22.28766    2.00000
    1    -21.47546    2.00000
    2    -20.71926    2.00000
    3    -20.40625    2.00000
    4    -19.99064    2.00000
    5    -19.49897    2.00000
    6    -19.30883    2.00000
    7    -19.21700    2.00000
    8    -18.28669    2.00000
    9    -17.98521    2.00000
   10    -17.69100    2.00000
   11    -16.91304    2.00000
   12    -16.39890    2.00000
   13    -15.64430    2.00000
   14    -15.39648    2.00000
   15    -15.01668    2.00000
   16    -14.23769    2.00000
   17    -13.73603    2.00000
   18    -13.29890    2.00000
   19    -12.99939    2.00000
   20    -12.69467    2.00000
   21    -12.01432    2.00000
   22    -11.82568    2.00000
   23    -11.57240    2.00000
   24    -11.08789    2.00000
   25    -10.40779    2.00000
   26    -10.15577    2.00000
   27     -9.52385    2.00000
   28     -9.27556    2.00000
   29     -9.15253    2.00000
   30     -9.05027    2.00000
   31     -8.57041    2.00000
   32     -8.32662    2.00000
   33     -8.25143    2.00000
   34     -7.76689    2.00000
   35     -7.36733    2.00000
   36     -7.23264    2.00000
   37     -7.05396    2.00000
   38     -6.75341    2.00000
   39     -6.46185    2.00000
   40     -6.29281    2.00000
   41     -6.21303    2.00000
   42     -5.91090    2.00000
   43     -5.74448    2.00000
   44     -5.56601    2.00000
   45     -5.26104    1.99998
   46     -4.94980    1.99965
   47     -4.31451    1.81817
   48     -3.85267    0.17964
   49     -3.36295    0.00147
   50     -3.32075    0.00097
   51     -3.09493    0.00010
   52     -2.91411    0.00002
   53     -2.65800    0.00000
   54     -2.12857    0.00000
   55     -1.76212    0.00000
   56     -1.42722    0.00000
   57     -1.05827    0.00000
   58     -0.82767    0.00000
   59     -0.44013    0.00000
   60     -0.26790    0.00000
   61      0.25452    0.00000
   62      0.83643    0.00000
   63      1.13432    0.00000
   64      1.92116    0.00000
   65      2.28188    0.00000
   66      3.14839    0.00000
   67      4.02438    0.00000
   68      4.55029    0.00000
   69      5.08597    0.00000
   70      5.14675    0.00000
   71      5.32542    0.00000
   72      6.01224    0.00000
   73      6.24506    0.00000
   74      6.63603    0.00000
   75      7.08447    0.00000
   76      7.12390    0.00000
   77      7.61164    0.00000
   78      7.68388    0.00000
   79      7.98444    0.00000
   80      8.26682    0.00000
   81      8.55531    0.00000
   82      8.66941    0.00000
   83      8.85816    0.00000
   84      9.08679    0.00000
   85      9.17139    0.00000
   86      9.21727    0.00000
   87      9.31747    0.00000
   88      9.43357    0.00000
   89      9.54442    0.00000
   90      9.55825    0.00000
   91      9.74577    0.00000
   92      9.83918    0.00000
   93      9.94006    0.00000
   94     10.02474    0.00000
   95     10.09911    0.00000
   96     10.25953    0.00000
   97     10.34481    0.00000


Forces in eV/Ang:
  0 C     0.22233    0.47019    0.72482
  1 C    -0.29897   -0.21388    0.18069
  2 C     0.42466    0.03083    0.28231
  3 C    -0.92089    0.47729   -0.09079
  4 C     0.23240    0.11701    0.26673
  5 C    -0.80943   -0.28416   -1.68128
  6 C     0.29301   -0.05625   -0.57101
  7 C    -0.27421   -0.09770    0.04197
  8 C    -1.45606   -0.51961   -0.84629
  9 C    -0.02524   -0.09624   -1.00383
 10 C    -0.89277    1.11135    0.80959
 11 C     0.47177    1.50450   -1.52565
 12 C    -1.19677    0.81709    0.19201
 13 C     1.40280   -1.54160   -0.20124
 14 C     1.25802    1.50915    1.01201
 15 C    -0.48435   -0.44072    0.13432
 16 C     0.89108    0.22209   -0.22239
 17 C    -0.28043   -0.74765    0.19317
 18 C     0.82379   -1.07821   -0.03564
 19 C     0.14341   -0.77756    0.99296
 20 C     0.30474   -0.37150    0.68011
 21 C     0.00821   -1.08946    0.86157
 22 C     0.36629    0.40885   -0.18544
 23 C    -0.19000    0.59939   -0.02545

System changes: positions 

Initializing position-dependent things.

Density initialized from wave functions
           .--------------------------------------.  
          /|                                      |  
         / |                                      |  
        /  |                                      |  
       /   |                                      |  
      /    |                                      |  
     /     |                                      |  
    /      |                                      |  
   /       |                                      |  
  /        |   C  C   C C C                       |  
 *         | C            C CC                    |  
 |         | C       C          C                 |  
 |         .---C---C--C--C-----C------------------.  
 |        /    C            C                    /   
 |       /       C  C     C                     /    
 |      /              C                       /     
 |     /                                      /      
 |    /                                      /       
 |   /                                      /        
 |  /                                      /         
 | /                                      /          
 |/                                      /           
 *--------------------------------------*            

Positions:
   0 C     10.750526    5.970295    4.917723
   1 C      9.263830    3.890756    4.357790
   2 C      9.598464    5.137402    4.902499
   3 C     10.745766    7.148863    5.413492
   4 C      8.152385    3.282813    4.440025
   5 C      9.601931    7.918861    5.904714
[...]

Fermi level: -4.38909

 Band  Eigenvalues  Occupancy
    0    -22.54422    2.00000
    1    -21.32544    2.00000
    2    -20.84160    2.00000
    3    -20.55626    2.00000
    4    -20.10375    2.00000
    5    -20.06159    2.00000
    6    -19.36212    2.00000
    7    -19.34004    2.00000
    8    -18.31084    2.00000
    9    -18.07672    2.00000
   10    -17.42853    2.00000
   11    -17.10057    2.00000
   12    -16.40240    2.00000
   13    -16.25102    2.00000
   14    -15.36639    2.00000
   15    -15.11095    2.00000
   16    -14.45121    2.00000
   17    -13.55184    2.00000
   18    -13.30361    2.00000
   19    -13.28752    2.00000
   20    -12.87001    2.00000
   21    -12.42960    2.00000
   22    -12.01082    2.00000
   23    -11.72539    2.00000
   24    -11.17886    2.00000
   25    -10.43817    2.00000
   26    -10.24228    2.00000
   27     -9.40563    2.00000
   28     -9.39652    2.00000
   29     -9.27234    2.00000
   30     -9.25171    2.00000
   31     -9.19387    2.00000
   32     -8.59608    2.00000
   33     -8.43638    2.00000
   34     -8.32604    2.00000
   35     -7.77364    2.00000
   36     -7.24377    2.00000
   37     -7.23239    2.00000
   38     -7.15920    2.00000
   39     -6.54886    2.00000
   40     -6.35506    2.00000
   41     -6.21345    2.00000
   42     -5.88091    2.00000
   43     -5.77731    2.00000
   44     -5.61364    1.99999
   45     -5.35015    1.99987
   46     -4.70658    1.91976
   47     -4.56681    1.71070
   48     -4.24069    0.36966
   49     -3.23360    0.00002
   50     -3.11749    0.00001
   51     -2.82988    0.00000
   52     -2.72306    0.00000
   53     -2.47180    0.00000
   54     -2.01487    0.00000
   55     -1.48847    0.00000
   56     -0.97932    0.00000
   57     -0.78611    0.00000
   58      0.26389    0.00000
   59      0.64241    0.00000
   60      0.68231    0.00000
   61      0.88351    0.00000
   62      1.39612    0.00000
   63      1.43962    0.00000
   64      3.81758    0.00000
   65      3.92764    0.00000
   66      4.98466    0.00000
   67      5.06382    0.00000
   68      5.32987    0.00000
   69      5.54963    0.00000
   70      5.69774    0.00000
   71      6.01445    0.00000
   72      6.07764    0.00000
   73      6.16260    0.00000
   74      6.26492    0.00000
   75      6.91495    0.00000
   76      7.28202    0.00000
   77      7.85861    0.00000
   78      7.97453    0.00000
   79      8.16886    0.00000
   80      8.36123    0.00000
   81      8.70657    0.00000
   82      8.90510    0.00000
   83      9.21035    0.00000
   84      9.24702    0.00000
   85      9.28758    0.00000
   86      9.39213    0.00000
   87      9.54608    0.00000
   88      9.72607    0.00000
   89      9.79275    0.00000
   90      9.90194    0.00000
   91      9.97136    0.00000
   92     10.01528    0.00000
   93     10.10347    0.00000
   94     10.28083    0.00000
   95     10.35716    0.00000
   96     10.39789    0.00000
   97     10.47446    0.00000


Forces in eV/Ang:
  0 C     0.02530    0.00173    0.01168
  1 C    -0.03273   -0.00258    0.01505
  2 C     0.00815    0.00146    0.01671
  3 C     0.03313   -0.04116   -0.00082
  4 C    -0.00692    0.00257    0.02358
  5 C     0.03136    0.02920    0.03069
  6 C    -0.05435   -0.03332   -0.01733
  7 C     0.02723   -0.02608    0.00253
  8 C     0.02442    0.01569   -0.00418
  9 C    -0.03274   -0.01489   -0.05399
 10 C     0.03508    0.02525    0.00602
 11 C     0.00175   -0.05651    0.03208
 12 C     0.02605   -0.00900   -0.03812
 13 C     0.03901   -0.06160    0.03828
 14 C    -0.10670    0.03200   -0.05013
 15 C    -0.04851    0.01901    0.02094
 16 C     0.02023   -0.00188   -0.00681
 17 C     0.07532    0.02959    0.04483
 18 C    -0.03977   -0.06261    0.00711
 19 C    -0.00497    0.01173   -0.04366
 20 C     0.01157    0.04369    0.01504
 21 C     0.09958    0.03275    0.02468
 22 C    -0.04873   -0.03172   -0.04390
 23 C    -0.03481    0.00771   -0.00155

System changes: positions 

Initializing position-dependent things.

Density initialized from wave functions
           .--------------------------------------.  
          /|                                      |  
         / |                                      |  
        /  |                                      |  
       /   |                                      |  
      /    |                                      |  
     /     |                                      |  
    /      |                                      |  
   /       |      C   C  C                        |  
  /        |    C          C                      |  
 *         |  C             C                     |  
 |         | C       C   C  C  C                  |  
 |         .----C--C-----C-----C------------------.  
 |        /    C     C      C                    /   
 |       /       C  C  C  C                     /    
 |      /                                      /     
 |     /                                      /      
 |    /                                      /       
 |   /                                      /        
 |  /                                      /         
 | /                                      /          
 |/                                      /           
 *--------------------------------------*            

Positions:
   0 C     10.569658    6.112838    5.037597
   1 C      9.420681    3.657720    4.913633
   2 C      9.608997    5.056959    5.062652
   3 C     10.316070    7.338311    5.184817
   4 C      8.338021    2.994411    4.951954
   5 C      9.090011    8.056529    5.384259
   6 C      8.309665    5.644748    5.297897
   7 C      7.015272    3.467670    5.156313
   8 C      7.995147    7.069985    5.446925
   9 C      7.098707    4.899044    5.341710
  10 C      5.637768    3.088405    5.195134
  11 C      4.670407    3.883093    5.343328
  12 C      7.904597   10.314977    5.522848
  13 C      6.824334   11.080086    5.549553
  14 C      8.809024    9.416569    5.473875
  15 C      5.543457   11.243548    5.561454
  16 C      4.258586   10.989679    5.623200
  17 C      3.451363    9.956581    5.631417
  18 C      3.186844    7.426659    5.637572
  19 C      5.975445    5.827002    5.505921
  20 C      4.595057    5.306412    5.496152
  21 C      6.580440    7.106874    5.584302
  22 C      3.027036    8.737601    5.667686
  23 C      3.530936    6.198150    5.591281

Unit cell:
           periodic     x           y           z      points  spacing
  1. axis:    yes   16.000000    0.000000    0.000000    80     0.2000
  2. axis:    yes    0.000000   16.000000    0.000000    80     0.2000
  3. axis:    yes    0.000000    0.000000   10.000000    48     0.2083

Effective grid spacing dv^(1/3) = 0.2027

                     log10-error:    total        iterations:
           time      wfs    density  energy       fermi  poisson
iter:   1  11:53:02          +inf  -184.046720    3      4      
iter:   2  11:53:03         -2.49  -184.041673    3      1      
iter:   3  11:53:03         -3.07  -184.041131    2      1      
iter:   4  11:53:04         -3.16  -184.041429    3      1      
iter:   5  11:53:05         -2.98  -184.053509    3      2      
iter:   6  11:53:05         -2.37  -184.042332    3      1      
iter:   7  11:53:06         -2.76  -184.040322    3      1      
iter:   8  11:53:06         -3.61  -184.041041    2      1      
iter:   9  11:53:07         -3.32  -184.040795    2      1      
iter:  10  11:53:07         -3.53  -184.040557    3      1      
iter:  11  11:53:08         -3.39  -184.040627    2      1      
iter:  12  11:53:08         -3.75  -184.040465    2      1      
iter:  13  11:53:09         -4.54  -184.040472    2      1      

Converged after 13 iterations.

Dipole moment: (-0.070595, 0.122830, -0.011345) |e|*Ang

Energy contributions relative to reference atoms: (reference = -24663.074771)

Kinetic:       +108.392972
Potential:     -118.349534
External:        +0.000000
XC:            -177.036419
Entropy (-ST):   -0.212680
Local:           +3.058849
--------------------------
Free energy:   -184.146812
Extrapolated:  -184.040472

Fermi level: -4.38760

 Band  Eigenvalues  Occupancy
    0    -22.53751    2.00000
    1    -21.31858    2.00000
    2    -20.83812    2.00000
    3    -20.55759    2.00000
    4    -20.10341    2.00000
    5    -20.05722    2.00000
    6    -19.35758    2.00000
    7    -19.34287    2.00000
    8    -18.31068    2.00000
    9    -18.07641    2.00000
   10    -17.43035    2.00000
   11    -17.10118    2.00000
   12    -16.40025    2.00000
   13    -16.24856    2.00000
   14    -15.36563    2.00000
   15    -15.10948    2.00000
   16    -14.45133    2.00000
   17    -13.54972    2.00000
   18    -13.29973    2.00000
   19    -13.28625    2.00000
   20    -12.87087    2.00000
   21    -12.42981    2.00000
   22    -12.00681    2.00000
   23    -11.72461    2.00000
   24    -11.17483    2.00000
   25    -10.43591    2.00000
   26    -10.23763    2.00000
   27     -9.40334    2.00000
   28     -9.39371    2.00000
   29     -9.26903    2.00000
   30     -9.25355    2.00000
   31     -9.19535    2.00000
   32     -8.59472    2.00000
   33     -8.43561    2.00000
   34     -8.32643    2.00000
   35     -7.77225    2.00000
   36     -7.24869    2.00000
   37     -7.23026    2.00000
   38     -7.16039    2.00000
   39     -6.54915    2.00000
   40     -6.35636    2.00000
   41     -6.21573    2.00000
   42     -5.88043    2.00000
   43     -5.77763    2.00000
   44     -5.61410    1.99999
   45     -5.35137    1.99987
   46     -4.70477    1.91951
   47     -4.56492    1.70972
   48     -4.23961    0.37089
   49     -3.23216    0.00002
   50     -3.11670    0.00001
   51     -2.82876    0.00000
   52     -2.72498    0.00000
   53     -2.47175    0.00000
   54     -2.00517    0.00000
   55     -1.49392    0.00000
   56     -0.97418    0.00000
   57     -0.78355    0.00000
   58      0.26500    0.00000
   59      0.64404    0.00000
   60      0.67874    0.00000
   61      0.88439    0.00000
   62      1.39694    0.00000
   63      1.43714    0.00000
   64      3.82198    0.00000
   65      3.92445    0.00000
   66      4.97922    0.00000
   67      5.05140    0.00000
   68      5.32708    0.00000
   69      5.55071    0.00000
   70      5.69796    0.00000
   71      5.99621    0.00000
   72      6.07053    0.00000
   73      6.14637    0.00000
   74      6.26654    0.00000
   75      6.90695    0.00000
   76      7.27882    0.00000
   77      7.86123    0.00000
   78      7.96801    0.00000
   79      8.16719    0.00000
   80      8.36169    0.00000
   81      8.70270    0.00000
   82      8.90062    0.00000
   83      9.20933    0.00000
   84      9.24733    0.00000
   85      9.27792    0.00000
   86      9.39074    0.00000
   87      9.53780    0.00000
   88      9.72713    0.00000
   89      9.79205    0.00000
   90      9.90609    0.00000
   91      9.97272    0.00000
   92     10.01344    0.00000
   93     10.09799    0.00000
   94     10.28115    0.00000
   95     10.34949    0.00000
   96     10.39775    0.00000
   97     10.47485    0.00000


Forces in eV/Ang:
  0 C     0.00097   -0.05467    0.00358
  1 C     0.00209    0.03713    0.02880
  2 C     0.00339   -0.01177    0.00274
  3 C    -0.02717   -0.00660    0.03362
  4 C    -0.02093    0.01779    0.03224
  5 C     0.05005    0.01981   -0.00623
  6 C    -0.03190   -0.02672   -0.00621
  7 C     0.00415    0.00998   -0.03582
  8 C    -0.03512    0.00510   -0.01460
  9 C    -0.06677    0.00192   -0.03189
 10 C     0.08504    0.04037    0.00986
 11 C    -0.00530   -0.00635    0.02435
 12 C    -0.04315    0.03883   -0.03325
 13 C     0.03116   -0.05843    0.02435
 14 C    -0.05521   -0.01196   -0.03440
 15 C     0.01973    0.01097    0.02660
 16 C     0.02309   -0.02290   -0.01190
 17 C     0.03304   -0.01450    0.03153
 18 C    -0.03357   -0.02563   -0.00043
 19 C    -0.01731    0.03133   -0.04016
 20 C     0.02170    0.00651    0.01907
 21 C    -0.01758    0.24603    0.05252
 22 C    -0.01243    0.00908   -0.01099
 23 C     0.02833   -0.00483   -0.00408

System changes: positions 

Initializing position-dependent things.

Density initialized from wave functions
           .--------------------------------------.  
          /|                                      |  
         / |                                      |  
        /  |                                      |  
       /   |                                      |  
      /    |                                      |  
     /     |                                      |  
    /      |                                      |  
   /       |      C   C  C                        |  
  /        |    C          C                      |  
 *         |  C             C                     |  
 |         | C       C   C     C                  |  
 |         .----C--C-----C-----C------------------.  
 |        /    C     C      C                    /   
 |       /       C  C  C  C                     /    
 |      /                                      /     
 |     /                                      /      
 |    /                                      /       
 |   /                                      /        
 |  /                                      /         
 | /                                      /          
 |/                                      /           
 *--------------------------------------*            

Positions:
   0 C     10.573417    6.110155    5.042008
   1 C      9.417734    3.658261    4.908162
   2 C      9.610320    5.055910    5.061335
   3 C     10.322141    7.336615    5.186943
   4 C      8.335647    2.993955    4.945985
   5 C      9.096448    8.054928    5.389828
   6 C      8.310624    5.644115    5.294957
   7 C      7.014091    3.469046    5.152760
   8 C      7.999993    7.069554    5.449721
   9 C      7.098226    4.900433    5.337342
  10 C      5.637017    3.091747    5.194558
  11 C      4.670250    3.887033    5.347342
  12 C      7.906761   10.312232    5.521641
  13 C      6.823303   11.071137    5.548752
  14 C      8.810040    9.413688    5.472710
  15 C      5.543509   11.239199    5.556955
  16 C      4.258286   10.986731    5.618885
  17 C      3.452208    9.953690    5.628823
  18 C      3.179422    7.426919    5.640326
  19 C      5.977731    5.830979    5.506222
  20 C      4.596845    5.311482    5.499020
  21 C      6.586482    7.110421    5.593954
  22 C      3.016587    8.738292    5.662897
  23 C      3.530869    6.201123    5.597302

Unit cell:
           periodic     x           y           z      points  spacing
  1. axis:    yes   16.000000    0.000000    0.000000    80     0.2000
  2. axis:    yes    0.000000   16.000000    0.000000    80     0.2000
  3. axis:    yes    0.000000    0.000000   10.000000    48     0.2083

Effective grid spacing dv^(1/3) = 0.2027

                     log10-error:    total        iterations:
           time      wfs    density  energy       fermi  poisson
iter:   1  11:53:11          +inf  -184.066931    3      5      
iter:   2  11:53:11         -2.21  -184.042119    3      2      
iter:   3  11:53:12         -2.82  -184.041333    3      1      
iter:   4  11:53:12         -3.16  -184.041128    2      1      
iter:   5  11:53:13         -3.23  -184.041189    3      1      
iter:   6  11:53:13         -2.95  -184.040794    3      1      
iter:   7  11:53:14         -3.61  -184.040932    2      1      
iter:   8  11:53:14         -3.56  -184.040966    2      1      
iter:   9  11:53:15         -4.05  -184.040928    2      1      

Converged after 9 iterations.

Dipole moment: (-0.066158, 0.122021, -0.013640) |e|*Ang

Energy contributions relative to reference atoms: (reference = -24663.074771)

Kinetic:       +108.430043
Potential:     -118.379878
External:        +0.000000
XC:            -177.046824
Entropy (-ST):   -0.213735
Local:           +3.062599
--------------------------
Free energy:   -184.147796
Extrapolated:  -184.040928

Fermi level: -4.38867

 Band  Eigenvalues  Occupancy
    0    -22.53698    2.00000
    1    -21.31737    2.00000
    2    -20.83885    2.00000
    3    -20.55691    2.00000
    4    -20.10477    2.00000
    5    -20.05521    2.00000
    6    -19.35731    2.00000
    7    -19.34430    2.00000
    8    -18.31127    2.00000
    9    -18.07733    2.00000
   10    -17.43068    2.00000
   11    -17.10137    2.00000
   12    -16.40053    2.00000
   13    -16.24740    2.00000
   14    -15.36825    2.00000
   15    -15.10969    2.00000
   16    -14.44969    2.00000
   17    -13.55051    2.00000
   18    -13.29644    2.00000
   19    -13.29004    2.00000
   20    -12.87377    2.00000
   21    -12.43378    2.00000
   22    -12.00724    2.00000
   23    -11.72582    2.00000
   24    -11.17726    2.00000
   25    -10.43330    2.00000
   26    -10.23780    2.00000
   27     -9.40392    2.00000
   28     -9.39527    2.00000
   29     -9.26803    2.00000
   30     -9.25361    2.00000
   31     -9.19440    2.00000
   32     -8.59525    2.00000
   33     -8.43633    2.00000
   34     -8.32710    2.00000
   35     -7.77228    2.00000
   36     -7.25083    2.00000
   37     -7.23080    2.00000
   38     -7.16060    2.00000
   39     -6.54943    2.00000
   40     -6.35571    2.00000
   41     -6.21559    2.00000
   42     -5.88024    2.00000
   43     -5.77588    2.00000
   44     -5.61453    1.99999
   45     -5.35186    1.99987
   46     -4.70395    1.91804
   47     -4.56553    1.70857
   48     -4.24154    0.37351
   49     -3.23260    0.00002
   50     -3.11821    0.00001
   51     -2.82788    0.00000
   52     -2.72844    0.00000
   53     -2.47157    0.00000
   54     -1.99327    0.00000
   55     -1.49550    0.00000
   56     -0.96116    0.00000
   57     -0.78181    0.00000
   58      0.26973    0.00000
   59      0.64274    0.00000
   60      0.67119    0.00000
   61      0.88365    0.00000
   62      1.39623    0.00000
   63      1.43539    0.00000
   64      3.82836    0.00000
   65      3.92209    0.00000
   66      4.97660    0.00000
   67      5.04335    0.00000
   68      5.32861    0.00000
   69      5.54830    0.00000
   70      5.70740    0.00000
   71      5.98547    0.00000
   72      6.07709    0.00000
   73      6.14662    0.00000
   74      6.27056    0.00000
   75      6.90040    0.00000
   76      7.28241    0.00000
   77      7.86667    0.00000
   78      7.96992    0.00000
   79      8.17648    0.00000
   80      8.36295    0.00000
   81      8.69971    0.00000
   82      8.89998    0.00000
   83      9.21800    0.00000
   84      9.24821    0.00000
   85      9.26774    0.00000
   86      9.38892    0.00000
   87      9.53367    0.00000
   88      9.72710    0.00000
   89      9.79054    0.00000
   90      9.91252    0.00000
   91      9.97581    0.00000
   92     10.01024    0.00000
   93     10.09621    0.00000
   94     10.28165    0.00000
   95     10.34520    0.00000
   96     10.39697    0.00000
   97     10.47357    0.00000


Forces in eV/Ang:
  0 C    -0.01303   -0.05222   -0.00409
  1 C     0.02413    0.01737    0.03934
  2 C     0.00091   -0.00561   -0.00217
  3 C    -0.05150   -0.01097    0.05752
  4 C    -0.00329    0.02321    0.02981
  5 C     0.02776    0.01520   -0.05589
  6 C     0.00556   -0.02221   -0.00913
  7 C     0.00166    0.01416   -0.03564
  8 C    -0.01891   -0.00828   -0.01351
  9 C    -0.03022    0.01745   -0.04316
 10 C     0.02733    0.04522    0.01987
 11 C     0.01862   -0.00682    0.01754
 12 C    -0.03311    0.02426   -0.03224
 13 C     0.01369   -0.00191    0.01791
 14 C     0.02956   -0.00657   -0.01392
 15 C     0.00934    0.01291    0.05473
 16 C     0.02841    0.01606   -0.01487
 17 C    -0.02673   -0.05000    0.01443
 18 C    -0.03428    0.01644   -0.00491
 19 C    -0.01591    0.02003   -0.03432
 20 C     0.00926   -0.02466    0.03264
 21 C     0.04144    0.03505    0.03096
 22 C    -0.00237    0.02162    0.00292
 23 C     0.02732   -0.04950   -0.02330

