
  ___ ___ ___ _ _ _  
 |   |   |_  | | | | 
 | | | | | . | | | | 
 |__ |  _|___|_____|  1.3.0b1
 |___|_|             

User:   esb@s65n22.grendel.cscaa.dk
Date:   Thu Nov  9 10:32:42 2017
Arch:   x86_64
Pid:    68119
Python: 2.7.13
gpaw:   /home/esb/DFT/gpaw_git/gpaw
_gpaw:  /home/esb/DFT/gpaw_git/build/bin.linux-x86_64-2.7/gpaw-python
ase:    /home/esb/DFT/ase_git/ase (version 3.15.0b1)
numpy:  /comm/swstack/core/python/2.7.13/lib/python2.7/site-packages/numpy (version 1.13.3)
scipy:  /comm/swstack/core/python/2.7.13/lib/python2.7/site-packages/scipy (version 0.19.1)
units:  Angstrom and eV
cores:  16
Extra parameters: {'blacs': True}

Input parameters:
  basis: dzp
  gpts: [80 80 48]
  kpts: [1 1 1]
  maxiter: 99
  mixer: {backend: pulay,
          beta: 0.05,
          method: separate,
          nmaxold: 5,
          weight: 75}
  mode: lcao
  nbands: -50
  occupations: {name: fermi-dirac,
                width: 0.1}
  poissonsolver: {eps: 1e-07,
                  name: fd,
                  nn: 3,
                  relax: GS}
  xc: PBE

System changes: positions, numbers, cell, pbc, initial_charges, initial_magmoms 

Initialize ...

C-setup:
  name: Carbon
  id: 4aa54d4b901d75f77cc0ea3eec22967b
  Z: 6
  valence: 4
  core: 2
  charge: 0.0
  file: /home/esb/DFT/gpaw-setups-0.8.7929/C.PBE.gz
  cutoffs: 0.64(comp), 1.14(filt), 1.14(core), lmax=2
  valence states:
                energy  radius
    2s(2.00)   -13.751   0.635
    2p(2.00)    -5.284   0.635
    *s          13.461   0.635
    *p          21.927   0.635
    *d           0.000   0.635

  LCAO basis set for C:
    Name: dzp
    File: /home/esb/DFT/gpaw-setups-0.8.7929/C.dzp.basis.gz
    Number of radial functions: 5
    Number of spherical harmonics: 13
      l=0, rc=5.5469 Bohr: 2s-sz confined orbital
      l=1, rc=6.6719 Bohr: 2p-sz confined orbital
      l=0, rc=3.0312 Bohr: 2s-dz split-valence wave
      l=1, rc=3.7500 Bohr: 2p-dz split-valence wave
      l=2, rc=6.6719 Bohr: d-type Gaussian polarization

Reference energy: -24663.074771

Spin-paired calculation

Occupation numbers:
  Fermi-Dirac: width=0.1000 eV

Convergence criteria:
  Maximum total energy change: 0.0005 eV / electron
  Maximum integral of absolute density change: 0.0001 electrons
  Maximum integral of absolute eigenstate change: 4e-08 eV^2
  Maximum number of iterations: 99

Symmetries present (total): 1

  ( 1  0  0)
  ( 0  1  0)
  ( 0  0  1)

1 k-point (Gamma)
1 k-point in the irreducible part of the Brillouin zone
       k-points in crystal coordinates                weights
   0:     0.00000000    0.00000000    0.00000000          1/1

Wave functions: LCAO
  Diagonalizer: Serial LAPACK
  Atomic Correction: dense with blas
  Datatype: float
  Eigensolver: None 

LCAO using direct dense diagonalizer 

Densities:
  Coarse grid: 80*80*48 grid
  Fine grid: 160*160*96 grid
  Total Charge: 0.000000 

Density mixing:
  Method: separate
  Backend: pulay
  Linear mixing parameter: 0.05
  Mixing with 5 old densities
  Damping of long wave oscillations: 75 

Hamiltonian:
  XC and Coulomb potentials evaluated on a 160*160*96 grid
  Using the PBE Exchange-Correlation functional
  Interpolation: tri-quintic (5. degree polynomial)
  Poisson solver: Gauss-Seidel solver with 6 multi-grid levels
    Coarsest grid: 5 x 5 x 3 points
    Stencil: 6*3+1=19 point O(h^6) finite-difference Laplacian
    Max iterations: 1000
    Tolerance: 1.000000e-07 

Memory estimate:
  Process memory now: 77.57 MiB
  Calculator: 15.59 MiB
    Density: 6.13 MiB
      Arrays: 3.81 MiB
      Localized functions: 0.86 MiB
      Mixer: 1.46 MiB
    Hamiltonian: 5.40 MiB
      Arrays: 2.49 MiB
      XC: 0.00 MiB
      Poisson: 2.85 MiB
      vbar: 0.07 MiB
    Wavefunctions: 4.05 MiB
      C [qnM]: 0.23 MiB
      S, T [2 x qmm]: 1.49 MiB
      P [aqMi]: 0.01 MiB
      TCI: 0.00 MiB
      BasisFunctions: 2.33 MiB
      Eigensolver: 0.00 MiB

Total number of cores used: 16
Domain decomposition: 2 x 4 x 2

Number of atoms: 24
Number of atomic orbitals: 312
Number of bands in calculation: 98
Bands to converge: occupied states only
Number of valence electrons: 96

... initialized

Initializing position-dependent things.

Density initialized from atomic densities
           .--------------------------------------.  
          /|                                      |  
         / |                                      |  
        /  |                                      |  
       /   |                                      |  
      /    |                                      |  
     /     |                                      |  
    /      |                                      |  
   /       |            C                         |  
  /        |      C  C   C                        |  
 *         |  C CC        C                       |  
 |         | C       C   C C   C                  |  
 |         .---C---C-C---C------C-----------------.  
 |        /    C    C     C    C  C              /   
 |       /             C                        /    
 |      /                                      /     
 |     /                                      /      
 |    /                                      /       
 |   /                                      /        
 |  /                                      /         
 | /                                      /          
 |/                                      /           
 *--------------------------------------*            

Positions:
   0 C     11.052407    5.231061    4.462846
   1 C     12.041217    6.180850    4.463145
   2 C      3.868716   11.542594    4.966501
   3 C     11.075207    7.158035    4.579437
   4 C     10.068601    7.950586    4.695056
   5 C      4.040120   10.184405    5.011006
   6 C      7.656935   10.241733    4.775335
   7 C      7.654213    8.858196    4.828001
   8 C      6.312542   12.498341    4.745992
   9 C      5.041381   12.134258    4.838565
  10 C      8.701647    7.859182    4.774697
  11 C      7.079111   11.370885    4.744714
  12 C      9.289009    3.933811    5.174407
  13 C      3.537909    7.528178    5.687544
  14 C      5.833599    6.079579    5.484298
  15 C      8.244528    3.229307    5.229574
  16 C      4.474201    5.498887    5.461761
  17 C      8.217251    6.019402    5.321390
  18 C      6.313855    7.469667    5.597377
  19 C      6.950910    3.769821    5.309245
  20 C      4.071908    8.709465    5.847802
  21 C      4.616837    4.088007    5.355297
  22 C      3.259175    6.251518    5.560335
  23 C      7.010492    5.237664    5.381104

Unit cell:
           periodic     x           y           z      points  spacing
  1. axis:    yes   16.000000    0.000000    0.000000    80     0.2000
  2. axis:    yes    0.000000   16.000000    0.000000    80     0.2000
  3. axis:    yes    0.000000    0.000000   10.000000    48     0.2083

Effective grid spacing dv^(1/3) = 0.2027

                     log10-error:    total        iterations:
           time      wfs    density  energy       fermi  poisson
iter:   1  10:32:43          +inf  -168.356467    2      6      
iter:   2  10:32:44         -0.90  -167.195696    3      3      
iter:   3  10:32:45         -0.94  -165.261223    4      3      
iter:   4  10:32:45         -1.08  -164.585905    33     3      
iter:   5  10:32:46         -1.24  -164.437124    32     3      
iter:   6  10:32:46         -1.46  -164.322735    4      3      
iter:   7  10:32:47         -1.70  -164.297844    3      3      
iter:   8  10:32:47         -1.86  -164.280902    3      2      
iter:   9  10:32:48         -2.00  -164.270689    3      2      
iter:  10  10:32:48         -2.11  -164.255815    3      2      
iter:  11  10:32:49         -2.33  -164.253316    3      2      
iter:  12  10:32:49         -2.45  -164.255613    3      2      
iter:  13  10:32:50         -2.79  -164.250171    3      2      
iter:  14  10:32:50         -2.92  -164.250178    2      1      
iter:  15  10:32:51         -3.03  -164.246323    1      1      
iter:  16  10:32:51         -3.21  -164.247390    2      1      
iter:  17  10:32:52         -3.35  -164.246617    2      1      
iter:  18  10:32:52         -3.52  -164.243601    2      1      
iter:  19  10:32:53         -3.62  -164.246233    2      1      
iter:  20  10:32:54         -3.65  -164.249529    2      1      
iter:  21  10:32:54         -3.91  -164.246200    2      1      
iter:  22  10:32:55         -4.02  -164.246778    2      1      

Converged after 22 iterations.

Dipole moment: (0.032368, 0.710599, -0.044330) |e|*Ang

Energy contributions relative to reference atoms: (reference = -24663.074771)

Kinetic:        +57.795217
Potential:      -76.462599
External:        +0.000000
XC:            -148.283725
Entropy (-ST):   -0.287380
Local:           +2.848019
--------------------------
Free energy:   -164.390468
Extrapolated:  -164.246778

Fermi level: -4.60352

 Band  Eigenvalues  Occupancy
    0    -21.68886    2.00000
    1    -21.59552    2.00000
    2    -21.36175    2.00000
    3    -20.67444    2.00000
    4    -20.39149    2.00000
    5    -19.84651    2.00000
    6    -19.60539    2.00000
    7    -18.80524    2.00000
    8    -18.68931    2.00000
    9    -17.61037    2.00000
   10    -17.04571    2.00000
   11    -16.82385    2.00000
   12    -15.96761    2.00000
   13    -15.46980    2.00000
   14    -15.08997    2.00000
   15    -14.10465    2.00000
   16    -13.59937    2.00000
   17    -12.97945    2.00000
   18    -12.74791    2.00000
   19    -12.34700    2.00000
   20    -12.03350    2.00000
   21    -11.59664    2.00000
   22    -11.33240    2.00000
   23    -10.42165    2.00000
   24     -9.82406    2.00000
   25     -9.70947    2.00000
   26     -9.55538    2.00000
   27     -9.48771    2.00000
   28     -9.21965    2.00000
   29     -8.80533    2.00000
   30     -8.69090    2.00000
   31     -8.60929    2.00000
   32     -8.46291    2.00000
   33     -8.32855    2.00000
   34     -7.82720    2.00000
   35     -7.69408    2.00000
   36     -7.52307    2.00000
   37     -7.29035    2.00000
   38     -6.69249    2.00000
   39     -6.56300    2.00000
   40     -6.31454    2.00000
   41     -6.14225    2.00000
   42     -5.86614    1.99999
   43     -5.72960    1.99997
   44     -5.48661    1.99971
   45     -5.24799    1.99683
   46     -5.05104    1.97748
   47     -4.69412    1.42436
   48     -4.50045    0.52592
   49     -4.23932    0.05106
   50     -4.16514    0.02465
   51     -3.43029    0.00002
   52     -3.29903    0.00000
   53     -3.12219    0.00000
   54     -2.87525    0.00000
   55     -2.59966    0.00000
   56     -2.47618    0.00000
   57     -2.28844    0.00000
   58     -1.93204    0.00000
   59     -1.69233    0.00000
   60     -1.42203    0.00000
   61     -1.02170    0.00000
   62     -0.61597    0.00000
   63      0.00053    0.00000
   64      0.07422    0.00000
   65      0.40715    0.00000
   66      0.90170    0.00000
   67      0.98555    0.00000
   68      1.47521    0.00000
   69      1.99743    0.00000
   70      2.37392    0.00000
   71      2.80101    0.00000
   72      3.49484    0.00000
   73      3.80922    0.00000
   74      5.16523    0.00000
   75      5.53354    0.00000
   76      5.80252    0.00000
   77      6.17782    0.00000
   78      6.64304    0.00000
   79      6.93815    0.00000
   80      7.12825    0.00000
   81      7.40919    0.00000
   82      8.00270    0.00000
   83      8.01034    0.00000
   84      8.29801    0.00000
   85      8.61753    0.00000
   86      8.72917    0.00000
   87      8.78548    0.00000
   88      8.96039    0.00000
   89      9.17798    0.00000
   90      9.22938    0.00000
   91      9.26697    0.00000
   92      9.54137    0.00000
   93      9.60089    0.00000
   94      9.78553    0.00000
   95      9.84398    0.00000
   96      9.94920    0.00000
   97     10.07773    0.00000


Forces in eV/Ang:
  0 C     1.28196   -0.65315   -0.35014
  1 C    -1.61433   -1.05997    0.11981
  2 C     0.20163   -3.37030    0.39667
  3 C    -0.26310    0.45113    0.24774
  4 C    -0.41669   -0.17886   -0.59381
  5 C    -1.40653   -3.43282    2.97529
  6 C    -0.07950   -3.17674    0.02159
  7 C     0.53727   -1.79548    0.92348
  8 C    -0.29327   -1.02979   -0.23773
  9 C     1.51685    1.24899    0.00709
 10 C    -1.02438   -0.62358    1.39826
 11 C    -0.73255    1.65847    0.20835
 12 C     2.96273    2.91955    0.43516
 13 C    -0.76734    0.12812   -0.18753
 14 C     1.37383    4.08422   -0.19797
 15 C    -2.35860   -2.08594   -0.60591
 16 C     0.87925   -2.17162    0.07352
 17 C    -0.32568    0.36088   -0.58157
 18 C    -1.11357   -0.79608   -0.96258
 19 C    -0.35025    2.48897    0.38651
 20 C     0.83612    5.97585   -3.27062
 21 C     0.20765   -0.09616   -0.07296
 22 C     0.58612    0.16891    0.12615
 23 C     0.34978    0.92273   -0.29397

System changes: positions 

Initializing position-dependent things.

Density initialized from wave functions
           .--------------------------------------.  
          /|                                      |  
         / |                                      |  
        /  |                                      |  
       /   |                                      |  
      /    |                                      |  
     /     |                                      |  
    /      |                                      |  
   /       |            C                         |  
  /        |      C  C   C                        |  
 *         |  C CC        C                       |  
 |         | C       C   C C   C                  |  
 |         .---C---C-C---C------C-----------------.  
 |        /    C    C     C    C  C              /   
 |       /             C                        /    
 |      /                                      /     
 |     /                                      /      
 |    /                                      /       
 |   /                                      /        
 |  /                                      /         
 | /                                      /          
 |/                                      /           
 *--------------------------------------*            

Positions:
   0 C     11.059878    5.227254    4.460805
   1 C     12.031808    6.174672    4.463843
   2 C      3.869891   11.522952    4.968812
   3 C     11.073674    7.160665    4.580880
   4 C     10.066172    7.949543    4.691596
   5 C      4.031923   10.164398    5.028346
   6 C      7.656471   10.223219    4.775461
   7 C      7.657344    8.847732    4.833383
   8 C      6.310833   12.492339    4.744606
   9 C      5.050221   12.141537    4.838606
  10 C      8.695677    7.855547    4.782846
  11 C      7.074842   11.380550    4.745928
  12 C      9.306276    3.950826    5.176943
  13 C      3.533437    7.528924    5.686451
  14 C      5.841605    6.103382    5.483144
  15 C      8.230782    3.217151    5.226043
  16 C      4.479325    5.486230    5.462190
  17 C      8.215353    6.021505    5.318001
  18 C      6.307365    7.465028    5.591767
  19 C      6.948869    3.784327    5.311497
  20 C      4.076781    8.744292    5.828741
  21 C      4.618047    4.087447    5.354872
  22 C      3.262591    6.252502    5.561070
  23 C      7.012530    5.243042    5.379391

Unit cell:
           periodic     x           y           z      points  spacing
  1. axis:    yes   16.000000    0.000000    0.000000    80     0.2000
  2. axis:    yes    0.000000   16.000000    0.000000    80     0.2000
  3. axis:    yes    0.000000    0.000000   10.000000    48     0.2083

Effective grid spacing dv^(1/3) = 0.2027

                     log10-error:    total        iterations:
           time      wfs    density  energy       fermi  poisson
iter:   1  10:32:56          +inf  -165.309406    2      5      
iter:   2  10:32:57         -1.83  -165.209751    3      2      
iter:   3  10:32:57         -2.00  -165.160080    3      2      
iter:   4  10:32:58         -2.21  -165.141542    3      2      
iter:   5  10:32:58         -2.43  -165.139020    3      2      
iter:   6  10:32:59         -2.58  -165.138994    2      2      
iter:   7  10:33:00         -2.68  -165.138258    2      2      
iter:   8  10:33:00         -2.89  -165.138385    2      2      
iter:   9  10:33:01         -3.23  -165.138189    2      1      
iter:  10  10:33:01         -3.34  -165.137810    2      1      
iter:  11  10:33:02         -3.52  -165.137983    2      1      
iter:  12  10:33:02         -3.62  -165.137359    2      1      
iter:  13  10:33:03         -3.87  -165.137941    2      1      
iter:  14  10:33:03         -4.00  -165.138170    2      1      

Converged after 14 iterations.

Dipole moment: (0.046228, 0.771977, -0.042420) |e|*Ang

Energy contributions relative to reference atoms: (reference = -24663.074771)

Kinetic:        +52.089788
Potential:      -72.188002
External:        +0.000000
XC:            -147.700955
Entropy (-ST):   -0.284267
Local:           +2.803132
--------------------------
Free energy:   -165.280303
Extrapolated:  -165.138170

Fermi level: -4.60753

 Band  Eigenvalues  Occupancy
    0    -21.66780    2.00000
    1    -21.59490    2.00000
    2    -21.36349    2.00000
    3    -20.60076    2.00000
    4    -20.36151    2.00000
    5    -19.87117    2.00000
    6    -19.51283    2.00000
    7    -18.80563    2.00000
    8    -18.65352    2.00000
    9    -17.62640    2.00000
   10    -17.04698    2.00000
   11    -16.83730    2.00000
   12    -16.00712    2.00000
   13    -15.46943    2.00000
   14    -15.07665    2.00000
   15    -14.09994    2.00000
   16    -13.71127    2.00000
   17    -13.06504    2.00000
   18    -12.75672    2.00000
   19    -12.42072    2.00000
   20    -12.06051    2.00000
   21    -11.69085    2.00000
   22    -11.33859    2.00000
   23    -10.44424    2.00000
   24     -9.84633    2.00000
   25     -9.72089    2.00000
   26     -9.56824    2.00000
   27     -9.49395    2.00000
   28     -9.22022    2.00000
   29     -8.79432    2.00000
   30     -8.70004    2.00000
   31     -8.59288    2.00000
   32     -8.42941    2.00000
   33     -8.30772    2.00000
   34     -7.80002    2.00000
   35     -7.73350    2.00000
   36     -7.44400    2.00000
   37     -7.19681    2.00000
   38     -6.68099    2.00000
   39     -6.54589    2.00000
   40     -6.31402    2.00000
   41     -6.15553    2.00000
   42     -5.88189    1.99999
   43     -5.71354    1.99997
   44     -5.49856    1.99973
   45     -5.26867    1.99731
   46     -5.08456    1.98319
   47     -4.69292    1.40276
   48     -4.51142    0.55331
   49     -4.22597    0.04310
   50     -4.15112    0.02062
   51     -3.38631    0.00001
   52     -3.29505    0.00000
   53     -3.07451    0.00000
   54     -2.81535    0.00000
   55     -2.57088    0.00000
   56     -2.45772    0.00000
   57     -2.20955    0.00000
   58     -1.90932    0.00000
   59     -1.63234    0.00000
   60     -1.45719    0.00000
   61     -0.93339    0.00000
   62     -0.61027    0.00000
   63     -0.02182    0.00000
   64      0.01074    0.00000
   65      0.35047    0.00000
   66      0.84356    0.00000
   67      0.95297    0.00000
   68      1.43664    0.00000
   69      1.96367    0.00000
   70      2.43737    0.00000
   71      2.88142    0.00000
   72      3.51409    0.00000
   73      3.82041    0.00000
   74      5.14367    0.00000
   75      5.55199    0.00000
   76      5.86092    0.00000
   77      6.18386    0.00000
   78      6.66432    0.00000
   79      7.06380    0.00000
   80      7.17453    0.00000
   81      7.48000    0.00000
   82      7.97482    0.00000
   83      8.09606    0.00000
   84      8.37824    0.00000
   85      8.63898    0.00000
   86      8.73553    0.00000
   87      8.79808    0.00000
   88      8.97455    0.00000
   89      9.18028    0.00000
   90      9.24509    0.00000
   91      9.30847    0.00000
   92      9.53318    0.00000
   93      9.64363    0.00000
   94      9.83507    0.00000
   95      9.87177    0.00000
   96      9.95219    0.00000
   97     10.09842    0.00000


Forces in eV/Ang:
  0 C     0.82702   -1.05104   -0.30690
  1 C    -1.27144   -0.71867    0.12204
  2 C     1.15514   -2.72330    0.22377
  3 C    -0.27012    0.46230    0.24161
  4 C    -0.50879   -0.16258   -0.54572
  5 C    -1.25735   -3.51144    3.22808
  6 C    -0.81108   -1.34779   -0.04459
  7 C     0.25320   -1.56989    0.90884
  8 C     0.14585   -0.46038   -0.26946
  9 C    -0.30694    0.43556    0.14448
 10 C    -0.67107   -1.02052    1.36559
 11 C     0.41389   -0.41406    0.23014
 12 C     0.83331    1.68321    0.53309
 13 C    -0.17193    1.31124    0.00327
 14 C     0.95723    3.04370   -0.21049
 15 C    -0.52505   -0.72378   -0.69513
 16 C     0.82626   -1.45283    0.14027
 17 C    -0.09573    0.42292   -0.65905
 18 C    -0.94938   -0.28975   -0.93545
 19 C    -0.07047    2.20559    0.33166
 20 C     0.03729    4.51864   -3.66878
 21 C     0.34318   -0.23400   -0.06332
 22 C     0.83188    0.31106    0.12109
 23 C     0.24189    1.28819   -0.26748

System changes: positions 

Initializing position-dependent things.

Density initialized from wave functions
           .--------------------------------------.  
          /|                                      |  
         / |                                      |  
        /  |                                      |  
       /   |                                      |  
      /    |                                      |  
     /     |                                      |  
    /      |                                      |  
   /       |                                      |  
  /        |      C  C  CC                        |  
 *         |  C CC        C                       |  
 |         | C       C   C C  C                   |  
 |         .---C---C-C---C------C-----------------.  
 |        /    C    C     C    C  C              /   
 |       /             C                        /    
 |      /                                      /     
 |     /                                      /      
 |    /                                      /       
 |   /                                      /        
 |  /                                      /         
 | /                                      /          
 |/                                      /           
 *--------------------------------------*            

Positions:
   0 C     11.065531    5.219979    4.458696
   1 C     12.023085    6.169755    4.464684
   2 C      3.877935   11.504259    4.970337
   3 C     11.071813    7.163849    4.582544
   4 C     10.062660    7.948425    4.687842
   5 C      4.023279   10.140210    5.050599
   6 C      7.650817   10.214109    4.775148
   7 C      7.659061    8.836942    4.839640
   8 C      6.311879   12.489222    4.742748
   9 C      5.047936   12.144460    4.839614
  10 C      8.691089    7.848482    4.792247
  11 C      7.077799   11.377505    4.747515
  12 C      9.311815    3.962302    5.180624
  13 C      3.532309    7.538065    5.686491
  14 C      5.848158    6.124244    5.481693
  15 C      8.227339    3.212294    5.221247
  16 C      4.485010    5.476293    5.463162
  17 C      8.214715    6.024423    5.313455
  18 C      6.300842    7.463080    5.585328
  19 C      6.948410    3.799489    5.313776
  20 C      4.076963    8.775273    5.803439
  21 C      4.620423    4.085822    5.354437
  22 C      3.268343    6.254658    5.561903
  23 C      7.014186    5.251947    5.377551

Unit cell:
           periodic     x           y           z      points  spacing
  1. axis:    yes   16.000000    0.000000    0.000000    80     0.2000
  2. axis:    yes    0.000000   16.000000    0.000000    80     0.2000
  3. axis:    yes    0.000000    0.000000   10.000000    48     0.2083

Effective grid spacing dv^(1/3) = 0.2027

                     log10-error:    total        iterations:
           time      wfs    density  energy       fermi  poisson
iter:   1  10:33:05          +inf  -166.042711    3      5      
iter:   2  10:33:05         -1.88  -165.942406    3      2      
iter:   3  10:33:06         -2.10  -165.893257    3      2      
iter:   4  10:33:06         -2.34  -165.881041    3      2      
iter:   5  10:33:07         -2.59  -165.879591    2      2      
iter:   6  10:33:07         -2.70  -165.879146    2      2      
iter:   7  10:33:08         -2.88  -165.878520    2      2      
iter:   8  10:33:08         -3.06  -165.878761    2      2      
iter:   9  10:33:09         -3.28  -165.878033    2      1      
iter:  10  10:33:09         -3.42  -165.877578    2      1      
iter:  11  10:33:10         -3.63  -165.878730    2      1      
iter:  12  10:33:10         -3.76  -165.878989    2      1      
iter:  13  10:33:11         -3.82  -165.879566    2      1      
iter:  14  10:33:11         -4.04  -165.879153    1      1      

Converged after 14 iterations.

Dipole moment: (0.044392, 0.799133, -0.031913) |e|*Ang

Energy contributions relative to reference atoms: (reference = -24663.074771)

Kinetic:        +49.902617
Potential:      -70.651234
External:        +0.000000
XC:            -147.817805
Entropy (-ST):   -0.269227
Local:           +2.821884
--------------------------
Free energy:   -166.013766
Extrapolated:  -165.879153

Fermi level: -4.62130

 Band  Eigenvalues  Occupancy
    0    -21.66741    2.00000
    1    -21.55000    2.00000
    2    -21.33868    2.00000
    3    -20.55899    2.00000
    4    -20.35452    2.00000
    5    -19.86371    2.00000
    6    -19.48388    2.00000
    7    -18.82939    2.00000
    8    -18.63600    2.00000
    9    -17.67418    2.00000
   10    -17.10272    2.00000
   11    -16.89952    2.00000
   12    -16.03390    2.00000
   13    -15.46779    2.00000
   14    -15.11022    2.00000
   15    -14.10844    2.00000
   16    -13.78728    2.00000
   17    -13.13881    2.00000
   18    -12.75752    2.00000
   19    -12.49446    2.00000
   20    -12.12427    2.00000
   21    -11.74516    2.00000
   22    -11.34977    2.00000
   23    -10.48347    2.00000
   24     -9.84986    2.00000
   25     -9.72089    2.00000
   26     -9.56837    2.00000
   27     -9.48901    2.00000
   28     -9.21710    2.00000
   29     -8.79919    2.00000
   30     -8.70890    2.00000
   31     -8.60072    2.00000
   32     -8.42668    2.00000
   33     -8.31383    2.00000
   34     -7.79310    2.00000
   35     -7.76180    2.00000
   36     -7.41871    2.00000
   37     -7.15054    2.00000
   38     -6.69609    2.00000
   39     -6.54959    2.00000
   40     -6.29843    2.00000
   41     -6.14205    2.00000
   42     -5.90835    1.99999
   43     -5.70247    1.99996
   44     -5.51636    1.99974
   45     -5.30856    1.99793
   46     -5.12090    1.98656
   47     -4.71726    1.44611
   48     -4.51657    0.51951
   49     -4.21539    0.03394
   50     -4.14077    0.01624
   51     -3.36117    0.00001
   52     -3.32776    0.00000
   53     -3.02706    0.00000
   54     -2.77917    0.00000
   55     -2.56325    0.00000
   56     -2.46115    0.00000
   57     -2.15233    0.00000
   58     -1.88462    0.00000
   59     -1.58650    0.00000
   60     -1.45095    0.00000
   61     -0.84603    0.00000
   62     -0.57968    0.00000
   63     -0.05433    0.00000
   64      0.03214    0.00000
   65      0.35913    0.00000
   66      0.83992    0.00000
   67      0.99354    0.00000
   68      1.44663    0.00000
   69      1.97398    0.00000
   70      2.51929    0.00000
   71      2.99369    0.00000
   72      3.61020    0.00000
   73      3.90285    0.00000
   74      5.16337    0.00000
   75      5.58369    0.00000
   76      5.90917    0.00000
   77      6.17929    0.00000
   78      6.71848    0.00000
   79      7.13244    0.00000
   80      7.25333    0.00000
   81      7.51235    0.00000
   82      7.94302    0.00000
   83      8.14490    0.00000
   84      8.42527    0.00000
   85      8.64632    0.00000
   86      8.71524    0.00000
   87      8.80290    0.00000
   88      8.96717    0.00000
   89      9.18520    0.00000
   90      9.24501    0.00000
   91      9.33671    0.00000
   92      9.52112    0.00000
   93      9.69712    0.00000
   94      9.85983    0.00000
   95      9.88616    0.00000
   96      9.97325    0.00000
   97     10.10798    0.00000


Forces in eV/Ang:
  0 C     0.57587   -1.31272   -0.25017
  1 C    -1.10645   -0.50827    0.10777
  2 C     1.26537   -2.62116    0.16957
  3 C    -0.26014    0.43776    0.22202
  4 C    -0.49431   -0.14340   -0.50564
  5 C    -1.08591   -3.17129    3.24293
  6 C    -0.79432   -1.29811   -0.00914
  7 C     0.04913   -1.30095    0.92723
  8 C     0.14504   -0.51533   -0.26453
  9 C    -0.43137    0.14124    0.15549
 10 C    -0.48675   -1.27172    1.29068
 11 C     0.37179   -0.46101    0.21776
 12 C     0.12915    1.39005    0.54323
 13 C     0.08939    1.33109    0.07625
 14 C     0.62696    2.11245   -0.24479
 15 C    -0.08508   -0.18643   -0.68007
 16 C     0.72070   -0.87680    0.17790
 17 C     0.11511    0.52560   -0.70029
 18 C    -0.66830    0.26759   -0.91303
 19 C     0.11388    1.84322    0.25953
 20 C    -0.46977    3.71264   -3.74470
 21 C     0.47882   -0.35267   -0.06599
 22 C     1.05108    0.79271    0.17562
 23 C     0.21814    1.51925   -0.22904

System changes: positions 

Initializing position-dependent things.

Density initialized from wave functions
           .--------------------------------------.  
          /|                                      |  
         / |                                      |  
        /  |                                      |  
       /   |                                      |  
      /    |                                      |  
     /     |                                      |  
    /      |                                      |  
   /       |                                      |  
  /        |      C  C  CC                        |  
 *         |  C CC        C                       |  
 |         | C       C   C C  C                   |  
 |         .---C---C-C---C------C-----------------.  
 |        /    C    C     C    C  C              /   
 |       /             C                        /    
 |      /                                      /     
 |     /                                      /      
 |    /                                      /       
 |   /                                      /        
 |  /                                      /         
 | /                                      /          
 |/                                      /           
 *--------------------------------------*            

Positions:
   0 C     11.069848    5.209809    4.456877
   1 C     12.014647    6.165990    4.465467
   2 C      3.886701   11.483756    4.971704
   3 C     11.069864    7.167111    4.584195
   4 C     10.059040    7.947360    4.684030
   5 C      4.015247   10.116978    5.075044
   6 C      7.645688   10.202134    4.775246
   7 C      7.659274    8.827420    4.846769
   8 C      6.312453   12.484473    4.740782
   9 C      5.046541   12.145791    4.840660
  10 C      8.687409    7.838649    4.801937
  11 C      7.079146   11.376375    4.749117
  12 C      9.313628    3.973661    5.184670
  13 C      3.532918    7.546831    5.687023
  14 C      5.852623    6.139297    5.479758
  15 C      8.225566    3.210558    5.216210
  16 C      4.490306    5.470167    5.464530
  17 C      8.215836    6.028607    5.308110
  18 C      6.296246    7.465885    5.578393
  19 C      6.949396    3.812982    5.315642
  20 C      4.073094    8.803331    5.775195
  21 C      4.624243    4.083008    5.353916
  22 C      3.276598    6.261717    5.563382
  23 C      7.015920    5.263655    5.375869

Unit cell:
           periodic     x           y           z      points  spacing
  1. axis:    yes   16.000000    0.000000    0.000000    80     0.2000
  2. axis:    yes    0.000000   16.000000    0.000000    80     0.2000
  3. axis:    yes    0.000000    0.000000   10.000000    48     0.2083

Effective grid spacing dv^(1/3) = 0.2027

                     log10-error:    total        iterations:
           time      wfs    density  energy       fermi  poisson
iter:   1  10:33:13          +inf  -166.721462    3      5      
iter:   2  10:33:14         -1.90  -166.617520    3      2      
iter:   3  10:33:14         -2.13  -166.564876    3      2      
iter:   4  10:33:15         -2.36  -166.554453    3      2      
iter:   5  10:33:15         -2.60  -166.553329    2      2      
iter:   6  10:33:16         -2.71  -166.552809    2      2      
iter:   7  10:33:16         -2.90  -166.552116    2      2      
iter:   8  10:33:17         -3.11  -166.549998    2      1      
iter:   9  10:33:17         -3.24  -166.550186    2      1      
iter:  10  10:33:18         -3.42  -166.551318    2      1      
iter:  11  10:33:18         -3.65  -166.552221    2      1      
iter:  12  10:33:19         -3.77  -166.553391    2      1      
iter:  13  10:33:19         -3.87  -166.553569    2      1      
iter:  14  10:33:20         -4.03  -166.552894    2      1      

Converged after 14 iterations.

Dipole moment: (0.042702, 0.823407, -0.023385) |e|*Ang

Energy contributions relative to reference atoms: (reference = -24663.074771)

Kinetic:        +49.132069
Potential:      -70.187703
External:        +0.000000
XC:            -148.207315
Entropy (-ST):   -0.253352
Local:           +2.836731
--------------------------
Free energy:   -166.679570
Extrapolated:  -166.552894

Fermi level: -4.63715

 Band  Eigenvalues  Occupancy
    0    -21.67270    2.00000
    1    -21.52113    2.00000
    2    -21.29858    2.00000
    3    -20.53732    2.00000
    4    -20.34505    2.00000
    5    -19.87200    2.00000
    6    -19.47020    2.00000
    7    -18.85783    2.00000
    8    -18.61669    2.00000
    9    -17.71968    2.00000
   10    -17.16572    2.00000
   11    -16.93699    2.00000
   12    -16.06025    2.00000
   13    -15.46102    2.00000
   14    -15.13998    2.00000
   15    -14.12803    2.00000
   16    -13.86864    2.00000
   17    -13.20915    2.00000
   18    -12.77458    2.00000
   19    -12.56322    2.00000
   20    -12.18832    2.00000
   21    -11.76805    2.00000
   22    -11.36412    2.00000
   23    -10.52281    2.00000
   24     -9.86148    2.00000
   25     -9.72744    2.00000
   26     -9.56882    2.00000
   27     -9.48930    2.00000
   28     -9.21487    2.00000
   29     -8.81482    2.00000
   30     -8.71391    2.00000
   31     -8.61424    2.00000
   32     -8.44216    2.00000
   33     -8.31848    2.00000
   34     -7.81055    2.00000
   35     -7.77548    2.00000
   36     -7.40004    2.00000
   37     -7.11486    2.00000
   38     -6.70388    2.00000
   39     -6.56061    2.00000
   40     -6.28350    2.00000
   41     -6.12266    2.00000
   42     -5.92987    2.00000
   43     -5.68873    1.99995
   44     -5.52798    1.99973
   45     -5.33150    1.99807
   46     -5.14767    1.98794
   47     -4.74524    1.49331
   48     -4.52343    0.48567
   49     -4.19312    0.02331
   50     -4.12632    0.01202
   51     -3.39352    0.00001
   52     -3.29051    0.00000
   53     -2.97628    0.00000
   54     -2.74224    0.00000
   55     -2.55672    0.00000
   56     -2.46065    0.00000
   57     -2.10734    0.00000
   58     -1.85068    0.00000
   59     -1.55205    0.00000
   60     -1.43353    0.00000
   61     -0.76265    0.00000
   62     -0.55254    0.00000
   63     -0.07944    0.00000
   64      0.07976    0.00000
   65      0.38860    0.00000
   66      0.86994    0.00000
   67      1.05540    0.00000
   68      1.46241    0.00000
   69      1.99783    0.00000
   70      2.57719    0.00000
   71      3.07689    0.00000
   72      3.69778    0.00000
   73      4.10348    0.00000
   74      5.14361    0.00000
   75      5.61643    0.00000
   76      5.95761    0.00000
   77      6.20969    0.00000
   78      6.79237    0.00000
   79      7.16105    0.00000
   80      7.34590    0.00000
   81      7.52646    0.00000
   82      7.94331    0.00000
   83      8.17278    0.00000
   84      8.45578    0.00000
   85      8.67880    0.00000
   86      8.70856    0.00000
   87      8.80390    0.00000
   88      8.97094    0.00000
   89      9.19246    0.00000
   90      9.23368    0.00000
   91      9.37695    0.00000
   92      9.51713    0.00000
   93      9.75099    0.00000
   94      9.86763    0.00000
   95      9.89100    0.00000
   96     10.01012    0.00000
   97     10.11291    0.00000


Forces in eV/Ang:
  0 C     0.43157   -1.42716   -0.20366
  1 C    -1.03822   -0.40929    0.10291
  2 C     1.43110   -2.33147    0.11868
  3 C    -0.22225    0.37326    0.19920
  4 C    -0.49303   -0.10437   -0.45852
  5 C    -0.91892   -2.57203    3.03648
  6 C    -0.89826   -0.90585    0.01944
  7 C    -0.13423   -1.20360    0.94794
  8 C     0.19144   -0.44905   -0.26027
  9 C    -0.74763   -0.21859    0.18427
 10 C    -0.43184   -1.47581    1.23897
 11 C     0.52791   -0.86252    0.20820
 12 C    -0.25509    1.28158    0.50765
 13 C     0.27223    1.38496    0.11715
 14 C     0.40083    1.52670   -0.25521
 15 C     0.12764    0.11921   -0.65747
 16 C     0.65348   -0.58678    0.17897
 17 C     0.27603    0.64645   -0.73579
 18 C    -0.45936    0.61074   -0.89036
 19 C     0.21852    1.59660    0.21699
 20 C    -0.83963    2.77545   -3.55869
 21 C     0.58159   -0.34132   -0.05575
 22 C     1.15823    1.02041    0.23479
 23 C     0.24217    1.59176   -0.20124

System changes: positions 

Initializing position-dependent things.

Density initialized from wave functions
           .--------------------------------------.  
          /|                                      |  
         / |                                      |  
        /  |                                      |  
       /   |                                      |  
      /    |                                      |  
     /     |                                      |  
    /      |                                      |  
   /       |                                      |  
  /        |      C  C  CC                        |  
 *         |  C CC        C                       |  
 |         | C       C   C C  C                   |  
 |         .---C---C-C---C------C-----------------.  
 |        /    C    C     C    C  C              /   
 |       /             C                        /    
 |      /                                      /     
 |     /                                      /      
 |    /                                      /       
 |   /                                      /        
 |  /                                      /         
 | /                                      /          
 |/                                      /           
 *--------------------------------------*            

Positions:
   0 C     11.074302    5.197410    4.455121
   1 C     12.004667    6.161841    4.466370
   2 C      3.897867   11.462163    4.973011
   3 C     11.068026    7.170194    4.585917
   4 C     10.054825    7.946535    4.679953
   5 C      4.007252   10.096397    5.101038
   6 C      7.639043   10.190775    4.775717
   7 C      7.658015    8.816388    4.855475
   8 C      6.313231   12.479184    4.738527
   9 C      5.043213   12.144412    4.842090
  10 C      8.682841    7.825446    4.813012
  11 C      7.081565   11.372325    4.750904
  12 C      9.315161    3.987980    5.188869
  13 C      3.534626    7.556511    5.687767
  14 C      5.856352    6.153263    5.477431
  15 C      8.222901    3.209439    5.210585
  16 C      4.496065    5.464277    5.465988
  17 C      8.218431    6.034808    5.301499
  18 C      6.292564    7.471598    5.570359
  19 C      6.951107    3.827099    5.317562
  20 C      4.065972    8.828287    5.744757
  21 C      4.629599    4.080299    5.353427
  22 C      3.286920    6.271603    5.565771
  23 C      7.018485    5.277452    5.374099

Unit cell:
           periodic     x           y           z      points  spacing
  1. axis:    yes   16.000000    0.000000    0.000000    80     0.2000
  2. axis:    yes    0.000000   16.000000    0.000000    80     0.2000
  3. axis:    yes    0.000000    0.000000   10.000000    48     0.2083

Effective grid spacing dv^(1/3) = 0.2027

                     log10-error:    total        iterations:
           time      wfs    density  energy       fermi  poisson
iter:   1  10:33:22          +inf  -167.395239    3      5      
iter:   2  10:33:22         -1.86  -167.267609    2      2      
iter:   3  10:33:23         -2.09  -167.203800    3      2      
iter:   4  10:33:23         -2.35  -167.193256    2      2      
iter:   5  10:33:24         -2.57  -167.191777    2      2      
iter:   6  10:33:24         -2.68  -167.191093    2      2      
iter:   7  10:33:25         -2.87  -167.190341    2      2      
iter:   8  10:33:25         -3.11  -167.188148    2      1      
iter:   9  10:33:26         -3.24  -167.188784    2      1      
iter:  10  10:33:26         -3.38  -167.189570    2      1      
iter:  11  10:33:27         -3.61  -167.190547    2      1      
iter:  12  10:33:27         -3.73  -167.192163    2      1      
iter:  13  10:33:28         -3.85  -167.192048    2      1      
iter:  14  10:33:28         -4.02  -167.191239    2      1      

Converged after 14 iterations.

Dipole moment: (0.033624, 0.834738, -0.013544) |e|*Ang

Energy contributions relative to reference atoms: (reference = -24663.074771)

Kinetic:        +49.440898
Potential:      -70.544992
External:        +0.000000
XC:            -148.816958
Entropy (-ST):   -0.238940
Local:           +2.849282
--------------------------
Free energy:   -167.310709
Extrapolated:  -167.191239

Fermi level: -4.65996

 Band  Eigenvalues  Occupancy
    0    -21.68345    2.00000
    1    -21.48800    2.00000
    2    -21.25268    2.00000
    3    -20.53253    2.00000
    4    -20.33581    2.00000
    5    -19.90276    2.00000
    6    -19.46274    2.00000
    7    -18.89066    2.00000
    8    -18.59914    2.00000
    9    -17.77811    2.00000
   10    -17.22732    2.00000
   11    -16.96301    2.00000
   12    -16.08329    2.00000
   13    -15.45397    2.00000
   14    -15.17180    2.00000
   15    -14.16288    2.00000
   16    -13.93644    2.00000
   17    -13.27631    2.00000
   18    -12.79713    2.00000
   19    -12.63298    2.00000
   20    -12.23959    2.00000
   21    -11.78730    2.00000
   22    -11.38585    2.00000
   23    -10.56672    2.00000
   24     -9.88316    2.00000
   25     -9.73662    2.00000
   26     -9.57335    2.00000
   27     -9.49148    2.00000
   28     -9.21501    2.00000
   29     -8.84842    2.00000
   30     -8.72846    2.00000
   31     -8.62433    2.00000
   32     -8.47940    2.00000
   33     -8.32021    2.00000
   34     -7.84207    2.00000
   35     -7.78220    2.00000
   36     -7.39042    2.00000
   37     -7.08851    2.00000
   38     -6.71091    2.00000
   39     -6.58258    2.00000
   40     -6.26682    2.00000
   41     -6.09315    2.00000
   42     -5.95277    2.00000
   43     -5.66834    1.99992
   44     -5.54289    1.99971
   45     -5.35237    1.99803
   46     -5.17162    1.98808
   47     -4.77985    1.53664
   48     -4.53749    0.45421
   49     -4.17220    0.01512
   50     -4.11191    0.00830
   51     -3.44784    0.00001
   52     -3.22906    0.00000
   53     -2.91879    0.00000
   54     -2.71329    0.00000
   55     -2.54719    0.00000
   56     -2.44067    0.00000
   57     -2.06989    0.00000
   58     -1.81451    0.00000
   59     -1.51854    0.00000
   60     -1.41497    0.00000
   61     -0.68625    0.00000
   62     -0.52862    0.00000
   63     -0.10987    0.00000
   64      0.14402    0.00000
   65      0.46405    0.00000
   66      0.91891    0.00000
   67      1.15289    0.00000
   68      1.49000    0.00000
   69      2.03781    0.00000
   70      2.62373    0.00000
   71      3.13539    0.00000
   72      3.74122    0.00000
   73      4.38043    0.00000
   74      5.13132    0.00000
   75      5.65749    0.00000
   76      6.01086    0.00000
   77      6.27389    0.00000
   78      6.86403    0.00000
   79      7.17642    0.00000
   80      7.43561    0.00000
   81      7.52494    0.00000
   82      7.96224    0.00000
   83      8.20141    0.00000
   84      8.48729    0.00000
   85      8.68986    0.00000
   86      8.73188    0.00000
   87      8.79304    0.00000
   88      8.97210    0.00000
   89      9.20057    0.00000
   90      9.22279    0.00000
   91      9.41393    0.00000
   92      9.51911    0.00000
   93      9.80355    0.00000
   94      9.86883    0.00000
   95      9.89459    0.00000
   96     10.03718    0.00000
   97     10.11688    0.00000


Forces in eV/Ang:
  0 C     0.28541   -1.52595   -0.14988
  1 C    -0.97301   -0.36563    0.11088
  2 C     1.42735   -1.98631    0.07556
  3 C    -0.26459    0.36850    0.18045
  4 C    -0.44898   -0.09791   -0.40166
  5 C    -0.78285   -1.65419    2.52467
  6 C    -0.88221   -0.78700    0.04334
  7 C    -0.34928   -1.13294    0.94818
  8 C     0.15711   -0.48207   -0.24035
  9 C    -0.75666   -0.44724    0.19113
 10 C    -0.36876   -1.67413    1.18860
 11 C     0.50643   -0.98177    0.19159
 12 C    -0.65877    1.14297    0.45204
 13 C     0.37650    1.32632    0.09790
 14 C     0.23674    1.04757   -0.27511
 15 C     0.38082    0.43488   -0.61504
 16 C     0.55318   -0.29342    0.18648
 17 C     0.41487    0.77571   -0.77759
 18 C    -0.29442    0.88454   -0.87320
 19 C     0.31645    1.46088    0.17905
 20 C    -1.06430    1.55829   -3.03277
 21 C     0.67967   -0.32882   -0.03858
 22 C     1.27100    1.12002    0.24474
 23 C     0.27353    1.65829   -0.16566

System changes: positions 

Initializing position-dependent things.

Density initialized from wave functions
           .--------------------------------------.  
          /|                                      |  
         / |                                      |  
        /  |                                      |  
       /   |                                      |  
      /    |                                      |  
     /     |                                      |  
    /      |                                      |  
   /       |                                      |  
  /        |      C  C  CC                        |  
 *         |  C CC        C                       |  
 |         | C       C   C C  C                   |  
 |         .---C---C-C---C------C-----------------.  
 |        /    C    C     C    C  C              /   
 |       /             C                        /    
 |      /                                      /     
 |     /                                      /      
 |    /                                      /       
 |   /                                      /        
 |  /                                      /         
 | /                                      /          
 |/                                      /           
 *--------------------------------------*            

Positions:
   0 C     11.079250    5.180671    4.453281
   1 C     11.991712    6.156053    4.467738
   2 C      3.911543   11.437325    4.974448
   3 C     11.064799    7.174498    4.588050
   4 C     10.049880    7.945347    4.675128
   5 C      3.997640   10.079853    5.128458
   6 C      7.630951   10.175655    4.776515
   7 C      7.654365    8.801773    4.866880
   8 C      6.313506   12.471492    4.735818
   9 C      5.040450   12.141361    4.843927
  10 C      8.677012    7.806457    4.827298
  11 C      7.083788   11.367116    4.753082
  12 C      9.314698    4.006203    5.193680
  13 C      3.537018    7.567995    5.688099
  14 C      5.860563    6.169243    5.474182
  15 C      8.220959    3.209974    5.203672
  16 C      4.502707    5.458234    5.467920
  17 C      8.222782    6.044234    5.292374
  18 C      6.288658    7.480508    5.559842
  19 C      6.953940    3.845611    5.319881
  20 C      4.055953    8.848816    5.711921
  21 C      4.637411    4.077183    5.353005
  22 C      3.301280    6.284105    5.568730
  23 C      7.022339    5.295794    5.372085

Unit cell:
           periodic     x           y           z      points  spacing
  1. axis:    yes   16.000000    0.000000    0.000000    80     0.2000
  2. axis:    yes    0.000000   16.000000    0.000000    80     0.2000
  3. axis:    yes    0.000000    0.000000   10.000000    48     0.2083

Effective grid spacing dv^(1/3) = 0.2027

                     log10-error:    total        iterations:
           time      wfs    density  energy       fermi  poisson
iter:   1  10:33:30          +inf  -168.054664    3      5      
iter:   2  10:33:30         -1.81  -167.906526    3      2      
iter:   3  10:33:31         -2.04  -167.831421    2      2      
iter:   4  10:33:31         -2.32  -167.819998    2      2      
iter:   5  10:33:32         -2.53  -167.818017    2      2      
iter:   6  10:33:33         -2.64  -167.816580    2      2      
iter:   7  10:33:33         -2.86  -167.816149    2      2      
iter:   8  10:33:34         -3.08  -167.813449    2      1      
iter:   9  10:33:34         -3.23  -167.814533    2      1      
iter:  10  10:33:35         -3.35  -167.815363    2      1      
iter:  11  10:33:35         -3.57  -167.816209    2      1      
iter:  12  10:33:36         -3.67  -167.819384    2      1      
iter:  13  10:33:36         -3.71  -167.816431    2      1      
iter:  14  10:33:37         -3.98  -167.816890    2      1      
iter:  15  10:33:37         -4.09  -167.818199    2      1      

Converged after 15 iterations.

Dipole moment: (0.004482, 0.851229, -0.000438) |e|*Ang

Energy contributions relative to reference atoms: (reference = -24663.074771)

Kinetic:        +51.006702
Potential:      -71.840703
External:        +0.000000
XC:            -149.732587
Entropy (-ST):   -0.225341
Local:           +2.861060
--------------------------
Free energy:   -167.930869
Extrapolated:  -167.818199

Fermi level: -4.68849

 Band  Eigenvalues  Occupancy
    0    -21.70560    2.00000
    1    -21.47087    2.00000
    2    -21.17667    2.00000
    3    -20.54816    2.00000
    4    -20.32333    2.00000
    5    -19.96094    2.00000
    6    -19.46289    2.00000
    7    -18.92055    2.00000
    8    -18.59001    2.00000
    9    -17.84194    2.00000
   10    -17.26982    2.00000
   11    -16.99693    2.00000
   12    -16.11871    2.00000
   13    -15.45428    2.00000
   14    -15.20120    2.00000
   15    -14.21360    2.00000
   16    -14.00301    2.00000
   17    -13.33452    2.00000
   18    -12.83456    2.00000
   19    -12.70555    2.00000
   20    -12.28046    2.00000
   21    -11.80696    2.00000
   22    -11.42375    2.00000
   23    -10.62165    2.00000
   24     -9.91731    2.00000
   25     -9.75854    2.00000
   26     -9.58910    2.00000
   27     -9.50453    2.00000
   28     -9.21611    2.00000
   29     -8.90410    2.00000
   30     -8.75797    2.00000
   31     -8.61017    2.00000
   32     -8.53290    2.00000
   33     -8.31921    2.00000
   34     -7.87400    2.00000
   35     -7.79404    2.00000
   36     -7.38810    2.00000
   37     -7.07170    2.00000
   38     -6.71468    2.00000
   39     -6.62004    2.00000
   40     -6.25627    2.00000
   41     -6.05961    2.00000
   42     -5.97548    1.99999
   43     -5.63797    1.99985
   44     -5.55812    1.99967
   45     -5.37688    1.99795
   46     -5.19241    1.98712
   47     -4.82074    1.57919
   48     -4.55653    0.42175
   49     -4.15142    0.00926
   50     -4.09351    0.00520
   51     -3.51020    0.00002
   52     -3.14336    0.00000
   53     -2.86012    0.00000
   54     -2.69788    0.00000
   55     -2.51787    0.00000
   56     -2.39810    0.00000
   57     -2.03350    0.00000
   58     -1.77300    0.00000
   59     -1.48243    0.00000
   60     -1.37614    0.00000
   61     -0.61299    0.00000
   62     -0.50693    0.00000
   63     -0.14836    0.00000
   64      0.21868    0.00000
   65      0.59240    0.00000
   66      0.98922    0.00000
   67      1.27274    0.00000
   68      1.55027    0.00000
   69      2.11799    0.00000
   70      2.67991    0.00000
   71      3.20746    0.00000
   72      3.77067    0.00000
   73      4.66426    0.00000
   74      5.10781    0.00000
   75      5.70826    0.00000
   76      6.08048    0.00000
   77      6.35561    0.00000
   78      6.93216    0.00000
   79      7.19002    0.00000
   80      7.50488    0.00000
   81      7.52700    0.00000
   82      7.98846    0.00000
   83      8.24388    0.00000
   84      8.53717    0.00000
   85      8.68472    0.00000
   86      8.76445    0.00000
   87      8.80799    0.00000
   88      8.96556    0.00000
   89      9.20224    0.00000
   90      9.24095    0.00000
   91      9.45679    0.00000
   92      9.52332    0.00000
   93      9.83508    0.00000
   94      9.89375    0.00000
   95      9.90096    0.00000
   96     10.06019    0.00000
   97     10.12273    0.00000


Forces in eV/Ang:
  0 C     0.14431   -1.58577   -0.05651
  1 C    -0.95372   -0.30658    0.10296
  2 C     1.37195   -1.43490    0.04697
  3 C    -0.21710    0.28178    0.14810
  4 C    -0.49084   -0.04234   -0.31436
  5 C    -0.67612   -0.36599    1.76920
  6 C    -0.91220   -0.47948    0.07728
  7 C    -0.51534   -1.15405    0.94722
  8 C     0.13815   -0.47061   -0.21692
  9 C    -0.80057   -0.65146    0.19585
 10 C    -0.30719   -1.87590    1.11386
 11 C     0.57362   -1.28221    0.17256
 12 C    -0.97849    1.07471    0.36964
 13 C     0.40503    1.15078    0.03944
 14 C     0.13578    0.64141   -0.31650
 15 C     0.55105    0.76755   -0.53209
 16 C     0.45248    0.01456    0.19169
 17 C     0.56099    0.96075   -0.80853
 18 C    -0.15634    1.17864   -0.85934
 19 C     0.41128    1.20275    0.08881
 20 C    -1.13418   -0.01112   -2.17544
 21 C     0.78722   -0.30410   -0.02458
 22 C     1.33860    1.07446    0.23756
 23 C     0.32512    1.68499   -0.13215

System changes: positions 

Initializing position-dependent things.

Density initialized from wave functions
           .--------------------------------------.  
          /|                                      |  
         / |                                      |  
        /  |                                      |  
       /   |                                      |  
      /    |                                      |  
     /     |                                      |  
    /      |                                      |  
   /       |                                      |  
  /        |      C  C  CC                        |  
 *         |  C CC        C                       |  
 |         | C       C   C C  C                   |  
 |         .---C---C-C---C------C-----------------.  
 |        /    C    C     C    C  C              /   
 |       /             C                        /    
 |      /                                      /     
 |     /                                      /      
 |    /                                      /       
 |   /                                      /        
 |  /                                      /         
 | /                                      /          
 |/                                      /           
 *--------------------------------------*            

Positions:
   0 C     11.085492    5.157501    4.451680
   1 C     11.973102    6.148018    4.469533
   2 C      3.929059   11.408429    4.976467
   3 C     11.061042    7.179473    4.590726
   4 C     10.042084    7.944347    4.669255
   5 C      3.984385   10.070145    5.158008
   6 C      7.619457   10.157192    4.777904
   7 C      7.648556    8.779927    4.882735
   8 C      6.313562   12.460854    4.732282
   9 C      5.037325   12.136660    4.846420
  10 C      8.669084    7.778669    4.846656
  11 C      7.087498   11.357244    4.755961
  12 C      9.313192    4.032061    5.199493
  13 C      3.539310    7.581353    5.687473
  14 C      5.866903    6.190839    5.469153
  15 C      8.218417    3.212684    5.194996
  16 C      4.511267    5.451443    5.470621
  17 C      8.229665    6.059178    5.279477
  18 C      6.283455    7.494347    5.545133
  19 C      6.958324    3.869527    5.322142
  20 C      4.043899    8.862911    5.676481
  21 C      4.649040    4.073265    5.352523
  22 C      3.321264    6.298948    5.572414
  23 C      7.028350    5.321035    5.369478

Unit cell:
           periodic     x           y           z      points  spacing
  1. axis:    yes   16.000000    0.000000    0.000000    80     0.2000
  2. axis:    yes    0.000000   16.000000    0.000000    80     0.2000
  3. axis:    yes    0.000000    0.000000   10.000000    48     0.2083

Effective grid spacing dv^(1/3) = 0.2027

                     log10-error:    total        iterations:
           time      wfs    density  energy       fermi  poisson
iter:   1  10:33:39          +inf  -168.754884    3      5      
iter:   2  10:33:39         -1.74  -168.577501    3      2      
iter:   3  10:33:40         -1.96  -168.485987    3      2      
iter:   4  10:33:40         -2.26  -168.472802    2      2      
iter:   5  10:33:41         -2.46  -168.470038    2      2      
iter:   6  10:33:41         -2.57  -168.467146    2      2      
iter:   7  10:33:42         -2.84  -168.467652    2      2      
iter:   8  10:33:43         -3.02  -168.463978    2      1      
iter:   9  10:33:43         -3.21  -168.466132    2      1      
iter:  10  10:33:44         -3.32  -168.467523    2      1      
iter:  11  10:33:44         -3.50  -168.467352    2      1      
iter:  12  10:33:45         -3.61  -168.470895    2      1      
iter:  13  10:33:45         -3.56  -168.467002    2      1      
iter:  14  10:33:46         -3.85  -168.468341    2      1      
iter:  15  10:33:46         -3.91  -168.470252    2      1      
iter:  16  10:33:47         -4.00  -168.468460    2      1      

Converged after 16 iterations.

Dipole moment: (-0.056508, 0.874807, 0.018816) |e|*Ang

Energy contributions relative to reference atoms: (reference = -24663.074771)

Kinetic:        +53.399750
Potential:      -73.717102
External:        +0.000000
XC:            -150.908956
Entropy (-ST):   -0.215249
Local:           +2.865472
--------------------------
Free energy:   -168.576085
Extrapolated:  -168.468460

Fermi level: -4.72021

 Band  Eigenvalues  Occupancy
    0    -21.74107    2.00000
    1    -21.46336    2.00000
    2    -21.07203    2.00000
    3    -20.58800    2.00000
    4    -20.30728    2.00000
    5    -20.02749    2.00000
    6    -19.47544    2.00000
    7    -18.94273    2.00000
    8    -18.58419    2.00000
    9    -17.90223    2.00000
   10    -17.29275    2.00000
   11    -17.03969    2.00000
   12    -16.17018    2.00000
   13    -15.47041    2.00000
   14    -15.22242    2.00000
   15    -14.28401    2.00000
   16    -14.07488    2.00000
   17    -13.39161    2.00000
   18    -12.88728    2.00000
   19    -12.79237    2.00000
   20    -12.30816    2.00000
   21    -11.83456    2.00000
   22    -11.48907    2.00000
   23    -10.68683    2.00000
   24     -9.96847    2.00000
   25     -9.79746    2.00000
   26     -9.62153    2.00000
   27     -9.53087    2.00000
   28     -9.22916    2.00000
   29     -8.99305    2.00000
   30     -8.78353    2.00000
   31     -8.63794    2.00000
   32     -8.52190    2.00000
   33     -8.31743    2.00000
   34     -7.90049    2.00000
   35     -7.80863    2.00000
   36     -7.39883    2.00000
   37     -7.07319    2.00000
   38     -6.71802    2.00000
   39     -6.67253    2.00000
   40     -6.25198    2.00000
   41     -6.02243    2.00000
   42     -5.99903    1.99999
   43     -5.58484    1.99965
   44     -5.57456    1.99961
   45     -5.40676    1.99792
   46     -5.20602    1.98459
   47     -4.86316    1.61366
   48     -4.58027    0.39584
   49     -4.13728    0.00586
   50     -4.06526    0.00286
   51     -3.58750    0.00002
   52     -3.02342    0.00000
   53     -2.80479    0.00000
   54     -2.69958    0.00000
   55     -2.46172    0.00000
   56     -2.31633    0.00000
   57     -1.99519    0.00000
   58     -1.73212    0.00000
   59     -1.44123    0.00000
   60     -1.31483    0.00000
   61     -0.54686    0.00000
   62     -0.49823    0.00000
   63     -0.19566    0.00000
   64      0.32332    0.00000
   65      0.76928    0.00000
   66      1.07770    0.00000
   67      1.37250    0.00000
   68      1.69240    0.00000
   69      2.25719    0.00000
   70      2.75953    0.00000
   71      3.33757    0.00000
   72      3.80926    0.00000
   73      4.88333    0.00000
   74      5.14957    0.00000
   75      5.76690    0.00000
   76      6.19026    0.00000
   77      6.44307    0.00000
   78      6.99928    0.00000
   79      7.18254    0.00000
   80      7.49872    0.00000
   81      7.59011    0.00000
   82      7.99140    0.00000
   83      8.28743    0.00000
   84      8.58313    0.00000
   85      8.68246    0.00000
   86      8.74680    0.00000
   87      8.89448    0.00000
   88      8.97357    0.00000
   89      9.20965    0.00000
   90      9.29049    0.00000
   91      9.50094    0.00000
   92      9.53406    0.00000
   93      9.83565    0.00000
   94      9.91298    0.00000
   95      9.96249    0.00000
   96     10.08397    0.00000
   97     10.13378    0.00000


Forces in eV/Ang:
  0 C    -0.05740   -1.65466    0.03267
  1 C    -0.91374   -0.27078    0.06903
  2 C     1.22154   -0.62079   -0.01469
  3 C    -0.31472    0.28547    0.12055
  4 C    -0.37469   -0.04833   -0.21562
  5 C    -0.58619    0.93779    0.89092
  6 C    -0.87100   -0.39259    0.13636
  7 C    -0.79546   -1.18746    0.95681
  8 C     0.08057   -0.50400   -0.19332
  9 C    -0.65264   -0.73705    0.17084
 10 C    -0.26379   -2.12594    1.01352
 11 C     0.55746   -1.47320    0.13890
 12 C    -1.28174    1.00850    0.23501
 13 C     0.39247    0.88503   -0.00414
 14 C    -0.05642    0.13652   -0.30688
 15 C     0.73941    1.18109   -0.43790
 16 C     0.39745    0.37555    0.18568
 17 C     0.71331    1.11870   -0.85524
 18 C    -0.01559    1.58487   -0.85271
 19 C     0.45412    0.97650    0.00852
 20 C    -1.09465   -1.75164   -1.19830
 21 C     0.89379   -0.27147   -0.02442
 22 C     1.35414    0.84527    0.22684
 23 C     0.44983    1.66423   -0.14183

System changes: positions 

Initializing position-dependent things.

Density initialized from wave functions
           .--------------------------------------.  
          /|                                      |  
         / |                                      |  
        /  |                                      |  
       /   |                                      |  
      /    |                                      |  
     /     |                                      |  
    /      |                                      |  
   /       |                                      |  
  /        |     CC  C  CC                        |  
 *         |  C C         C                       |  
 |         | C       C   C C  C                   |  
 |         .---C---C-C---C------C-----------------.  
 |        /    C    C     C    C  C              /   
 |       /             C                        /    
 |      /                                      /     
 |     /                                      /      
 |    /                                      /       
 |   /                                      /        
 |  /                                      /         
 | /                                      /          
 |/                                      /           
 *--------------------------------------*            

Positions:
   0 C     11.091301    5.131342    4.450400
   1 C     11.952115    6.138749    4.471156
   2 C      3.946937   11.382836    4.978301
   3 C     11.055439    7.185604    4.593629
   4 C     10.034694    7.942844    4.663299
   5 C      3.969281   10.067183    5.184664
   6 C      7.607009   10.135797    4.779918
   7 C      7.640154    8.754237    4.900696
   8 C      6.313103   12.448582    4.728428
   9 C      5.036077   12.132476    4.848850
  10 C      8.660103    7.745937    4.867820
  11 C      7.091425   11.345217    4.758937
  12 C      9.310746    4.061186    5.204879
  13 C      3.540829    7.594047    5.686343
  14 C      5.873174    6.213535    5.463837
  15 C      8.216332    3.218218    5.185910
  16 C      4.521106    5.445484    5.473540
  17 C      8.237979    6.076730    5.264638
  18 C      6.277700    7.512184    5.528438
  19 C      6.962886    3.895735    5.324221
  20 C      4.032833    8.867798    5.644137
  21 C      4.662562    4.069185    5.351865
  22 C      3.343082    6.311624    5.576229
  23 C      7.036401    5.348713    5.366099

Unit cell:
           periodic     x           y           z      points  spacing
  1. axis:    yes   16.000000    0.000000    0.000000    80     0.2000
  2. axis:    yes    0.000000   16.000000    0.000000    80     0.2000
  3. axis:    yes    0.000000    0.000000   10.000000    48     0.2083

Effective grid spacing dv^(1/3) = 0.2027

                     log10-error:    total        iterations:
           time      wfs    density  energy       fermi  poisson
iter:   1  10:33:48          +inf  -169.322618    3      5      
iter:   2  10:33:49         -1.75  -169.175406    3      2      
iter:   3  10:33:49         -1.96  -169.096947    3      2      
iter:   4  10:33:50         -2.27  -169.084875    2      2      
iter:   5  10:33:50         -2.48  -169.083108    2      2      
iter:   6  10:33:51         -2.57  -169.079306    3      2      
iter:   7  10:33:51         -2.87  -169.080682    2      2      
iter:   8  10:33:52         -3.03  -169.077459    2      1      
iter:   9  10:33:52         -3.25  -169.079413    2      1      
iter:  10  10:33:53         -3.38  -169.081146    2      1      
iter:  11  10:33:53         -3.50  -169.080348    2      1      
iter:  12  10:33:54         -3.64  -169.083054    2      1      
iter:  13  10:33:54         -3.74  -169.082179    2      1      
iter:  14  10:33:55         -3.97  -169.081231    2      1      
iter:  15  10:33:55         -4.10  -169.081467    2      1      

Converged after 15 iterations.

Dipole moment: (-0.139586, 0.911312, 0.040843) |e|*Ang

Energy contributions relative to reference atoms: (reference = -24663.074771)

Kinetic:        +55.436142
Potential:      -75.295184
External:        +0.000000
XC:            -152.002418
Entropy (-ST):   -0.211994
Local:           +2.885991
--------------------------
Free energy:   -169.187464
Extrapolated:  -169.081467

Fermi level: -4.74839

 Band  Eigenvalues  Occupancy
    0    -21.78415    2.00000
    1    -21.47912    2.00000
    2    -20.95482    2.00000
    3    -20.63172    2.00000
    4    -20.28707    2.00000
    5    -20.07216    2.00000
    6    -19.49167    2.00000
    7    -18.95125    2.00000
    8    -18.58773    2.00000
    9    -17.94752    2.00000
   10    -17.29988    2.00000
   11    -17.08448    2.00000
   12    -16.24150    2.00000
   13    -15.50849    2.00000
   14    -15.22839    2.00000
   15    -14.36216    2.00000
   16    -14.14142    2.00000
   17    -13.42551    2.00000
   18    -12.94745    2.00000
   19    -12.88393    2.00000
   20    -12.31775    2.00000
   21    -11.86398    2.00000
   22    -11.57596    2.00000
   23    -10.74451    2.00000
   24    -10.02967    2.00000
   25     -9.85235    2.00000
   26     -9.66466    2.00000
   27     -9.57240    2.00000
   28     -9.26673    2.00000
   29     -9.09236    2.00000
   30     -8.77417    2.00000
   31     -8.70682    2.00000
   32     -8.43661    2.00000
   33     -8.31554    2.00000
   34     -7.91513    2.00000
   35     -7.81845    2.00000
   36     -7.41425    2.00000
   37     -7.09113    2.00000
   38     -6.74212    2.00000
   39     -6.70133    2.00000
   40     -6.26153    2.00000
   41     -6.02406    1.99999
   42     -5.98723    1.99999
   43     -5.60203    1.99961
   44     -5.51979    1.99911
   45     -5.43024    1.99782
   46     -5.21357    1.98109
   47     -4.89655    1.62962
   48     -4.60563    0.38695
   49     -4.13281    0.00423
   50     -4.03179    0.00154
   51     -3.66861    0.00004
   52     -2.89977    0.00000
   53     -2.76933    0.00000
   54     -2.70529    0.00000
   55     -2.39918    0.00000
   56     -2.19787    0.00000
   57     -1.96216    0.00000
   58     -1.69971    0.00000
   59     -1.40391    0.00000
   60     -1.23958    0.00000
   61     -0.52747    0.00000
   62     -0.49395    0.00000
   63     -0.21955    0.00000
   64      0.44247    0.00000
   65      0.92864    0.00000
   66      1.18247    0.00000
   67      1.42294    0.00000
   68      1.86358    0.00000
   69      2.42973    0.00000
   70      2.87141    0.00000
   71      3.51778    0.00000
   72      3.86005    0.00000
   73      4.90580    0.00000
   74      5.32959    0.00000
   75      5.81716    0.00000
   76      6.31251    0.00000
   77      6.53128    0.00000
   78      7.04280    0.00000
   79      7.15213    0.00000
   80      7.49104    0.00000
   81      7.65172    0.00000
   82      7.96664    0.00000
   83      8.30373    0.00000
   84      8.58035    0.00000
   85      8.66629    0.00000
   86      8.73490    0.00000
   87      8.93346    0.00000
   88      9.06849    0.00000
   89      9.22510    0.00000
   90      9.34686    0.00000
   91      9.50715    0.00000
   92      9.58425    0.00000
   93      9.82683    0.00000
   94      9.92915    0.00000
   95     10.01459    0.00000
   96     10.12262    0.00000
   97     10.15381    0.00000


Forces in eV/Ang:
  0 C    -0.23629   -1.64947    0.14805
  1 C    -0.94189   -0.28320    0.09186
  2 C     1.03654    0.18265   -0.06245
  3 C    -0.20891    0.11432    0.05237
  4 C    -0.47223    0.02663   -0.09996
  5 C    -0.48373    1.79177    0.26824
  6 C    -0.84476   -0.20683    0.22427
  7 C    -1.12070   -1.30347    1.00453
  8 C     0.10154   -0.49827   -0.17648
  9 C    -0.51154   -0.72501    0.12488
 10 C    -0.20274   -2.24990    0.88746
 11 C     0.58279   -1.73243    0.10075
 12 C    -1.49661    0.98598    0.07379
 13 C     0.29194    0.48927   -0.04073
 14 C    -0.10841   -0.22234   -0.27757
 15 C     0.87141    1.57419   -0.31859
 16 C     0.33214    0.74003    0.17226
 17 C     0.90793    1.30076   -0.87575
 18 C     0.11106    2.00411   -0.87475
 19 C     0.49504    0.74159   -0.09291
 20 C    -0.91692   -2.97732   -0.43290
 21 C     1.00449   -0.26584    0.01649
 22 C     1.33419    0.58003    0.20697
 23 C     0.49384    1.60110   -0.11723

System changes: positions 

Initializing position-dependent things.

Density initialized from wave functions
           .--------------------------------------.  
          /|                                      |  
         / |                                      |  
        /  |                                      |  
       /   |                                      |  
      /    |                                      |  
     /     |                                      |  
    /      |                                      |  
   /       |                                      |  
  /        |     CC  C  CC                        |  
 *         |  C C         C                       |  
 |         | C       C   C C  C                   |  
 |         .---C---C--C--C------C-----------------.  
 |        /    C    C     C    C  C              /   
 |       /             C                        /    
 |      /                                      /     
 |     /                                      /      
 |    /                                      /       
 |   /                                      /        
 |  /                                      /         
 | /                                      /          
 |/                                      /           
 *--------------------------------------*            

Positions:
   0 C     11.096183    5.105429    4.449936
   1 C     11.930243    6.128849    4.473129
   2 C      3.963251   11.362757    4.979899
   3 C     11.051055    7.190130    4.595969
   4 C     10.025886    7.942020    4.658093
   5 C      3.954343   10.067101    5.208538
   6 C      7.594647   10.115154    4.782691
   7 C      7.629335    8.726709    4.919381
   8 C      6.313071   12.436327    4.724589
   9 C      5.036363   12.129616    4.850806
  10 C      8.651339    7.712723    4.888315
  11 C      7.095643   11.331313    4.761660
  12 C      9.307901    4.090923    5.209042
  13 C      3.540838    7.603434    5.684942
  14 C      5.880028    6.235674    5.458882
  15 C      8.214586    3.226136    5.177626
  16 C      4.530866    5.441504    5.476335
  17 C      8.247634    6.095609    5.249612
  18 C      6.272234    7.532809    5.511180
  19 C      6.967442    3.921075    5.325607
  20 C      4.024500    8.867681    5.615761
  21 C      4.676842    4.065002    5.351599
  22 C      3.364493    6.321399    5.579794
  23 C      7.044662    5.375835    5.362818

Unit cell:
           periodic     x           y           z      points  spacing
  1. axis:    yes   16.000000    0.000000    0.000000    80     0.2000
  2. axis:    yes    0.000000   16.000000    0.000000    80     0.2000
  3. axis:    yes    0.000000    0.000000   10.000000    48     0.2083

Effective grid spacing dv^(1/3) = 0.2027

                     log10-error:    total        iterations:
           time      wfs    density  energy       fermi  poisson
iter:   1  10:33:57          +inf  -169.836934    3      5      
iter:   2  10:33:58         -1.80  -169.728978    3      2      
iter:   3  10:33:58         -2.00  -169.668912    3      2      
iter:   4  10:33:59         -2.31  -169.658543    3      2      
iter:   5  10:33:59         -2.51  -169.657791    2      2      
iter:   6  10:34:00         -2.59  -169.654380    3      2      
iter:   7  10:34:00         -2.87  -169.655422    2      2      
iter:   8  10:34:01         -3.05  -169.654027    2      1      
iter:   9  10:34:01         -3.20  -169.654400    2      1      
iter:  10  10:34:02         -3.38  -169.655304    2      1      
iter:  11  10:34:02         -3.53  -169.655356    2      1      
iter:  12  10:34:03         -3.66  -169.656822    2      1      
iter:  13  10:34:03         -3.76  -169.657458    2      1      
iter:  14  10:34:04         -3.98  -169.656206    2      1      
iter:  15  10:34:04         -4.07  -169.656128    2      1      

Converged after 15 iterations.

Dipole moment: (-0.217577, 0.944879, 0.061474) |e|*Ang

Energy contributions relative to reference atoms: (reference = -24663.074771)

Kinetic:        +56.623778
Potential:      -76.177207
External:        +0.000000
XC:            -152.885859
Entropy (-ST):   -0.215381
Local:           +2.890851
--------------------------
Free energy:   -169.763819
Extrapolated:  -169.656128

Fermi level: -4.76895

 Band  Eigenvalues  Occupancy
    0    -21.82522    2.00000
    1    -21.49652    2.00000
    2    -20.88488    2.00000
    3    -20.64813    2.00000
    4    -20.26570    2.00000
    5    -20.09452    2.00000
    6    -19.50335    2.00000
    7    -18.95069    2.00000
    8    -18.58696    2.00000
    9    -17.97485    2.00000
   10    -17.29558    2.00000
   11    -17.12000    2.00000
   12    -16.31067    2.00000
   13    -15.54916    2.00000
   14    -15.21611    2.00000
   15    -14.44032    2.00000
   16    -14.19501    2.00000
   17    -13.44819    2.00000
   18    -12.99933    2.00000
   19    -12.97266    2.00000
   20    -12.31693    2.00000
   21    -11.89739    2.00000
   22    -11.67218    2.00000
   23    -10.78137    2.00000
   24    -10.09360    2.00000
   25     -9.90760    2.00000
   26     -9.70559    2.00000
   27     -9.61604    2.00000
   28     -9.34058    2.00000
   29     -9.16176    2.00000
   30     -8.77167    2.00000
   31     -8.73347    2.00000
   32     -8.35549    2.00000
   33     -8.31245    2.00000
   34     -7.92206    2.00000
   35     -7.82295    2.00000
   36     -7.42764    2.00000
   37     -7.11179    2.00000
   38     -6.79633    2.00000
   39     -6.70036    2.00000
   40     -6.27275    2.00000
   41     -6.04007    1.99999
   42     -5.96125    1.99999
   43     -5.62799    1.99963
   44     -5.47104    1.99822
   45     -5.42840    1.99727
   46     -5.21507    1.97717
   47     -4.91648    1.62772
   48     -4.62893    0.39556
   49     -4.13335    0.00347
   50     -4.00085    0.00092
   51     -3.74521    0.00007
   52     -2.83078    0.00000
   53     -2.71362    0.00000
   54     -2.68411    0.00000
   55     -2.33928    0.00000
   56     -2.06185    0.00000
   57     -1.93349    0.00000
   58     -1.67788    0.00000
   59     -1.37078    0.00000
   60     -1.16343    0.00000
   61     -0.58371    0.00000
   62     -0.47119    0.00000
   63     -0.21717    0.00000
   64      0.56504    0.00000
   65      1.02471    0.00000
   66      1.32837    0.00000
   67      1.45990    0.00000
   68      1.97568    0.00000
   69      2.60413    0.00000
   70      3.06196    0.00000
   71      3.68585    0.00000
   72      3.93548    0.00000
   73      4.87854    0.00000
   74      5.51425    0.00000
   75      5.86201    0.00000
   76      6.41788    0.00000
   77      6.60802    0.00000
   78      7.05934    0.00000
   79      7.11375    0.00000
   80      7.50067    0.00000
   81      7.71054    0.00000
   82      7.92891    0.00000
   83      8.30561    0.00000
   84      8.55313    0.00000
   85      8.64716    0.00000
   86      8.72439    0.00000
   87      8.98191    0.00000
   88      9.16063    0.00000
   89      9.24188    0.00000
   90      9.39825    0.00000
   91      9.50100    0.00000
   92      9.64155    0.00000
   93      9.81113    0.00000
   94      9.94786    0.00000
   95     10.04437    0.00000
   96     10.15251    0.00000
   97     10.18678    0.00000


Forces in eV/Ang:
  0 C    -0.45022   -1.64202    0.23908
  1 C    -0.94721   -0.31505    0.10873
  2 C     0.85538    0.85490   -0.09446
  3 C    -0.32299    0.10385   -0.00130
  4 C    -0.34742   -0.04120    0.00033
  5 C    -0.44344    2.30769   -0.12714
  6 C    -0.81074   -0.13847    0.29296
  7 C    -1.45702   -1.40715    1.00987
  8 C     0.15217   -0.51040   -0.16252
  9 C    -0.37836   -0.67496    0.08558
 10 C    -0.13184   -2.30332    0.75637
 11 C     0.57024   -1.88742    0.07657
 12 C    -1.58267    0.98856   -0.09817
 13 C     0.18807    0.13982   -0.07248
 14 C    -0.13460   -0.44200   -0.24584
 15 C     0.94872    1.89380   -0.19218
 16 C     0.31864    0.97031    0.15672
 17 C     1.00798    1.33325   -0.85186
 18 C     0.20955    2.33733   -0.90778
 19 C     0.49979    0.56008   -0.14874
 20 C    -0.71607   -3.78691    0.08988
 21 C     1.09509   -0.20688    0.04572
 22 C     1.25752    0.29913    0.17582
 23 C     0.55999    1.53909   -0.13072

System changes: positions 

Initializing position-dependent things.

Density initialized from wave functions
           .--------------------------------------.  
          /|                                      |  
         / |                                      |  
        /  |                                      |  
       /   |                                      |  
      /    |                                      |  
     /     |                                      |  
    /      |                                      |  
   /       |                                      |  
  /        |     CC  C  CC                        |  
 *         |  C C         C                       |  
 |         | C       C   C C  C                   |  
 |         .---C---C--C--C------C-----------------.  
 |        /    C    C     C    C  C              /   
 |       /             C                        /    
 |      /                                      /     
 |     /                                      /      
 |    /                                      /       
 |   /                                      /        
 |  /                                      /         
[...]

Dipole moment: (0.247723, 0.171548, -0.025017) |e|*Ang

Energy contributions relative to reference atoms: (reference = -24663.074771)

Kinetic:       +110.058383
Potential:     -117.401989
External:        +0.000000
XC:            -177.834393
Entropy (-ST):   -0.213328
Local:           +3.038512
--------------------------
Free energy:   -182.352815
Extrapolated:  -182.246151

Fermi level: -4.26205

 Band  Eigenvalues  Occupancy
    0    -22.98182    2.00000
    1    -21.68608    2.00000
    2    -21.31908    2.00000
    3    -20.67625    2.00000
    4    -20.49562    2.00000
    5    -20.04369    2.00000
    6    -19.19994    2.00000
    7    -18.99914    2.00000
    8    -18.74536    2.00000
    9    -18.00481    2.00000
   10    -17.50078    2.00000
   11    -17.00518    2.00000
   12    -16.77598    2.00000
   13    -15.43716    2.00000
   14    -15.32479    2.00000
   15    -14.91748    2.00000
   16    -14.59459    2.00000
   17    -13.98316    2.00000
   18    -13.08478    2.00000
   19    -12.86102    2.00000
   20    -12.40864    2.00000
   21    -12.23207    2.00000
   22    -11.83554    2.00000
   23    -11.30336    2.00000
   24    -11.15230    2.00000
   25    -10.93783    2.00000
   26    -10.57020    2.00000
   27    -10.44343    2.00000
   28     -9.52092    2.00000
   29     -9.24643    2.00000
   30     -9.18670    2.00000
   31     -9.08721    2.00000
   32     -8.86211    2.00000
   33     -8.61521    2.00000
   34     -8.48494    2.00000
   35     -8.14018    2.00000
   36     -7.77479    2.00000
   37     -7.30172    2.00000
   38     -6.77492    2.00000
   39     -6.70229    2.00000
   40     -6.47096    2.00000
   41     -6.34992    2.00000
   42     -5.75353    2.00000
   43     -5.66554    2.00000
   44     -5.30340    1.99994
   45     -5.10966    1.99958
   46     -5.00495    1.99881
   47     -4.41138    1.63316
   48     -4.08275    0.28541
   49     -3.94819    0.08308
   50     -3.05572    0.00001
   51     -2.90039    0.00000
   52     -2.81672    0.00000
   53     -2.53820    0.00000
   54     -2.12710    0.00000
   55     -1.76071    0.00000
   56     -1.31515    0.00000
   57     -0.97532    0.00000
   58     -0.51124    0.00000
   59     -0.32707    0.00000
   60      0.20249    0.00000
   61      2.14249    0.00000
   62      2.34489    0.00000
   63      2.64810    0.00000
   64      2.96410    0.00000
   65      3.47007    0.00000
   66      3.82737    0.00000
   67      4.37790    0.00000
   68      4.65215    0.00000
   69      4.91715    0.00000
   70      5.11747    0.00000
   71      5.59293    0.00000
   72      6.03909    0.00000
   73      6.06949    0.00000
   74      6.97404    0.00000
   75      7.36012    0.00000
   76      7.88283    0.00000
   77      8.13037    0.00000
   78      8.27243    0.00000
   79      8.46801    0.00000
   80      8.62489    0.00000
   81      8.87470    0.00000
   82      9.02046    0.00000
   83      9.12019    0.00000
   84      9.15677    0.00000
   85      9.31085    0.00000
   86      9.41248    0.00000
   87      9.46938    0.00000
   88      9.53055    0.00000
   89      9.72569    0.00000
   90      9.76064    0.00000
   91      9.84072    0.00000
   92      9.99836    0.00000
   93     10.25571    0.00000
   94     10.37811    0.00000
   95     10.44955    0.00000
   96     10.54041    0.00000
   97     10.74130    0.00000


Forces in eV/Ang:
  0 C    -0.03077    0.03617   -0.02893
  1 C     0.05499    0.03706   -0.00777
  2 C     0.06752    0.02347   -0.00068
  3 C    -0.02289   -0.00158   -0.00732
  4 C     0.02518    0.00750   -0.01057
  5 C    -0.00319    0.03705    0.01668
  6 C     0.00837   -0.01023   -0.01699
  7 C    -0.00873    0.02098   -0.01139
  8 C     0.03839   -0.03073    0.00750
  9 C     0.02503   -0.02456   -0.01298
 10 C    -0.01250   -0.00143   -0.01180
 11 C    -0.04893    0.02530    0.04232
 12 C    -0.05793    0.01461    0.03620
 13 C     0.01244    0.01877   -0.01574
 14 C     0.01530    0.01494    0.03698
 15 C     0.02962   -0.08693   -0.02271
 16 C     0.04647    0.04745    0.00889
 17 C     0.00596    0.04881    0.00215
 18 C    -0.00640    0.03346    0.02384
 19 C    -0.01737    0.07501    0.05523
 20 C    -0.05148   -0.03160   -0.03434
 21 C    -0.07828   -0.10426   -0.02675
 22 C     0.04068    0.01045    0.00244
 23 C     0.02896   -0.00394    0.01144

System changes: positions 

Initializing position-dependent things.

Density initialized from wave functions
           .--------------------------------------.  
          /|                                      |  
         / |                                      |  
        /  |                                      |  
       /   |                                      |  
      /    |                                      |  
     /     |                                      |  
    /      |                                      |  
   /       |         C                            |  
  /        |       C    C C                       |  
 *         |     CC      C                        |  
 |         |  C    CC   C C   C                   |  
 |         .----C-----C--C------C-----------------.  
 |        /      C  C     C   C C                /   
 |       /             C                        /    
 |      /                                      /     
 |     /                                      /      
 |    /                                      /       
 |   /                                      /        
 |  /                                      /         
 | /                                      /          
 |/                                      /           
 *--------------------------------------*            

Positions:
   0 C     10.486907    5.012973    4.715664
   1 C     11.209531    6.055537    4.639168
   2 C      4.446141   11.112929    5.093944
   3 C     10.789160    7.350876    4.541865
   4 C      9.763061    8.075601    4.706856
   5 C      4.337109    9.873661    5.249231
   6 C      7.375529    9.815568    4.900592
   7 C      7.219893    8.411425    5.063535
   8 C      6.475150   12.062972    4.740141
   9 C      5.223874   12.239491    4.886022
  10 C      8.413173    7.584139    4.956888
  11 C      7.403950   11.066783    4.744712
  12 C      9.095978    4.827828    4.952271
  13 C      3.553067    7.475899    5.561404
  14 C      5.885447    6.427501    5.405669
  15 C      8.170899    3.773607    5.055357
  16 C      4.825674    5.435314    5.531569
  17 C      8.317443    6.147123    5.094668
  18 C      5.883226    7.828764    5.284868
  19 C      6.843287    4.197637    5.352025
  20 C      4.518628    8.483964    5.371225
  21 C      5.468205    4.105173    5.488525
  22 C      3.663430    6.199513    5.612562
  23 C      7.058632    5.676324    5.366646

Unit cell:
           periodic     x           y           z      points  spacing
  1. axis:    yes   16.000000    0.000000    0.000000    80     0.2000
  2. axis:    yes    0.000000   16.000000    0.000000    80     0.2000
  3. axis:    yes    0.000000    0.000000   10.000000    48     0.2083

Effective grid spacing dv^(1/3) = 0.2027

                     log10-error:    total        iterations:
           time      wfs    density  energy       fermi  poisson
iter:   1  10:43:13          +inf  -182.247207    3      4      
iter:   2  10:43:13         -3.14  -182.247152    2      1      
iter:   3  10:43:14         -3.24  -182.248011    2      1      
iter:   4  10:43:14         -3.43  -182.248005    2      1      
iter:   5  10:43:15         -3.65  -182.248008    2      1      
iter:   6  10:43:15         -3.78  -182.247139    2      1      
iter:   7  10:43:16         -4.03  -182.246917    2      1      

Converged after 7 iterations.

Dipole moment: (0.247610, 0.178749, -0.025190) |e|*Ang

Energy contributions relative to reference atoms: (reference = -24663.074771)

Kinetic:       +109.799571
Potential:     -117.201511
External:        +0.000000
XC:            -177.763942
Entropy (-ST):   -0.214649
Local:           +3.026289
--------------------------
Free energy:   -182.354242
Extrapolated:  -182.246917

Fermi level: -4.26478

 Band  Eigenvalues  Occupancy
    0    -22.98005    2.00000
    1    -21.68704    2.00000
    2    -21.31830    2.00000
    3    -20.67754    2.00000
    4    -20.49608    2.00000
    5    -20.04343    2.00000
    6    -19.19759    2.00000
    7    -18.99866    2.00000
    8    -18.74239    2.00000
    9    -18.00583    2.00000
   10    -17.49915    2.00000
   11    -17.00439    2.00000
   12    -16.77492    2.00000
   13    -15.43865    2.00000
   14    -15.32274    2.00000
   15    -14.91564    2.00000
   16    -14.59422    2.00000
   17    -13.98225    2.00000
   18    -13.08493    2.00000
   19    -12.86226    2.00000
   20    -12.41227    2.00000
   21    -12.22936    2.00000
   22    -11.83350    2.00000
   23    -11.30611    2.00000
   24    -11.15091    2.00000
   25    -10.93528    2.00000
   26    -10.56943    2.00000
   27    -10.43253    2.00000
   28     -9.52206    2.00000
   29     -9.24648    2.00000
   30     -9.18660    2.00000
   31     -9.08543    2.00000
   32     -8.86519    2.00000
   33     -8.61533    2.00000
   34     -8.48483    2.00000
   35     -8.14010    2.00000
   36     -7.77576    2.00000
   37     -7.30057    2.00000
   38     -6.77559    2.00000
   39     -6.69982    2.00000
   40     -6.46623    2.00000
   41     -6.34846    2.00000
   42     -5.75441    2.00000
   43     -5.66739    2.00000
   44     -5.30799    1.99994
   45     -5.11058    1.99958
   46     -5.00403    1.99877
   47     -4.41281    1.62924
   48     -4.08711    0.28942
   49     -3.95086    0.08303
   50     -3.05728    0.00001
   51     -2.90175    0.00000
   52     -2.81789    0.00000
   53     -2.54573    0.00000
   54     -2.12815    0.00000
   55     -1.76370    0.00000
   56     -1.31713    0.00000
   57     -0.97484    0.00000
   58     -0.51713    0.00000
   59     -0.32699    0.00000
   60      0.20091    0.00000
   61      2.13717    0.00000
   62      2.33270    0.00000
   63      2.64400    0.00000
   64      2.96927    0.00000
   65      3.45303    0.00000
   66      3.83310    0.00000
   67      4.37843    0.00000
   68      4.64936    0.00000
   69      4.91404    0.00000
   70      5.11768    0.00000
   71      5.58493    0.00000
   72      6.02900    0.00000
   73      6.07457    0.00000
   74      6.96931    0.00000
   75      7.35724    0.00000
   76      7.88069    0.00000
   77      8.12948    0.00000
   78      8.27748    0.00000
   79      8.46836    0.00000
   80      8.62119    0.00000
   81      8.87452    0.00000
   82      9.02117    0.00000
   83      9.11902    0.00000
   84      9.15660    0.00000
   85      9.31050    0.00000
   86      9.41648    0.00000
   87      9.46889    0.00000
   88      9.53556    0.00000
   89      9.72160    0.00000
   90      9.75643    0.00000
   91      9.84077    0.00000
   92      9.99277    0.00000
   93     10.25338    0.00000
   94     10.37670    0.00000
   95     10.44478    0.00000
   96     10.54069    0.00000
   97     10.74069    0.00000


Forces in eV/Ang:
  0 C    -0.00967    0.06506   -0.03033
  1 C     0.01703    0.00512   -0.01289
  2 C     0.05581    0.00740    0.00261
  3 C    -0.02746   -0.02835    0.00095
  4 C    -0.00332   -0.00732   -0.00259
  5 C    -0.01173    0.04146    0.00500
  6 C     0.00317    0.01633   -0.02198
  7 C     0.02422    0.03233   -0.01574
  8 C    -0.01699   -0.04883    0.01146
  9 C     0.03070   -0.00750   -0.01686
 10 C     0.00945    0.01767   -0.01653
 11 C    -0.04653   -0.01575    0.04661
 12 C    -0.04398    0.00830    0.03031
 13 C    -0.00552    0.01671   -0.01553
 14 C     0.02882    0.00046    0.03620
 15 C     0.00260   -0.05669   -0.02145
 16 C     0.03780    0.04069    0.01079
 17 C    -0.00837    0.04133    0.01007
 18 C     0.00423    0.04125    0.01831
 19 C    -0.01399    0.04064    0.04333
 20 C    -0.01831   -0.01982   -0.02858
 21 C    -0.04209   -0.09391   -0.02417
 22 C     0.02331    0.01402    0.00026
 23 C     0.00586    0.01982    0.01606

System changes: positions 

Initializing position-dependent things.

Density initialized from wave functions
           .--------------------------------------.  
          /|                                      |  
         / |                                      |  
        /  |                                      |  
       /   |                                      |  
      /    |                                      |  
     /     |                                      |  
    /      |                                      |  
   /       |         C                            |  
  /        |       C    C C                       |  
 *         |     CC      C                        |  
 |         |  C    CC   C C   C                   |  
 |         .----C-----C--C------C-----------------.  
 |        /      C  C     C   C C                /   
 |       /             C                        /    
 |      /                                      /     
 |     /                                      /      
 |    /                                      /       
 |   /                                      /        
 |  /                                      /         
 | /                                      /          
 |/                                      /           
 *--------------------------------------*            

Positions:
   0 C     10.486459    5.016086    4.714107
   1 C     11.211015    6.057839    4.639721
   2 C      4.449652   11.113887    5.093536
   3 C     10.787728    7.351967    4.541084
   4 C      9.761772    8.076870    4.706313
   5 C      4.339759    9.874896    5.249214
   6 C      7.373965    9.815374    4.899789
   7 C      7.218196    8.411488    5.062982
   8 C      6.477199   12.064456    4.740466
   9 C      5.226181   12.240251    4.885411
  10 C      8.412316    7.584552    4.956171
  11 C      7.403044   11.066569    4.746576
  12 C      9.095463    4.828134    4.953643
  13 C      3.552642    7.476312    5.560722
  14 C      5.886144    6.427313    5.407618
  15 C      8.170770    3.771281    5.054252
  16 C      4.826527    5.435002    5.532305
  17 C      8.317345    6.147753    5.094961
  18 C      5.882047    7.828701    5.285486
  19 C      6.842802    4.199416    5.354229
  20 C      4.517900    8.483880    5.369292
  21 C      5.465243    4.101427    5.487940
  22 C      3.665292    6.200130    5.612699
  23 C      7.059040    5.676543    5.368332

Unit cell:
           periodic     x           y           z      points  spacing
  1. axis:    yes   16.000000    0.000000    0.000000    80     0.2000
  2. axis:    yes    0.000000   16.000000    0.000000    80     0.2000
  3. axis:    yes    0.000000    0.000000   10.000000    48     0.2083

Effective grid spacing dv^(1/3) = 0.2027

                     log10-error:    total        iterations:
           time      wfs    density  energy       fermi  poisson
iter:   1  10:43:18          +inf  -182.245091    3      4      
iter:   2  10:43:18         -2.82  -182.245748    3      1      
iter:   3  10:43:19         -3.02  -182.247506    3      1      
iter:   4  10:43:19         -3.29  -182.246874    2      1      
iter:   5  10:43:20         -3.53  -182.247367    2      1      
iter:   6  10:43:20         -3.59  -182.246783    2      1      
iter:   7  10:43:21         -3.69  -182.246412    2      1      
iter:   8  10:43:22         -3.83  -182.246733    2      1      
iter:   9  10:43:22         -4.09  -182.246531    2      1      

Converged after 9 iterations.

Dipole moment: (0.249539, 0.191293, -0.025418) |e|*Ang

Energy contributions relative to reference atoms: (reference = -24663.074771)

Kinetic:       +109.764825
Potential:     -117.201848
External:        +0.000000
XC:            -177.734104
Entropy (-ST):   -0.217655
Local:           +3.033423
--------------------------
Free energy:   -182.355359
Extrapolated:  -182.246531

Fermi level: -4.26869

 Band  Eigenvalues  Occupancy
    0    -22.97342    2.00000
    1    -21.68717    2.00000
    2    -21.31553    2.00000
    3    -20.68525    2.00000
    4    -20.50140    2.00000
    5    -20.03992    2.00000
    6    -19.19957    2.00000
    7    -18.99937    2.00000
    8    -18.73781    2.00000
    9    -18.00648    2.00000
   10    -17.49820    2.00000
   11    -17.00309    2.00000
   12    -16.77486    2.00000
   13    -15.43881    2.00000
   14    -15.32311    2.00000
   15    -14.91405    2.00000
   16    -14.59750    2.00000
   17    -13.98070    2.00000
   18    -13.08686    2.00000
   19    -12.86204    2.00000
   20    -12.41651    2.00000
   21    -12.22398    2.00000
   22    -11.83129    2.00000
   23    -11.30685    2.00000
   24    -11.14685    2.00000
   25    -10.93307    2.00000
   26    -10.56731    2.00000
   27    -10.40555    2.00000
   28     -9.52407    2.00000
   29     -9.24746    2.00000
   30     -9.18597    2.00000
   31     -9.08358    2.00000
   32     -8.87332    2.00000
   33     -8.61848    2.00000
   34     -8.48765    2.00000
   35     -8.14341    2.00000
   36     -7.77595    2.00000
   37     -7.30260    2.00000
   38     -6.77706    2.00000
   39     -6.70016    2.00000
   40     -6.45871    2.00000
   41     -6.34790    2.00000
   42     -5.75518    2.00000
   43     -5.66891    2.00000
   44     -5.31499    1.99994
   45     -5.11190    1.99956
   46     -5.00472    1.99873
   47     -4.41343    1.61921
   48     -4.09579    0.30142
   49     -3.95233    0.08112
   50     -3.06163    0.00001
   51     -2.90532    0.00000
   52     -2.81900    0.00000
   53     -2.54215    0.00000
   54     -2.13063    0.00000
   55     -1.76601    0.00000
   56     -1.30883    0.00000
   57     -0.97371    0.00000
   58     -0.52069    0.00000
   59     -0.32148    0.00000
   60      0.19847    0.00000
   61      2.13884    0.00000
   62      2.32103    0.00000
   63      2.64419    0.00000
   64      2.97742    0.00000
   65      3.43774    0.00000
   66      3.83415    0.00000
   67      4.37816    0.00000
   68      4.65268    0.00000
   69      4.91234    0.00000
   70      5.11820    0.00000
   71      5.58017    0.00000
   72      6.01171    0.00000
   73      6.08563    0.00000
   74      6.96353    0.00000
   75      7.34915    0.00000
   76      7.88227    0.00000
   77      8.12450    0.00000
   78      8.28315    0.00000
   79      8.46510    0.00000
   80      8.61891    0.00000
   81      8.87455    0.00000
   82      9.01970    0.00000
   83      9.11622    0.00000
   84      9.15655    0.00000
   85      9.31090    0.00000
   86      9.42160    0.00000
   87      9.46636    0.00000
   88      9.53729    0.00000
   89      9.71335    0.00000
   90      9.75472    0.00000
   91      9.84149    0.00000
   92      9.98575    0.00000
   93     10.25340    0.00000
   94     10.37425    0.00000
   95     10.43808    0.00000
   96     10.54254    0.00000
   97     10.73964    0.00000


Forces in eV/Ang:
  0 C    -0.05040    0.05585   -0.01702
  1 C     0.00135   -0.01481   -0.01590
  2 C     0.02641    0.00410    0.00060
  3 C    -0.02625   -0.02766   -0.00614
  4 C    -0.01249   -0.00349   -0.00060
  5 C    -0.02040    0.00219   -0.00665
  6 C     0.00168   -0.00090   -0.01434
  7 C     0.03970    0.02785   -0.01585
  8 C    -0.00133   -0.03720    0.00738
  9 C     0.01392    0.00957   -0.01222
 10 C     0.00908    0.02522   -0.01535
 11 C    -0.01393   -0.01010    0.03515
 12 C    -0.00385   -0.00352    0.00399
 13 C    -0.01388    0.00833   -0.01594
 14 C     0.01456    0.01520    0.02851
 15 C    -0.01120   -0.00451   -0.00192
 16 C     0.01925    0.00214    0.01525
 17 C    -0.01030    0.01552    0.01722
 18 C     0.02660    0.02752    0.00750
 19 C    -0.01125   -0.01425    0.01887
 20 C     0.00553    0.00948   -0.00952
 21 C     0.01751   -0.04042   -0.03188
 22 C     0.00564    0.01567   -0.00515
 23 C    -0.00500    0.01142    0.02702

