
  ___ ___ ___ _ _ _  
 |   |   |_  | | | | 
 | | | | | . | | | | 
 |__ |  _|___|_____|  1.3.0b1
 |___|_|             

User:   esb@s65n12.grendel.cscaa.dk
Date:   Thu Nov  9 09:19:02 2017
Arch:   x86_64
Pid:    17979
Python: 2.7.13
gpaw:   /home/esb/DFT/gpaw_git/gpaw
_gpaw:  /home/esb/DFT/gpaw_git/build/bin.linux-x86_64-2.7/gpaw-python
ase:    /home/esb/DFT/ase_git/ase (version 3.15.0b1)
numpy:  /comm/swstack/core/python/2.7.13/lib/python2.7/site-packages/numpy (version 1.13.3)
scipy:  /comm/swstack/core/python/2.7.13/lib/python2.7/site-packages/scipy (version 0.19.1)
units:  Angstrom and eV
cores:  16
Extra parameters: {'blacs': True}

Input parameters:
  basis: dzp
  gpts: [80 80 48]
  kpts: [1 1 1]
  maxiter: 99
  mixer: {backend: pulay,
          beta: 0.05,
          method: separate,
          nmaxold: 5,
          weight: 75}
  mode: lcao
  nbands: -50
  occupations: {name: fermi-dirac,
                width: 0.1}
  poissonsolver: {eps: 1e-07,
                  name: fd,
                  nn: 3,
                  relax: GS}
  xc: PBE

System changes: positions, numbers, cell, pbc, initial_charges, initial_magmoms 

Initialize ...

C-setup:
  name: Carbon
  id: 4aa54d4b901d75f77cc0ea3eec22967b
  Z: 6
  valence: 4
  core: 2
  charge: 0.0
  file: /home/esb/DFT/gpaw-setups-0.8.7929/C.PBE.gz
  cutoffs: 0.64(comp), 1.14(filt), 1.14(core), lmax=2
  valence states:
                energy  radius
    2s(2.00)   -13.751   0.635
    2p(2.00)    -5.284   0.635
    *s          13.461   0.635
    *p          21.927   0.635
    *d           0.000   0.635

  LCAO basis set for C:
    Name: dzp
    File: /home/esb/DFT/gpaw-setups-0.8.7929/C.dzp.basis.gz
    Number of radial functions: 5
    Number of spherical harmonics: 13
      l=0, rc=5.5469 Bohr: 2s-sz confined orbital
      l=1, rc=6.6719 Bohr: 2p-sz confined orbital
      l=0, rc=3.0312 Bohr: 2s-dz split-valence wave
      l=1, rc=3.7500 Bohr: 2p-dz split-valence wave
      l=2, rc=6.6719 Bohr: d-type Gaussian polarization

Reference energy: -24663.074771

Spin-paired calculation

Occupation numbers:
  Fermi-Dirac: width=0.1000 eV

Convergence criteria:
  Maximum total energy change: 0.0005 eV / electron
  Maximum integral of absolute density change: 0.0001 electrons
  Maximum integral of absolute eigenstate change: 4e-08 eV^2
  Maximum number of iterations: 99

Symmetries present (total): 1

  ( 1  0  0)
  ( 0  1  0)
  ( 0  0  1)

1 k-point (Gamma)
1 k-point in the irreducible part of the Brillouin zone
       k-points in crystal coordinates                weights
   0:     0.00000000    0.00000000    0.00000000          1/1

Wave functions: LCAO
  Diagonalizer: Serial LAPACK
  Atomic Correction: dense with blas
  Datatype: float
  Eigensolver: None 

LCAO using direct dense diagonalizer 

Densities:
  Coarse grid: 80*80*48 grid
  Fine grid: 160*160*96 grid
  Total Charge: 0.000000 

Density mixing:
  Method: separate
  Backend: pulay
  Linear mixing parameter: 0.05
  Mixing with 5 old densities
  Damping of long wave oscillations: 75 

Hamiltonian:
  XC and Coulomb potentials evaluated on a 160*160*96 grid
  Using the PBE Exchange-Correlation functional
  Interpolation: tri-quintic (5. degree polynomial)
  Poisson solver: Gauss-Seidel solver with 6 multi-grid levels
    Coarsest grid: 5 x 5 x 3 points
    Stencil: 6*3+1=19 point O(h^6) finite-difference Laplacian
    Max iterations: 1000
    Tolerance: 1.000000e-07 

Memory estimate:
  Process memory now: 77.59 MiB
  Calculator: 15.59 MiB
    Density: 6.13 MiB
      Arrays: 3.81 MiB
      Localized functions: 0.86 MiB
      Mixer: 1.46 MiB
    Hamiltonian: 5.40 MiB
      Arrays: 2.49 MiB
      XC: 0.00 MiB
      Poisson: 2.85 MiB
      vbar: 0.07 MiB
    Wavefunctions: 4.05 MiB
      C [qnM]: 0.23 MiB
      S, T [2 x qmm]: 1.49 MiB
      P [aqMi]: 0.01 MiB
      TCI: 0.00 MiB
      BasisFunctions: 2.33 MiB
      Eigensolver: 0.00 MiB

Total number of cores used: 16
Domain decomposition: 2 x 4 x 2

Number of atoms: 24
Number of atomic orbitals: 312
Number of bands in calculation: 98
Bands to converge: occupied states only
Number of valence electrons: 96

... initialized

Initializing position-dependent things.

Density initialized from atomic densities
           .--------------------------------------.  
          /|                                      |  
         / |                                      |  
        /  |                                      |  
       /   |                                      |  
      /    |                                      |  
     /     |                                      |  
    /      |                                      |  
   /       |                   CC                 |  
  /        |           C                          |  
 *         |   C C        C    C C C              |  
 |         |  C C C C     C   CC                  |  
 |         .---------C--CC--C-C-------------------.  
 |        /             C                        /   
 |       /                                      /    
 |      /                                      /     
 |     /                                      /      
 |    /                                      /       
 |   /                                      /        
 |  /                                      /         
 | /                                      /          
 |/                                      /           
 *--------------------------------------*            

Positions:
   0 C      6.234102   10.583463    4.956606
   1 C      5.527166    9.630690    4.521032
   2 C      9.223889   11.790671    5.479812
   3 C      4.075351    9.228465    5.358003
   4 C      7.617843   10.435069    4.775765
   5 C     10.044695   10.950430    6.111351
   6 C      3.567884    8.089061    5.595037
   7 C      8.076811    9.132592    4.189437
   8 C      9.639495   10.165147    4.657180
   9 C      3.509808    6.783443    5.873978
  10 C      7.401878    7.872845    4.010417
  11 C      9.447729    8.806943    4.304330
  12 C      8.562908    4.459614    6.259982
  13 C      7.353857    4.115191    6.367381
  14 C     10.731988    5.840759    6.458928
  15 C      5.681921    4.363138    7.201907
  16 C      9.540594    5.382812    5.854151
  17 C     11.284718    6.998066    6.380354
  18 C      4.869990    4.668988    6.329971
  19 C      9.641349    6.359315    4.628544
  20 C     11.614313    8.516375    5.968266
  21 C      3.951991    5.618181    6.124947
  22 C      7.846957    6.713280    4.256454
  23 C      9.949949    7.491084    4.585505

Unit cell:
           periodic     x           y           z      points  spacing
  1. axis:    yes   16.000000    0.000000    0.000000    80     0.2000
  2. axis:    yes    0.000000   16.000000    0.000000    80     0.2000
  3. axis:    yes    0.000000    0.000000   10.000000    48     0.2083

Effective grid spacing dv^(1/3) = 0.2027

                     log10-error:    total        iterations:
           time      wfs    density  energy       fermi  poisson
iter:   1  09:19:04          +inf  -166.563451    3      6      
iter:   2  09:19:04         -0.89  -164.886606    2      3      
iter:   3  09:19:05         -0.93  -162.693931    3      3      
iter:   4  09:19:05         -1.04  -161.780039    4      3      
iter:   5  09:19:06         -1.15  -161.255389    32     3      
iter:   6  09:19:06         -1.41  -161.097730    3      3      
iter:   7  09:19:07         -1.62  -161.111654    3      3      
iter:   8  09:19:08         -1.76  -161.081243    3      2      
iter:   9  09:19:08         -1.86  -161.048881    3      3      
iter:  10  09:19:09         -2.03  -161.032614    3      2      
iter:  11  09:19:09         -2.26  -161.030892    3      2      
iter:  12  09:19:10         -2.50  -161.025259    3      2      
iter:  13  09:19:10         -2.70  -161.021929    3      2      
iter:  14  09:19:11         -2.89  -161.030276    2      1      
iter:  15  09:19:11         -3.00  -161.022224    2      1      
iter:  16  09:19:11         -3.16  -161.015069    2      1      
iter:  17  09:19:12         -3.26  -161.016270    2      1      
iter:  18  09:19:12         -3.48  -161.018011    2      1      
iter:  19  09:19:13         -3.55  -161.019189    2      1      
iter:  20  09:19:13         -3.60  -161.018738    2      1      
iter:  21  09:19:14         -3.69  -161.019024    2      1      
iter:  22  09:19:14         -3.75  -161.019732    2      1      
iter:  23  09:19:15         -3.81  -161.021201    2      1      
iter:  24  09:19:15         -3.96  -161.020109    2      1      
iter:  25  09:19:16         -4.08  -161.019722    2      1      

Converged after 25 iterations.

Dipole moment: (-0.329046, -0.142808, -0.314017) |e|*Ang

Energy contributions relative to reference atoms: (reference = -24663.074771)

Kinetic:        +94.459887
Potential:     -102.716683
External:        +0.000000
XC:            -155.481106
Entropy (-ST):   -0.309911
Local:           +2.873135
--------------------------
Free energy:   -161.174677
Extrapolated:  -161.019722

Fermi level: -4.80377

 Band  Eigenvalues  Occupancy
    0    -23.33726    2.00000
    1    -21.92980    2.00000
    2    -20.86812    2.00000
    3    -20.68989    2.00000
    4    -20.38780    2.00000
    5    -19.87717    2.00000
    6    -19.54101    2.00000
    7    -19.04115    2.00000
    8    -18.67173    2.00000
    9    -18.31676    2.00000
   10    -17.32277    2.00000
   11    -16.98413    2.00000
   12    -15.99114    2.00000
   13    -15.49568    2.00000
   14    -15.33527    2.00000
   15    -14.84382    2.00000
   16    -14.16732    2.00000
   17    -13.23875    2.00000
   18    -12.68572    2.00000
   19    -12.43378    2.00000
   20    -12.01715    2.00000
   21    -11.08132    2.00000
   22    -10.92830    2.00000
   23    -10.73408    2.00000
   24    -10.48590    2.00000
   25    -10.27330    2.00000
   26     -9.62562    2.00000
   27     -9.33404    2.00000
   28     -9.17105    2.00000
   29     -9.03207    2.00000
   30     -8.49560    2.00000
   31     -8.34963    2.00000
   32     -8.09206    2.00000
   33     -7.97928    2.00000
   34     -7.71167    2.00000
   35     -7.46921    2.00000
   36     -7.23181    2.00000
   37     -7.14138    2.00000
   38     -6.98340    2.00000
   39     -6.78206    2.00000
   40     -6.63724    2.00000
   41     -6.40163    2.00000
   42     -6.08254    1.99999
   43     -6.01488    1.99999
   44     -5.73157    1.99981
   45     -5.36992    1.99307
   46     -5.13091    1.92687
   47     -4.87701    1.35068
   48     -4.74039    0.69329
   49     -4.40227    0.03545
   50     -4.02008    0.00079
   51     -3.74851    0.00005
   52     -3.40214    0.00000
   53     -3.12602    0.00000
   54     -3.01316    0.00000
   55     -2.26640    0.00000
   56     -1.92836    0.00000
   57     -1.59341    0.00000
   58     -1.56887    0.00000
   59     -1.04043    0.00000
   60     -0.80248    0.00000
   61     -0.62485    0.00000
   62     -0.58458    0.00000
   63     -0.02741    0.00000
   64      0.41436    0.00000
   65      0.48857    0.00000
   66      0.70962    0.00000
   67      0.87413    0.00000
   68      1.47138    0.00000
   69      1.85051    0.00000
   70      2.58147    0.00000
   71      2.89642    0.00000
   72      2.97016    0.00000
   73      3.67666    0.00000
   74      3.94922    0.00000
   75      4.80720    0.00000
   76      5.36709    0.00000
   77      5.92930    0.00000
   78      6.63014    0.00000
   79      6.71587    0.00000
   80      7.05258    0.00000
   81      7.60422    0.00000
   82      7.91058    0.00000
   83      8.20007    0.00000
   84      8.49766    0.00000
   85      8.65785    0.00000
   86      8.79775    0.00000
   87      8.91668    0.00000
   88      9.15737    0.00000
   89      9.23363    0.00000
   90      9.26198    0.00000
   91      9.48566    0.00000
   92      9.63449    0.00000
   93      9.73388    0.00000
   94      9.74979    0.00000
   95      9.77698    0.00000
   96     10.00250    0.00000
   97     10.19095    0.00000


Forces in eV/Ang:
  0 C     5.44938    3.02355    0.06585
  1 C    -8.84506   -3.47571    2.12471
  2 C    -1.92406   -0.22750   -1.55187
  3 C     4.04028    0.88333   -3.08872
  4 C     0.39081   -1.87051   -1.46998
  5 C     0.97279   -2.77471   -2.80024
  6 C     0.18519   -0.47888    0.18856
  7 C    -2.91130   -0.19865    0.64251
  8 C     1.93933    2.61194    5.49406
  9 C    -0.17822   -0.40030   -0.06356
 10 C    -1.87021    1.94964   -0.21649
 11 C     1.96775    1.32591    0.29420
 12 C    -0.28218    1.17372   -0.53386
 13 C    -3.69705    0.15006    2.58938
 14 C    -0.62254   -1.33934    1.61099
 15 C     9.17244   -3.16231    0.96418
 16 C     2.77181    0.77222   -1.27441
 17 C     2.19805    5.66092   -0.65512
 18 C    -4.51863    1.71267   -2.61083
 19 C    -9.66875  -13.51144    0.98966
 20 C    -1.54713   -6.54285    0.64135
 21 C    -0.70192    1.00702   -0.70104
 22 C     2.40051   -2.03444    0.20567
 23 C     5.31386   15.82804   -0.89849

System changes: positions 

Initializing position-dependent things.

Density initialized from wave functions
           .--------------------------------------.  
          /|                                      |  
         / |                                      |  
        /  |                                      |  
       /   |                                      |  
      /    |                                      |  
     /     |                                      |  
    /      |                                      |  
   /       |                   CC                 |  
  /        |           C                          |  
 *         |   C C        C    C C C              |  
 |         |  C C C C     C   CC                  |  
 |         .---------C--CC--C-C-------------------.  
 |        /             C                        /   
 |       /                                      /    
 |      /                                      /     
 |     /                                      /      
 |    /                                      /       
 |   /                                      /        
 |  /                                      /         
 | /                                      /          
 |/                                      /           
 *--------------------------------------*            

Positions:
   0 C      6.247138   10.590696    4.956764
   1 C      5.506006    9.622375    4.526115
   2 C      9.219286   11.790126    5.476099
   3 C      4.085017    9.230578    5.350614
   4 C      7.618778   10.430594    4.772248
   5 C     10.047022   10.943792    6.104652
   6 C      3.568327    8.087915    5.595488
   7 C      8.069847    9.132117    4.190974
   8 C      9.644135   10.171396    4.670323
   9 C      3.509382    6.782485    5.873826
  10 C      7.397404    7.877509    4.009899
  11 C      9.452437    8.810115    4.305033
  12 C      8.562233    4.462422    6.258705
  13 C      7.345012    4.115550    6.373576
  14 C     10.730499    5.837555    6.462782
  15 C      5.703864    4.355573    7.204214
  16 C      9.547225    5.384660    5.851102
  17 C     11.289976    7.011608    6.378787
  18 C      4.859180    4.673085    6.323725
  19 C      9.618218    6.326992    4.630911
  20 C     11.610611    8.500723    5.969801
  21 C      3.950312    5.620590    6.123270
  22 C      7.852699    6.708413    4.256946
  23 C      9.962661    7.528949    4.583356

Unit cell:
           periodic     x           y           z      points  spacing
  1. axis:    yes   16.000000    0.000000    0.000000    80     0.2000
  2. axis:    yes    0.000000   16.000000    0.000000    80     0.2000
  3. axis:    yes    0.000000    0.000000   10.000000    48     0.2083

Effective grid spacing dv^(1/3) = 0.2027

                     log10-error:    total        iterations:
           time      wfs    density  energy       fermi  poisson
iter:   1  09:19:17          +inf  -163.227618    3      5      
iter:   2  09:19:18         -1.94  -163.187397    3      2      
iter:   3  09:19:18         -2.09  -163.169375    3      2      
iter:   4  09:19:19         -2.24  -163.163723    3      2      
iter:   5  09:19:19         -2.43  -163.158127    2      2      
iter:   6  09:19:20         -2.62  -163.156926    2      2      
iter:   7  09:19:20         -2.71  -163.157454    2      2      
iter:   8  09:19:21         -2.99  -163.156061    2      2      
iter:   9  09:19:21         -3.26  -163.154874    2      1      
iter:  10  09:19:22         -3.41  -163.155940    2      1      
iter:  11  09:19:22         -3.53  -163.155735    2      1      
iter:  12  09:19:23         -3.63  -163.153888    2      1      
iter:  13  09:19:23         -3.87  -163.155636    2      1      
iter:  14  09:19:24         -4.02  -163.155269    2      1      

Converged after 14 iterations.

Dipole moment: (-0.391809, -0.151043, -0.319807) |e|*Ang

Energy contributions relative to reference atoms: (reference = -24663.074771)

Kinetic:        +79.397540
Potential:      -91.826255
External:        +0.000000
XC:            -153.385217
Entropy (-ST):   -0.292532
Local:           +2.804929
--------------------------
Free energy:   -163.301535
Extrapolated:  -163.155269

Fermi level: -4.78510

 Band  Eigenvalues  Occupancy
    0    -23.26514    2.00000
    1    -21.79660    2.00000
    2    -20.86139    2.00000
    3    -20.61946    2.00000
    4    -20.41368    2.00000
    5    -19.83464    2.00000
    6    -19.37120    2.00000
    7    -19.00309    2.00000
    8    -18.63482    2.00000
    9    -18.28798    2.00000
   10    -17.36469    2.00000
   11    -16.96243    2.00000
   12    -15.99232    2.00000
   13    -15.53050    2.00000
   14    -15.35869    2.00000
   15    -14.93242    2.00000
   16    -14.22484    2.00000
   17    -13.20721    2.00000
   18    -12.73005    2.00000
   19    -12.44133    2.00000
   20    -12.05865    2.00000
   21    -11.13045    2.00000
   22    -10.93373    2.00000
   23    -10.71148    2.00000
   24    -10.51904    2.00000
   25    -10.28719    2.00000
   26     -9.57716    2.00000
   27     -9.35247    2.00000
   28     -9.20084    2.00000
   29     -9.08056    2.00000
   30     -8.48772    2.00000
   31     -8.36057    2.00000
   32     -8.06945    2.00000
   33     -7.96534    2.00000
   34     -7.69961    2.00000
   35     -7.37653    2.00000
   36     -7.26864    2.00000
   37     -7.09678    2.00000
   38     -6.91886    2.00000
   39     -6.76962    2.00000
   40     -6.62248    2.00000
   41     -6.41420    2.00000
   42     -6.08456    2.00000
   43     -6.01221    1.99999
   44     -5.73643    1.99985
   45     -5.33832    1.99212
   46     -5.14811    1.94834
   47     -4.87309    1.41359
   48     -4.70217    0.60758
   49     -4.39018    0.03781
   50     -3.98725    0.00069
   51     -3.69933    0.00004
   52     -3.33255    0.00000
   53     -3.11693    0.00000
   54     -2.98383    0.00000
   55     -2.32119    0.00000
   56     -1.96556    0.00000
   57     -1.57048    0.00000
   58     -1.53517    0.00000
   59     -1.01760    0.00000
   60     -0.83203    0.00000
   61     -0.69241    0.00000
   62     -0.62059    0.00000
   63     -0.12018    0.00000
   64      0.29993    0.00000
   65      0.46201    0.00000
   66      0.64327    0.00000
   67      0.79318    0.00000
   68      1.49245    0.00000
   69      1.79024    0.00000
   70      2.50124    0.00000
   71      2.90651    0.00000
   72      3.21382    0.00000
   73      3.72998    0.00000
   74      4.28261    0.00000
   75      5.01788    0.00000
   76      5.35788    0.00000
   77      5.92041    0.00000
   78      6.68839    0.00000
   79      6.92987    0.00000
   80      7.14381    0.00000
   81      7.57590    0.00000
   82      7.87252    0.00000
   83      8.21146    0.00000
   84      8.46176    0.00000
   85      8.66381    0.00000
   86      8.82110    0.00000
   87      8.93686    0.00000
   88      9.13181    0.00000
   89      9.25233    0.00000
   90      9.28065    0.00000
   91      9.50894    0.00000
   92      9.63665    0.00000
   93      9.71620    0.00000
   94      9.75070    0.00000
   95      9.78379    0.00000
   96     10.01895    0.00000
   97     10.19316    0.00000


Forces in eV/Ang:
  0 C     4.02602    1.56820   -0.54967
  1 C    -7.64658   -1.95155    2.84027
  2 C    -1.72843   -0.32944   -1.35897
  3 C     3.91827    0.44491   -3.05376
  4 C     0.39788   -1.77491   -1.44962
  5 C     0.78409   -2.60648   -3.04217
  6 C     0.38796   -0.17759    0.12873
  7 C    -2.37676   -0.20664    0.59338
  8 C     1.85562    2.61991    5.56622
  9 C    -0.39150    0.19162   -0.20318
 10 C    -1.45340    0.78976   -0.05956
 11 C     1.18106    1.93441    0.12454
 12 C    -0.99757    0.83822   -0.39264
 13 C    -2.99283    0.47300    2.54135
 14 C    -0.04759   -0.36768    1.55266
 15 C     7.49778   -2.43753   -0.93810
 16 C     2.35565    0.57498   -1.24577
 17 C     1.50545    4.61929   -0.88910
 18 C    -2.60533    0.76716   -0.84342
 19 C    -8.03531   -6.07368    0.52877
 20 C    -1.59974   -6.34350    0.50778
 21 C    -0.65556    0.76130   -0.55588
 22 C     2.50855   -1.10575    0.15465
 23 C     4.11534    7.88465    0.06856

System changes: positions 

Initializing position-dependent things.

Density initialized from wave functions
           .--------------------------------------.  
          /|                                      |  
         / |                                      |  
        /  |                                      |  
       /   |                                      |  
      /    |                                      |  
     /     |                                      |  
    /      |                                      |  
   /       |                   CC                 |  
  /        |           C                          |  
 *         |   C C        C    C C C              |  
 |         |  C C C C     C   CC                  |  
 |         .---------C--CC--C-C-------------------.  
 |        /             C                        /   
 |       /                                      /    
 |      /                                      /     
 |     /                                      /      
 |    /                                      /       
 |   /                                      /        
 |  /                                      /         
 | /                                      /          
 |/                                      /           
 *--------------------------------------*            

Positions:
   0 C      6.262910   10.593442    4.951557
   1 C      5.470375    9.617876    4.543728
   2 C      9.210948   11.788012    5.469691
   3 C      4.105131    9.231261    5.334711
   4 C      7.620893   10.421635    4.764713
   5 C     10.050428   10.930740    6.087766
   6 C      3.571129    8.088119    5.595938
   7 C      8.059383    9.131002    4.193905
   8 C      9.653562   10.185182    4.699823
   9 C      3.506522    6.785724    5.872233
  10 C      7.391345    7.877282    4.010178
  11 C      9.455672    8.822567    4.305048
  12 C      8.554297    4.465558    6.257176
  13 C      7.331953    4.119251    6.386739
  14 C     10.732417    5.839289    6.470715
  15 C      5.736918    4.345507    7.192114
  16 C      9.558025    5.386935    5.844669
  17 C     11.295269    7.031935    6.373236
  18 C      4.852716    4.673548    6.325962
  19 C      9.582186    6.323149    4.631950
  20 C     11.602013    8.468166    5.971963
  21 C      3.947045    5.623661    6.120899
  22 C      7.866279    6.706109    4.257566
  23 C      9.979750    7.540394    4.587363

Unit cell:
           periodic     x           y           z      points  spacing
  1. axis:    yes   16.000000    0.000000    0.000000    80     0.2000
  2. axis:    yes    0.000000   16.000000    0.000000    80     0.2000
  3. axis:    yes    0.000000    0.000000   10.000000    48     0.2083

Effective grid spacing dv^(1/3) = 0.2027

                     log10-error:    total        iterations:
           time      wfs    density  energy       fermi  poisson
iter:   1  09:19:25          +inf  -165.456619    3      5      
iter:   2  09:19:26         -1.79  -165.372777    2      2      
iter:   3  09:19:26         -1.92  -165.311989    2      2      
iter:   4  09:19:27         -2.17  -165.302871    2      2      
iter:   5  09:19:27         -2.35  -165.296069    2      2      
iter:   6  09:19:28         -2.46  -165.292905    2      2      
iter:   7  09:19:28         -2.59  -165.292593    2      2      
iter:   8  09:19:29         -2.89  -165.291018    2      1      
iter:   9  09:19:29         -3.01  -165.292772    2      2      
iter:  10  09:19:30         -3.23  -165.293125    2      1      
iter:  11  09:19:30         -3.28  -165.291769    2      1      
iter:  12  09:19:31         -3.59  -165.292888    2      1      
iter:  13  09:19:31         -3.67  -165.293079    2      1      
iter:  14  09:19:32         -3.83  -165.292608    2      1      
iter:  15  09:19:32         -4.03  -165.293038    1      1      

Converged after 15 iterations.

Dipole moment: (-0.507678, -0.167780, -0.311845) |e|*Ang

Energy contributions relative to reference atoms: (reference = -24663.074771)

Kinetic:        +69.926463
Potential:      -85.078804
External:        +0.000000
XC:            -152.828954
Entropy (-ST):   -0.277390
Local:           +2.826953
--------------------------
Free energy:   -165.431733
Extrapolated:  -165.293038

Fermi level: -4.75757

 Band  Eigenvalues  Occupancy
    0    -23.12001    2.00000
    1    -21.70322    2.00000
    2    -20.87228    2.00000
    3    -20.57486    2.00000
    4    -20.44298    2.00000
    5    -19.84219    2.00000
    6    -19.24833    2.00000
    7    -18.96025    2.00000
    8    -18.61382    2.00000
    9    -18.27951    2.00000
   10    -17.39347    2.00000
   11    -16.99538    2.00000
   12    -16.01301    2.00000
   13    -15.45667    2.00000
   14    -15.36829    2.00000
   15    -14.99334    2.00000
   16    -14.27857    2.00000
   17    -13.13472    2.00000
   18    -12.72860    2.00000
   19    -12.43437    2.00000
   20    -12.02966    2.00000
   21    -11.30378    2.00000
   22    -10.94876    2.00000
   23    -10.69712    2.00000
   24    -10.59724    2.00000
   25    -10.39290    2.00000
   26     -9.55441    2.00000
   27     -9.39225    2.00000
   28     -9.26188    2.00000
   29     -9.16725    2.00000
   30     -8.51111    2.00000
   31     -8.39200    2.00000
   32     -8.08077    2.00000
   33     -7.97479    2.00000
   34     -7.71665    2.00000
   35     -7.38570    2.00000
   36     -7.21555    2.00000
   37     -7.03930    2.00000
   38     -6.85837    2.00000
   39     -6.73834    2.00000
   40     -6.57961    2.00000
   41     -6.40976    2.00000
   42     -6.11522    2.00000
   43     -5.99766    1.99999
   44     -5.75121    1.99990
   45     -5.31731    1.99261
   46     -5.13154    1.95358
   47     -4.85997    1.47150
   48     -4.66035    0.54887
   49     -4.34882    0.03301
   50     -3.93273    0.00052
   51     -3.57127    0.00001
   52     -3.25547    0.00000
   53     -3.05832    0.00000
   54     -2.89422    0.00000
   55     -2.25966    0.00000
   56     -1.94685    0.00000
   57     -1.54865    0.00000
   58     -1.41120    0.00000
   59     -1.02918    0.00000
   60     -0.77998    0.00000
   61     -0.64091    0.00000
   62     -0.54961    0.00000
   63     -0.19651    0.00000
   64      0.24840    0.00000
   65      0.44964    0.00000
   66      0.59144    0.00000
   67      0.78102    0.00000
   68      1.62749    0.00000
   69      1.83757    0.00000
   70      2.66831    0.00000
   71      2.96485    0.00000
   72      3.79536    0.00000
   73      3.96494    0.00000
   74      4.92843    0.00000
   75      5.41666    0.00000
   76      5.53903    0.00000
   77      5.94215    0.00000
   78      6.73956    0.00000
   79      6.94282    0.00000
   80      7.35217    0.00000
   81      7.56163    0.00000
   82      7.83822    0.00000
   83      8.22381    0.00000
   84      8.44994    0.00000
   85      8.65580    0.00000
   86      8.85828    0.00000
   87      8.93696    0.00000
   88      9.09973    0.00000
   89      9.24591    0.00000
   90      9.32626    0.00000
   91      9.54848    0.00000
   92      9.64699    0.00000
   93      9.69855    0.00000
   94      9.74493    0.00000
   95      9.83657    0.00000
   96     10.04234    0.00000
   97     10.20913    0.00000


Forces in eV/Ang:
  0 C     2.66132    0.35301   -1.04797
  1 C    -6.50133   -0.62524    3.45327
  2 C    -1.53717   -0.42352   -1.07429
  3 C     3.72085   -0.10106   -2.94391
  4 C     0.29366   -1.47253   -1.39388
  5 C     0.59485   -2.34987   -3.38852
  6 C     0.64040    0.34380   -0.02190
  7 C    -1.66232   -0.48167    0.44520
  8 C     1.88220    2.17217    5.58767
  9 C    -0.48403    0.38543   -0.23524
 10 C    -1.04824   -0.13092    0.07255
 11 C     0.66562    1.94076    0.17232
 12 C    -1.22564    0.82003   -0.33230
 13 C    -2.61254    0.68168    2.54432
 14 C     0.15415    0.18643    1.36914
 15 C     6.59924   -1.97781   -2.11518
 16 C     1.92660    0.34035   -0.97264
 17 C     0.85045    3.52445   -1.01910
 18 C    -1.68300    0.43741    0.12381
 19 C    -7.73364   -3.96301    0.36314
 20 C    -1.48006   -5.88697    0.35602
 21 C    -0.40760    0.43943   -0.36942
 22 C     2.58207   -0.39193    0.11644
 23 C     3.70539    6.20039    0.31556

System changes: positions 

Initializing position-dependent things.

Density initialized from wave functions
           .--------------------------------------.  
          /|                                      |  
         / |                                      |  
        /  |                                      |  
       /   |                                      |  
      /    |                                      |  
     /     |                                      |  
    /      |                                      |  
   /       |                   CC                 |  
  /        |           C                          |  
 *         |   C C        C    C C C              |  
 |         |  C C C C     C   CC                  |  
 |         .---------C--CC--C-C-------------------.  
 |        /             C                        /   
 |       /                                      /    
 |      /                                      /     
 |     /                                      /      
 |    /                                      /       
 |   /                                      /        
 |  /                                      /         
 | /                                      /          
 |/                                      /           
 *--------------------------------------*            

Positions:
   0 C      6.271342   10.589022    4.942883
   1 C      5.438895    9.621193    4.566689
   2 C      9.203099   11.785114    5.464745
   3 C      4.125607    9.228240    5.318253
   4 C      7.622297   10.414257    4.756939
   5 C     10.052907   10.918368    6.066911
   6 C      3.575922    8.092172    5.595267
   7 C      8.052989    9.127461    4.195934
   8 C      9.664227   10.196372    4.731994
   9 C      3.503048    6.789708    5.870506
  10 C      7.387353    7.871535    4.011290
  11 C      9.456393    8.834958    4.305812
  12 C      8.545153    4.469496    6.255739
  13 C      7.319545    4.124409    6.401200
  14 C     10.735065    5.843935    6.477911
  15 C      5.768652    4.336995    7.172749
  16 C      9.566975    5.387814    5.839929
  17 C     11.296855    7.046857    6.366554
  18 C      4.849667    4.673151    6.333069
  19 C      9.542210    6.321933    4.632600
  20 C     11.593772    8.436186    5.973296
  21 C      3.945503    5.624761    6.119610
  22 C      7.881479    6.707804    4.258019
  23 C      9.997293    7.554541    4.591880

Unit cell:
           periodic     x           y           z      points  spacing
  1. axis:    yes   16.000000    0.000000    0.000000    80     0.2000
  2. axis:    yes    0.000000   16.000000    0.000000    80     0.2000
  3. axis:    yes    0.000000    0.000000   10.000000    48     0.2083

Effective grid spacing dv^(1/3) = 0.2027

                     log10-error:    total        iterations:
           time      wfs    density  energy       fermi  poisson
iter:   1  09:19:34          +inf  -167.464382    3      5      
iter:   2  09:19:34         -1.74  -167.356835    3      2      
iter:   3  09:19:35         -1.88  -167.273064    3      2      
iter:   4  09:19:35         -2.16  -167.268499    2      2      
iter:   5  09:19:36         -2.33  -167.257338    2      1      
iter:   6  09:19:36         -2.41  -167.251694    2      2      
iter:   7  09:19:37         -2.58  -167.263931    2      2      
iter:   8  09:19:37         -2.62  -167.254396    2      2      
iter:   9  09:19:38         -3.01  -167.254556    2      1      
iter:  10  09:19:38         -3.12  -167.254220    2      1      
iter:  11  09:19:39         -3.22  -167.252549    2      1      
iter:  12  09:19:39         -3.40  -167.254106    2      1      
iter:  13  09:19:40         -3.52  -167.256051    2      1      
iter:  14  09:19:40         -3.71  -167.255106    2      1      
iter:  15  09:19:41         -3.83  -167.255764    2      1      
iter:  16  09:19:41         -4.01  -167.256471    2      1      

Converged after 16 iterations.

Dipole moment: (-0.607662, -0.176271, -0.302340) |e|*Ang

Energy contributions relative to reference atoms: (reference = -24663.074771)

Kinetic:        +65.427280
Potential:      -82.061506
External:        +0.000000
XC:            -153.349782
Entropy (-ST):   -0.261511
Local:           +2.858292
--------------------------
Free energy:   -167.387227
Extrapolated:  -167.256471

Fermi level: -4.72542

 Band  Eigenvalues  Occupancy
    0    -23.00572    2.00000
    1    -21.60982    2.00000
    2    -20.88127    2.00000
    3    -20.69062    2.00000
    4    -20.41134    2.00000
    5    -19.86142    2.00000
    6    -19.16028    2.00000
    7    -18.94306    2.00000
    8    -18.63541    2.00000
    9    -18.26519    2.00000
   10    -17.43651    2.00000
   11    -17.05276    2.00000
   12    -16.03226    2.00000
   13    -15.45202    2.00000
   14    -15.32384    2.00000
   15    -15.03690    2.00000
   16    -14.29989    2.00000
   17    -13.10119    2.00000
   18    -12.73576    2.00000
   19    -12.41810    2.00000
   20    -11.97816    2.00000
   21    -11.48656    2.00000
   22    -11.05002    2.00000
   23    -10.79117    2.00000
   24    -10.55325    2.00000
   25    -10.47050    2.00000
   26     -9.57578    2.00000
   27     -9.41509    2.00000
   28     -9.30619    2.00000
   29     -9.22114    2.00000
   30     -8.57472    2.00000
   31     -8.44356    2.00000
   32     -8.12572    2.00000
   33     -7.97259    2.00000
   34     -7.75453    2.00000
   35     -7.49232    2.00000
   36     -7.12451    2.00000
   37     -6.99887    2.00000
   38     -6.78719    2.00000
   39     -6.71628    2.00000
   40     -6.54939    2.00000
   41     -6.41626    2.00000
   42     -6.15163    2.00000
   43     -5.97328    1.99999
   44     -5.77842    1.99995
   45     -5.30946    1.99420
   46     -5.09513    1.95161
   47     -4.84419    1.53267
   48     -4.61445    0.49584
   49     -4.29012    0.02541
   50     -3.85212    0.00032
   51     -3.44115    0.00001
   52     -3.20461    0.00000
   53     -3.01865    0.00000
   54     -2.78200    0.00000
   55     -2.17305    0.00000
   56     -1.89481    0.00000
   57     -1.50415    0.00000
   58     -1.30186    0.00000
   59     -1.09321    0.00000
   60     -0.61914    0.00000
   61     -0.57080    0.00000
   62     -0.40905    0.00000
   63     -0.21079    0.00000
   64      0.21784    0.00000
   65      0.46415    0.00000
   66      0.56556    0.00000
   67      0.82860    0.00000
   68      1.77298    0.00000
   69      1.96242    0.00000
   70      2.93090    0.00000
   71      3.07912    0.00000
   72      4.29158    0.00000
   73      4.45386    0.00000
   74      5.32020    0.00000
   75      5.60714    0.00000
   76      5.94624    0.00000
   77      6.17480    0.00000
   78      6.74327    0.00000
   79      7.04389    0.00000
   80      7.49248    0.00000
   81      7.62920    0.00000
   82      7.84025    0.00000
   83      8.25178    0.00000
   84      8.46293    0.00000
   85      8.65753    0.00000
   86      8.88755    0.00000
   87      8.93461    0.00000
   88      9.09038    0.00000
   89      9.24235    0.00000
   90      9.37345    0.00000
   91      9.59085    0.00000
   92      9.67029    0.00000
   93      9.69205    0.00000
   94      9.75657    0.00000
   95      9.89175    0.00000
   96     10.07403    0.00000
   97     10.20507    0.00000


Forces in eV/Ang:
  0 C     2.06439   -0.10842   -1.20813
  1 C    -5.83430   -0.06592    3.58989
  2 C    -1.52866   -0.36773   -0.90242
  3 C     3.46282   -0.29584   -2.79534
  4 C     0.13421   -1.26459   -1.37260
  5 C     0.61261   -2.14269   -3.43456
  6 C     0.67718    0.33289   -0.05592
  7 C    -1.26733   -0.64065    0.28455
  8 C     1.91498    1.75377    5.46053
  9 C    -0.42551    0.37793   -0.22110
 10 C    -0.79086   -0.48035    0.13448
 11 C     0.37826    1.86252    0.24860
 12 C    -1.35136    0.79018   -0.25764
 13 C    -2.31667    0.86342    2.55207
 14 C     0.06743    0.27326    1.19042
 15 C     6.20553   -1.71299   -2.71646
 16 C     1.60113    0.26142   -0.80116
 17 C     0.39685    2.56182   -1.08611
 18 C    -1.28609    0.33476    0.53111
 19 C    -7.20361   -2.11658    0.32400
 20 C    -1.33228   -5.16293    0.11103
 21 C    -0.29915    0.44194   -0.26611
 22 C     2.79391   -0.18125    0.15940
 23 C     3.24012    4.66434    0.51186

System changes: positions 

Initializing position-dependent things.

Density initialized from wave functions
           .--------------------------------------.  
          /|                                      |  
         / |                                      |  
        /  |                                      |  
       /   |                                      |  
      /    |                                      |  
     /     |                                      |  
    /      |                                      |  
   /       |                   CC                 |  
  /        |           C                          |  
 *         |   C C  C     C    C CC               |  
 |         |  C C C       C   CC                  |  
 |         .---------C--CC--C-C-------------------.  
 |        /             C                        /   
 |       /                                      /    
 |      /                                      /     
 |     /                                      /      
 |    /                                      /       
 |   /                                      /        
 |  /                                      /         
 | /                                      /          
 |/                                      /           
 *--------------------------------------*            

Positions:
   0 C      6.278598   10.584143    4.934120
   1 C      5.409358    9.625655    4.589586
   2 C      9.194352   11.783085    5.460587
   3 C      4.144598    9.224838    5.302536
   4 C      7.622231   10.408061    4.748961
   5 C     10.056369   10.907007    6.045945
   6 C      3.580423    8.094608    5.594635
   7 C      8.048321    9.122711    4.196682
   8 C      9.675680   10.204410    4.763768
   9 C      3.500594    6.792524    5.869129
  10 C      7.384550    7.865430    4.012607
  11 C      9.456219    8.846132    4.307549
  12 C      8.535761    4.473720    6.254749
  13 C      7.308141    4.130841    6.416319
  14 C     10.735625    5.847125    6.483908
  15 C      5.801487    4.329064    7.151326
  16 C      9.574219    5.388671    5.836218
  17 C     11.295954    7.055655    6.359507
  18 C      4.846216    4.673614    6.340330
  19 C      9.503833    6.326434    4.633832
  20 C     11.586647    8.409703    5.972508
  21 C      3.944448    5.627020    6.118782
  22 C      7.899248    6.708975    4.259119
  23 C     10.012850    7.566485    4.596891

Unit cell:
           periodic     x           y           z      points  spacing
  1. axis:    yes   16.000000    0.000000    0.000000    80     0.2000
  2. axis:    yes    0.000000   16.000000    0.000000    80     0.2000
  3. axis:    yes    0.000000    0.000000   10.000000    48     0.2083

Effective grid spacing dv^(1/3) = 0.2027

                     log10-error:    total        iterations:
           time      wfs    density  energy       fermi  poisson
iter:   1  09:19:43          +inf  -169.158932    2      5      
iter:   2  09:19:43         -1.76  -169.062592    3      2      
iter:   3  09:19:44         -1.90  -168.984572    3      2      
iter:   4  09:19:44         -2.19  -168.983477    2      2      
iter:   5  09:19:45         -2.35  -168.974316    2      1      
iter:   6  09:19:45         -2.42  -168.966046    3      2      
iter:   7  09:19:46         -2.60  -168.982234    3      2      
iter:   8  09:19:46         -2.58  -168.969751    3      2      
iter:   9  09:19:47         -3.04  -168.969972    2      1      
iter:  10  09:19:47         -3.14  -168.969500    2      1      
iter:  11  09:19:48         -3.27  -168.968527    2      1      
iter:  12  09:19:48         -3.42  -168.969492    2      1      
iter:  13  09:19:49         -3.55  -168.972585    2      1      
iter:  14  09:19:49         -3.77  -168.970792    2      1      
iter:  15  09:19:49         -3.92  -168.971103    2      1      
iter:  16  09:19:50         -4.04  -168.971384    2      1      

Converged after 16 iterations.

Dipole moment: (-0.689612, -0.184281, -0.294486) |e|*Ang

Energy contributions relative to reference atoms: (reference = -24663.074771)

Kinetic:        +63.733036
Potential:      -81.178111
External:        +0.000000
XC:            -154.269899
Entropy (-ST):   -0.249595
Local:           +2.868387
--------------------------
Free energy:   -169.096182
Extrapolated:  -168.971384

Fermi level: -4.69219

 Band  Eigenvalues  Occupancy
    0    -22.91698    2.00000
    1    -21.55457    2.00000
    2    -20.90910    2.00000
    3    -20.80015    2.00000
    4    -20.37041    2.00000
    5    -19.86924    2.00000
    6    -19.12171    2.00000
    7    -18.92281    2.00000
    8    -18.67310    2.00000
    9    -18.23725    2.00000
   10    -17.46903    2.00000
   11    -17.11505    2.00000
   12    -16.04345    2.00000
   13    -15.46046    2.00000
   14    -15.27371    2.00000
   15    -15.05677    2.00000
   16    -14.31279    2.00000
   17    -13.11396    2.00000
   18    -12.76578    2.00000
   19    -12.41526    2.00000
   20    -11.95213    2.00000
   21    -11.59625    2.00000
   22    -11.22051    2.00000
   23    -10.90255    2.00000
   24    -10.52371    2.00000
   25    -10.44198    2.00000
   26     -9.64595    2.00000
   27     -9.43819    2.00000
   28     -9.34499    2.00000
   29     -9.23515    2.00000
   30     -8.64050    2.00000
   31     -8.49386    2.00000
   32     -8.16971    2.00000
   33     -7.96770    2.00000
   34     -7.80920    2.00000
   35     -7.56685    2.00000
   36     -7.10940    2.00000
   37     -6.95046    2.00000
   38     -6.73446    2.00000
   39     -6.69798    2.00000
   40     -6.51854    2.00000
   41     -6.41409    2.00000
   42     -6.17147    2.00000
   43     -5.95896    1.99999
   44     -5.79802    1.99997
   45     -5.30528    1.99566
   46     -5.05008    1.94570
   47     -4.82502    1.58112
   48     -4.57067    0.45757
   49     -4.23164    0.01979
   50     -3.76858    0.00019
   51     -3.31127    0.00000
   52     -3.17577    0.00000
   53     -2.98893    0.00000
   54     -2.65010    0.00000
   55     -2.09157    0.00000
   56     -1.83307    0.00000
   57     -1.48131    0.00000
   58     -1.21188    0.00000
   59     -1.10164    0.00000
   60     -0.58745    0.00000
   61     -0.38044    0.00000
   62     -0.26413    0.00000
   63     -0.21557    0.00000
   64      0.19797    0.00000
   65      0.47022    0.00000
   66      0.56400    0.00000
   67      0.90380    0.00000
   68      1.90288    0.00000
   69      2.10354    0.00000
   70      3.05882    0.00000
   71      3.44985    0.00000
   72      4.68534    0.00000
   73      5.03721    0.00000
   74      5.43211    0.00000
   75      5.86909    0.00000
   76      6.07239    0.00000
   77      6.69453    0.00000
   78      6.73534    0.00000
   79      7.19459    0.00000
   80      7.56447    0.00000
   81      7.74711    0.00000
   82      7.86799    0.00000
   83      8.27387    0.00000
   84      8.49819    0.00000
   85      8.66655    0.00000
   86      8.90849    0.00000
   87      8.94902    0.00000
   88      9.09248    0.00000
   89      9.24694    0.00000
   90      9.42222    0.00000
   91      9.62641    0.00000
   92      9.68071    0.00000
   93      9.70892    0.00000
   94      9.78356    0.00000
   95      9.92508    0.00000
   96     10.09988    0.00000
   97     10.14917    0.00000


Forces in eV/Ang:
  0 C     1.53453   -0.44835   -1.31630
  1 C    -5.00136    0.45811    3.54385
  2 C    -1.52993   -0.34832   -0.69784
  3 C     3.00611   -0.54644   -2.53571
  4 C    -0.02660   -1.04707   -1.34326
  5 C     0.70098   -1.80740   -3.23321
  6 C     0.70068    0.31553   -0.08860
  7 C    -0.94796   -0.71996    0.13571
  8 C     1.91052    1.20420    5.06691
  9 C    -0.43495    0.57986   -0.25324
 10 C    -0.52902   -0.80690    0.19063
 11 C     0.19356    1.77318    0.29986
 12 C    -1.36043    0.80134   -0.20928
 13 C    -2.12898    0.98525    2.47225
 14 C    -0.01470    0.23979    1.06695
 15 C     5.62664   -1.41452   -3.25632
 16 C     1.26766    0.19670   -0.69129
 17 C     0.08201    1.73785   -1.03977
 18 C    -0.82768    0.21118    0.88106
 19 C    -6.63348   -0.98313    0.38029
 20 C    -1.20658   -4.40678   -0.12472
 21 C    -0.10725    0.23263   -0.11133
 22 C     2.82992    0.13177    0.15340
 23 C     2.79839    3.73107    0.64492

System changes: positions 

Initializing position-dependent things.

Density initialized from wave functions
           .--------------------------------------.  
          /|                                      |  
         / |                                      |  
        /  |                                      |  
       /   |                                      |  
      /    |                                      |  
     /     |                                      |  
    /      |                                      |  
   /       |                   CC                 |  
  /        |           C                          |  
 *         |   C C  C     C    C CC               |  
 |         |  C C C       C   CC                  |  
 |         .---------C--CC--C-C-------------------.  
 |        /             C                        /   
 |       /                                      /    
 |      /                                      /     
 |     /                                      /      
 |    /                                      /       
 |   /                                      /        
 |  /                                      /         
 | /                                      /          
 |/                                      /           
 *--------------------------------------*            

Positions:
   0 C      6.284684   10.579154    4.925283
   1 C      5.383853    9.631920    4.611213
   2 C      9.184667   11.781275    5.457602
   3 C      4.160158    9.220007    5.288541
   4 C      7.620830   10.403018    4.740764
   5 C     10.061472   10.898000    6.027229
   6 C      3.584761    8.095853    5.593979
   7 C      8.044628    9.117692    4.196394
   8 C      9.687567   10.208158    4.792668
   9 C      3.498040    6.797247    5.867397
  10 C      7.383114    7.858323    4.014176
  11 C      9.455930    8.856661    4.309795
  12 C      8.526913    4.478577    6.253911
  13 C      7.296578    4.138035    6.431241
  14 C     10.734768    5.848305    6.489554
  15 C      5.832600    4.322398    7.127087
  16 C      9.579678    5.389537    5.832678
  17 C     11.293975    7.060058    6.353197
  18 C      4.844342    4.673997    6.348374
  19 C      9.467583    6.332174    4.636454
  20 C     11.580100    8.388155    5.969830
  21 C      3.944877    5.627607    6.119079
  22 C      7.917609    6.711598    4.260193
  23 C     10.026478    7.579102    4.602276

Unit cell:
           periodic     x           y           z      points  spacing
  1. axis:    yes   16.000000    0.000000    0.000000    80     0.2000
  2. axis:    yes    0.000000   16.000000    0.000000    80     0.2000
  3. axis:    yes    0.000000    0.000000   10.000000    48     0.2083

Effective grid spacing dv^(1/3) = 0.2027

                     log10-error:    total        iterations:
           time      wfs    density  energy       fermi  poisson
iter:   1  09:19:52          +inf  -170.581002    3      5      
iter:   2  09:19:52         -1.79  -170.499655    3      2      
iter:   3  09:19:53         -1.93  -170.426917    3      2      
iter:   4  09:19:53         -2.23  -170.430043    3      2      
iter:   5  09:19:54         -2.38  -170.417486    3      1      
iter:   6  09:19:54         -2.46  -170.414014    2      2      
iter:   7  09:19:55         -2.70  -170.431287    3      2      
iter:   8  09:19:55         -2.58  -170.417425    3      2      
iter:   9  09:19:56         -3.13  -170.417672    2      1      
iter:  10  09:19:56         -3.22  -170.417684    2      1      
iter:  11  09:19:56         -3.33  -170.415676    2      1      
iter:  12  09:19:57         -3.49  -170.417345    2      1      
iter:  13  09:19:57         -3.61  -170.419981    2      1      
iter:  14  09:19:58         -3.76  -170.419186    2      1      
iter:  15  09:19:58         -3.96  -170.417801    2      1      
iter:  16  09:19:59         -4.13  -170.418454    1      1      

Converged after 16 iterations.

Dipole moment: (-0.750188, -0.191781, -0.286577) |e|*Ang

Energy contributions relative to reference atoms: (reference = -24663.074771)

Kinetic:        +64.002488
Potential:      -81.769912
External:        +0.000000
XC:            -155.415462
Entropy (-ST):   -0.239224
Local:           +2.884044
--------------------------
Free energy:   -170.538066
Extrapolated:  -170.418454

Fermi level: -4.66121

 Band  Eigenvalues  Occupancy
    0    -22.85577    2.00000
    1    -21.53606    2.00000
    2    -20.96007    2.00000
    3    -20.83922    2.00000
    4    -20.34551    2.00000
    5    -19.88494    2.00000
    6    -19.12696    2.00000
    7    -18.90601    2.00000
    8    -18.70872    2.00000
    9    -18.20033    2.00000
   10    -17.50064    2.00000
   11    -17.17181    2.00000
   12    -16.06451    2.00000
   13    -15.46442    2.00000
   14    -15.25115    2.00000
   15    -15.06394    2.00000
   16    -14.31560    2.00000
   17    -13.16093    2.00000
   18    -12.81836    2.00000
   19    -12.43573    2.00000
   20    -11.97561    2.00000
   21    -11.64065    2.00000
   22    -11.36991    2.00000
   23    -11.01198    2.00000
   24    -10.53559    2.00000
   25    -10.33528    2.00000
   26     -9.73308    2.00000
   27     -9.45970    2.00000
   28     -9.37754    2.00000
   29     -9.22670    2.00000
   30     -8.69925    2.00000
   31     -8.54220    2.00000
   32     -8.20754    2.00000
   33     -7.97633    2.00000
   34     -7.87348    2.00000
   35     -7.61840    2.00000
   36     -7.12377    2.00000
   37     -6.92980    2.00000
   38     -6.71674    2.00000
   39     -6.67488    2.00000
   40     -6.49221    2.00000
   41     -6.41051    2.00000
   42     -6.16827    2.00000
   43     -5.96884    2.00000
   44     -5.79029    1.99998
   45     -5.29504    1.99647
   46     -5.00919    1.94021
   47     -4.80686    1.62197
   48     -4.53043    0.42571
   49     -4.17635    0.01556
   50     -3.67521    0.00010
   51     -3.21485    0.00000
   52     -3.13557    0.00000
   53     -2.96764    0.00000
   54     -2.51207    0.00000
   55     -2.03102    0.00000
   56     -1.77217    0.00000
   57     -1.47376    0.00000
   58     -1.12967    0.00000
   59     -1.03954    0.00000
   60     -0.55075    0.00000
   61     -0.26012    0.00000
   62     -0.16863    0.00000
   63     -0.14579    0.00000
   64      0.19824    0.00000
   65      0.45510    0.00000
   66      0.59667    0.00000
   67      0.99979    0.00000
   68      2.01925    0.00000
   69      2.22716    0.00000
   70      3.14232    0.00000
   71      3.91874    0.00000
   72      5.13667    0.00000
   73      5.33778    0.00000
   74      5.58603    0.00000
   75      6.00843    0.00000
   76      6.25663    0.00000
   77      6.73298    0.00000
   78      7.04492    0.00000
   79      7.35511    0.00000
   80      7.67790    0.00000
   81      7.84678    0.00000
   82      7.96050    0.00000
   83      8.29914    0.00000
   84      8.54715    0.00000
   85      8.67710    0.00000
   86      8.92087    0.00000
   87      8.97765    0.00000
   88      9.10864    0.00000
   89      9.25124    0.00000
   90      9.47337    0.00000
   91      9.65273    0.00000
   92      9.66850    0.00000
   93      9.74340    0.00000
   94      9.81796    0.00000
   95      9.94059    0.00000
   96     10.07266    0.00000
   97     10.17261    0.00000


Forces in eV/Ang:
  0 C     1.07350   -0.66024   -1.35913
  1 C    -4.13226    0.86167    3.32195
  2 C    -1.48411   -0.44666   -0.54661
  3 C     2.46046   -0.67564   -2.17917
  4 C    -0.13244   -0.83617   -1.28570
  5 C     0.78773   -1.33194   -2.82456
  6 C     0.66532    0.27079   -0.10456
  7 C    -0.70215   -0.77030    0.00828
  8 C     1.83696    0.69063    4.46045
  9 C    -0.34868    0.41198   -0.21539
 10 C    -0.34311   -0.89644    0.21772
 11 C     0.06553    1.63785    0.34022
 12 C    -1.37143    0.79881   -0.15351
 13 C    -1.80241    1.05517    2.31480
 14 C    -0.05186    0.19626    0.97046
 15 C     5.16071   -1.18504   -3.47893
 16 C     0.93172    0.13900   -0.60095
 17 C    -0.17693    1.02328   -0.95108
 18 C    -0.56753    0.16973    1.04218
 19 C    -5.87242   -0.10783    0.46399
 20 C    -1.11029   -3.73416   -0.38212
 21 C    -0.03313    0.27258   -0.01949
 22 C     2.77615    0.24771    0.16678
 23 C     2.35359    2.92137    0.74914

System changes: positions 

Initializing position-dependent things.

Density initialized from wave functions
           .--------------------------------------.  
          /|                                      |  
         / |                                      |  
        /  |                                      |  
       /   |                                      |  
      /    |                                      |  
     /     |                                      |  
    /      |                                      |  
   /       |                   CC                 |  
  /        |           C                          |  
 *         |   C C  C     C    C CC               |  
 |         |  C C C       C   CC                  |  
 |         .---------C--CC--C-C-------------------.  
 |        /              C                       /   
 |       /                                      /    
 |      /                                      /     
 |     /                                      /      
 |    /                                      /       
 |   /                                      /        
 |  /                                      /         
 | /                                      /          
 |/                                      /           
 *--------------------------------------*            

Positions:
   0 C      6.289386   10.574303    4.916451
   1 C      5.362883    9.639805    4.630696
   2 C      9.174647   11.778052    5.455192
   3 C      4.171748    9.214769    5.277031
   4 C      7.618780   10.399067    4.732551
   5 C     10.067992   10.892870    6.012301
   6 C      3.588565    8.096170    5.593363
   7 C      8.041480    9.112416    4.195291
   8 C      9.699315   10.208209    4.817125
   9 C      3.496438    6.799389    5.866135
  10 C      7.382326    7.852159    4.015784
  11 C      9.455678    8.866407    4.312446
  12 C      8.517976    4.483895    6.253361
  13 C      7.286752    4.145698    6.445422
  14 C     10.733412    5.848181    6.495199
  15 C      5.863442    4.316320    7.102351
  16 C      9.583210    5.390300    5.829193
  17 C     11.290992    7.060859    6.347758
  18 C      4.842400    4.674939    6.356049
  19 C      9.435204    6.338996    4.640531
  20 C     11.573630    8.369884    5.964937
  21 C      3.945381    5.629566    6.119784
  22 C      7.935990    6.713839    4.261486
  23 C     10.038142    7.591471    4.608151

Unit cell:
           periodic     x           y           z      points  spacing
  1. axis:    yes   16.000000    0.000000    0.000000    80     0.2000
  2. axis:    yes    0.000000   16.000000    0.000000    80     0.2000
  3. axis:    yes    0.000000    0.000000   10.000000    48     0.2083

Effective grid spacing dv^(1/3) = 0.2027

                     log10-error:    total        iterations:
           time      wfs    density  energy       fermi  poisson
iter:   1  09:20:00          +inf  -171.713516    3      5      
iter:   2  09:20:01         -1.86  -171.651894    3      2      
iter:   3  09:20:01         -1.99  -171.593868    3      2      
iter:   4  09:20:02         -2.30  -171.598456    2      2      
iter:   5  09:20:02         -2.44  -171.585331    3      1      
iter:   6  09:20:03         -2.51  -171.587572    2      2      
iter:   7  09:20:03         -2.80  -171.598994    2      2      
iter:   8  09:20:04         -2.69  -171.585822    3      1      
iter:   9  09:20:04         -3.20  -171.587718    2      1      
iter:  10  09:20:05         -3.25  -171.590213    2      1      
iter:  11  09:20:05         -3.32  -171.584359    2      1      
iter:  12  09:20:06         -3.19  -171.592181    2      1      
iter:  13  09:20:06         -3.36  -171.590417    2      1      
iter:  14  09:20:07         -3.48  -171.589102    2      1      
iter:  15  09:20:07         -3.80  -171.591512    2      1      
iter:  16  09:20:08         -3.77  -171.589759    2      1      
iter:  17  09:20:08         -4.13  -171.589799    2      1      

Converged after 17 iterations.

Dipole moment: (-0.792291, -0.200946, -0.279923) |e|*Ang

Energy contributions relative to reference atoms: (reference = -24663.074771)

Kinetic:        +65.746685
Potential:      -83.451921
External:        +0.000000
XC:            -156.665588
Entropy (-ST):   -0.229284
Local:           +2.895667
--------------------------
Free energy:   -171.704441
Extrapolated:  -171.589799

Fermi level: -4.63448

 Band  Eigenvalues  Occupancy
    0    -22.81779    2.00000
    1    -21.54857    2.00000
    2    -20.99455    2.00000
    3    -20.84681    2.00000
    4    -20.33175    2.00000
    5    -19.89276    2.00000
    6    -19.15938    2.00000
    7    -18.91537    2.00000
    8    -18.73160    2.00000
    9    -18.16567    2.00000
   10    -17.53816    2.00000
   11    -17.21081    2.00000
   12    -16.08685    2.00000
   13    -15.46763    2.00000
   14    -15.25841    2.00000
   15    -15.06473    2.00000
   16    -14.31983    2.00000
   17    -13.22259    2.00000
   18    -12.87936    2.00000
   19    -12.49087    2.00000
   20    -12.02213    2.00000
   21    -11.71624    2.00000
   22    -11.40505    2.00000
   23    -11.09871    2.00000
   24    -10.54746    2.00000
   25    -10.23234    2.00000
   26     -9.81626    2.00000
   27     -9.47892    2.00000
   28     -9.40427    2.00000
   29     -9.21893    2.00000
   30     -8.74664    2.00000
   31     -8.58292    2.00000
   32     -8.23230    2.00000
   33     -7.99729    2.00000
   34     -7.93529    2.00000
   35     -7.66190    2.00000
   36     -7.14962    2.00000
   37     -6.94177    2.00000
   38     -6.72422    2.00000
   39     -6.64937    2.00000
   40     -6.47296    2.00000
   41     -6.40688    2.00000
   42     -6.15286    2.00000
   43     -5.99497    2.00000
   44     -5.76278    1.99997
   45     -5.27547    1.99672
   46     -4.97985    1.93869
   47     -4.79099    1.65417
   48     -4.49531    0.39826
   49     -4.12466    0.01214
   50     -3.58697    0.00006
   51     -3.19449    0.00000
   52     -3.04717    0.00000
   53     -2.94622    0.00000
   54     -2.38450    0.00000
   55     -1.99211    0.00000
   56     -1.71098    0.00000
   57     -1.47061    0.00000
   58     -1.05225    0.00000
   59     -0.93756    0.00000
   60     -0.50480    0.00000
   61     -0.23406    0.00000
   62     -0.07557    0.00000
   63     -0.04129    0.00000
   64      0.23242    0.00000
   65      0.45110    0.00000
   66      0.64411    0.00000
   67      1.10774    0.00000
   68      2.11920    0.00000
   69      2.32926    0.00000
   70      3.23652    0.00000
   71      4.37536    0.00000
   72      5.40526    0.00000
   73      5.60243    0.00000
   74      5.75025    0.00000
   75      6.09863    0.00000
   76      6.47090    0.00000
   77      6.73950    0.00000
   78      7.19209    0.00000
   79      7.52615    0.00000
   80      7.78704    0.00000
   81      7.94156    0.00000
   82      8.05960    0.00000
   83      8.34307    0.00000
   84      8.60539    0.00000
   85      8.70564    0.00000
   86      8.92669    0.00000
   87      9.01916    0.00000
   88      9.13276    0.00000
   89      9.25071    0.00000
   90      9.51845    0.00000
   91      9.64574    0.00000
   92      9.67819    0.00000
   93      9.78122    0.00000
   94      9.84610    0.00000
   95      9.94895    0.00000
   96     10.04735    0.00000
   97     10.18464    0.00000


Forces in eV/Ang:
  0 C     0.70697   -0.76168   -1.32950
  1 C    -3.30438    1.15341    3.00965
  2 C    -1.45258   -0.58647   -0.42438
  3 C     1.91047   -0.77968   -1.83229
  4 C    -0.18596   -0.65761   -1.21657
  5 C     0.89111   -0.85270   -2.34842
  6 C     0.59658    0.13732   -0.09201
  7 C    -0.50627   -0.76837   -0.07966
  8 C     1.71758    0.25135    3.79838
  9 C    -0.35338    0.54292   -0.23784
 10 C    -0.17607   -0.98565    0.24223
 11 C    -0.00560    1.49007    0.36213
 12 C    -1.24380    0.83495   -0.12684
 13 C    -1.51861    1.08160    2.12969
 14 C    -0.10464    0.10424    0.88126
 15 C     4.43162   -0.93851   -3.65650
 16 C     0.62940    0.07320   -0.49983
 17 C    -0.36408    0.45821   -0.86324
 18 C    -0.22855    0.11669    1.23789
 19 C    -5.07148    0.48500    0.57644
 20 C    -1.01284   -3.16262   -0.57967
 21 C     0.14371    0.06348    0.12508
 22 C     2.53901    0.43143    0.13037
 23 C     1.96630    2.28655    0.83299

System changes: positions 

Initializing position-dependent things.

Density initialized from wave functions
           .--------------------------------------.  
          /|                                      |  
         / |                                      |  
        /  |                                      |  
       /   |                                      |  
      /    |                                      |  
     /     |                                      |  
    /      |                                      |  
   /       |                   CC                 |  
  /        |                                      |  
 *         |   C C  C  C  C    C CC               |  
 |         |  C C C       C   CC                  |  
 |         .---------C--CC--C-C-------------------.  
 |        /              C                       /   
 |       /                                      /    
 |      /                                      /     
 |     /                                      /      
 |    /                                      /       
 |   /                                      /        
 |  /                                      /         
 | /                                      /          
 |/                                      /           
 *--------------------------------------*            

Positions:
   0 C      6.293655   10.570059    4.907685
   1 C      5.344803    9.649042    4.648661
   2 C      9.163428   11.772687    5.452925
   3 C      4.180188    9.208836    5.266995
   4 C      7.616557   10.395605    4.723885
   5 C     10.076521   10.891268    6.000638
   6 C      3.591787    8.094567    5.593065
   7 C      8.038355    9.107060    4.193739
   8 C      9.711213   10.205439    4.838396
   9 C      3.494393    6.803331    5.864405
  10 C      7.382102    7.845947    4.017592
  11 C      9.455864    8.875997    4.315468
  12 C      8.509954    4.490511    6.252721
  13 C      7.277578    4.153970    6.459591
  14 C     10.731324    5.846421    6.501225
  15 C      5.892251    4.310880    7.075140
  16 C      9.585324    5.390805    5.825792
  17 C     11.287343    7.059457    6.342637
  18 C      4.841896    4.676108    6.365006
  19 C      9.405127    6.345780    4.646580
  20 C     11.566860    8.352497    5.958198
  21 C      3.947481    5.629559    6.121741
  22 C      7.953452    6.717139    4.262429
  23 C     10.049128    7.604864    4.614918

Unit cell:
           periodic     x           y           z      points  spacing
  1. axis:    yes   16.000000    0.000000    0.000000    80     0.2000
  2. axis:    yes    0.000000   16.000000    0.000000    80     0.2000
  3. axis:    yes    0.000000    0.000000   10.000000    48     0.2083

Effective grid spacing dv^(1/3) = 0.2027

                     log10-error:    total        iterations:
           time      wfs    density  energy       fermi  poisson
iter:   1  09:20:09          +inf  -172.685397    3      5      
iter:   2  09:20:10         -1.89  -172.627660    3      2      
iter:   3  09:20:11         -2.02  -172.574173    3      2      
iter:   4  09:20:11         -2.33  -172.581357    3      2      
iter:   5  09:20:11         -2.46  -172.571388    3      1      
iter:   6  09:20:12         -2.55  -172.567662    3      2      
iter:   7  09:20:12         -2.75  -172.586122    3      2      
iter:   8  09:20:13         -2.59  -172.570771    3      2      
iter:   9  09:20:13         -3.21  -172.570919    2      1      
iter:  10  09:20:14         -3.29  -172.570926    2      1      
iter:  11  09:20:14         -3.42  -172.569227    2      1      
iter:  12  09:20:15         -3.58  -172.571192    2      1      
iter:  13  09:20:15         -3.72  -172.572968    2      1      
iter:  14  09:20:16         -3.83  -172.572869    2      1      
iter:  15  09:20:16         -4.01  -172.571268    2      1      

Converged after 15 iterations.

Dipole moment: (-0.819473, -0.219988, -0.272663) |e|*Ang

Energy contributions relative to reference atoms: (reference = -24663.074771)

Kinetic:        +68.504413
Potential:      -85.879249
External:        +0.000000
XC:            -157.996864
Entropy (-ST):   -0.216837
Local:           +2.908850
--------------------------
Free energy:   -172.679687
Extrapolated:  -172.571268

Fermi level: -4.61205

 Band  Eigenvalues  Occupancy
    0    -22.79017    2.00000
    1    -21.57069    2.00000
    2    -21.00683    2.00000
    3    -20.84477    2.00000
    4    -20.32430    2.00000
    5    -19.91626    2.00000
    6    -19.21054    2.00000
    7    -18.94532    2.00000
    8    -18.74755    2.00000
    9    -18.13861    2.00000
   10    -17.58509    2.00000
   11    -17.24006    2.00000
   12    -16.12394    2.00000
   13    -15.47392    2.00000
   14    -15.28516    2.00000
   15    -15.07095    2.00000
   16    -14.32479    2.00000
   17    -13.28988    2.00000
   18    -12.94162    2.00000
   19    -12.58362    2.00000
   20    -12.09750    2.00000
   21    -11.78592    2.00000
   22    -11.37759    2.00000
   23    -11.16337    2.00000
   24    -10.55910    2.00000
   25    -10.13250    2.00000
   26     -9.89374    2.00000
   27     -9.49402    2.00000
   28     -9.42295    2.00000
   29     -9.21949    2.00000
   30     -8.78277    2.00000
   31     -8.62271    2.00000
   32     -8.25671    2.00000
   33     -8.03621    2.00000
   34     -7.99607    2.00000
   35     -7.70519    2.00000
   36     -7.18348    2.00000
   37     -6.97147    2.00000
   38     -6.73962    2.00000
   39     -6.62842    2.00000
   40     -6.46298    2.00000
   41     -6.40888    2.00000
   42     -6.13352    2.00000
   43     -6.01913    2.00000
   44     -5.72234    1.99997
   45     -5.24577    1.99647
   46     -4.96187    1.94127
   47     -4.78092    1.68811
   48     -4.46192    0.36446
   49     -4.07960    0.00969
   50     -3.49896    0.00003
   51     -3.19652    0.00000
   52     -2.97332    0.00000
   53     -2.90436    0.00000
   54     -2.26162    0.00000
   55     -1.97111    0.00000
   56     -1.65557    0.00000
   57     -1.45734    0.00000
   58     -0.97509    0.00000
   59     -0.81047    0.00000
   60     -0.45519    0.00000
   61     -0.20744    0.00000
   62     -0.02065    0.00000
   63      0.06717    0.00000
   64      0.28008    0.00000
   65      0.47417    0.00000
   66      0.70098    0.00000
   67      1.22674    0.00000
   68      2.20990    0.00000
   69      2.41275    0.00000
   70      3.33814    0.00000
   71      4.77455    0.00000
   72      5.43103    0.00000
   73      5.83289    0.00000
   74      5.99535    0.00000
   75      6.23079    0.00000
   76      6.65599    0.00000
   77      6.76452    0.00000
   78      7.25837    0.00000
   79      7.67137    0.00000
   80      7.86863    0.00000
   81      8.02738    0.00000
   82      8.18785    0.00000
   83      8.41992    0.00000
   84      8.65179    0.00000
   85      8.75521    0.00000
   86      8.93199    0.00000
   87      9.06399    0.00000
   88      9.16261    0.00000
   89      9.25303    0.00000
   90      9.55510    0.00000
   91      9.62833    0.00000
   92      9.69603    0.00000
   93      9.82142    0.00000
   94      9.85605    0.00000
   95      9.94758    0.00000
   96     10.02708    0.00000
   97     10.19814    0.00000


Forces in eV/Ang:
  0 C     0.39733   -0.79426   -1.29662
  1 C    -2.55760    1.41626    2.69929
  2 C    -1.42924   -0.72783   -0.35149
  3 C     1.38622   -0.82237   -1.52459
  4 C    -0.19349   -0.47169   -1.12719
  5 C     0.96778   -0.39927   -1.86569
  6 C     0.51815    0.11836   -0.09679
  7 C    -0.31495   -0.74482   -0.15190
  8 C     1.58456   -0.06424    3.17607
  9 C    -0.27107    0.24778   -0.17028
 10 C    -0.10421   -0.93669    0.22843
 11 C    -0.09134    1.29473    0.37491
 12 C    -1.11424    0.82544   -0.09580
 13 C    -1.05976    1.08375    1.85030
 14 C    -0.14010    0.06962    0.76908
 15 C     3.71269   -0.73650   -3.54135
 16 C     0.35098    0.02005   -0.39634
 17 C    -0.54366   -0.08112   -0.77674
 18 C    -0.02555    0.12135    1.26189
 19 C    -4.11904    0.99697    0.65424
 20 C    -0.96199   -2.66595   -0.80710
 21 C     0.17954    0.12663    0.19900
 22 C     2.22425    0.51229    0.07078
 23 C     1.61078    1.71170    0.93229

System changes: positions 

Initializing position-dependent things.

Density initialized from wave functions
           .--------------------------------------.  
          /|                                      |  
         / |                                      |  
        /  |                                      |  
       /   |                                      |  
      /    |                                      |  
     /     |                                      |  
    /      |                                      |  
   /       |                   CC                 |  
  /        |                                      |  
 *         |   C C  C  C  C    C CC               |  
 |         |  C C C       C   CC                  |  
 |         .---------C--CC--C-C-------------------.  
 |        /              C                       /   
 |       /                                      /    
 |      /                                      /     
 |     /                                      /      
 |    /                                      /       
 |   /                                      /        
 |  /                                      /         
 | /                                      /          
 |/                                      /           
 *--------------------------------------*            

Positions:
   0 C      6.297659   10.566395    4.898195
   1 C      5.328293    9.660693    4.666521
   2 C      9.150269   11.764776    5.450188
   3 C      4.186041    9.202329    5.257428
   4 C      7.614550   10.392768    4.714548
   5 C     10.087183   10.893032    5.991557
   6 C      3.594615    8.092775    5.592742
   7 C      8.035486    9.101431    4.191721
   8 C      9.723819   10.200950    4.858184
   9 C      3.492958    6.803495    5.863341
  10 C      7.381400    7.840655    4.019261
  11 C      9.455949    8.885325    4.318964
  12 C      8.502258    4.498188    6.252065
  13 C      7.271265    4.163196    6.473257
  14 C     10.728671    5.843973    6.507533
  15 C      5.920208    4.305485    7.047046
  16 C      9.586113    5.391116    5.822482
  17 C     11.282431    7.055180    6.337449
  18 C      4.841573    4.678168    6.374034
  19 C      9.378116    6.353549    4.654438
  20 C     11.558820    8.334438    5.948563
  21 C      3.949526    5.631178    6.124245
  22 C      7.970028    6.720751    4.262725
  23 C     10.060132    7.619510    4.623432

Unit cell:
           periodic     x           y           z      points  spacing
  1. axis:    yes   16.000000    0.000000    0.000000    80     0.2000
  2. axis:    yes    0.000000   16.000000    0.000000    80     0.2000
  3. axis:    yes    0.000000    0.000000   10.000000    48     0.2083

Effective grid spacing dv^(1/3) = 0.2027

                     log10-error:    total        iterations:
           time      wfs    density  energy       fermi  poisson
iter:   1  09:20:18          +inf  -173.493811    3      5      
iter:   2  09:20:18         -1.95  -173.451228    3      2      
iter:   3  09:20:19         -2.07  -173.407895    3      2      
iter:   4  09:20:19         -2.41  -173.409779    2      2      
iter:   5  09:20:20         -2.56  -173.403144    2      1      
iter:   6  09:20:20         -2.63  -173.401578    3      2      
iter:   7  09:20:21         -2.81  -173.408384    2      2      
iter:   8  09:20:21         -2.97  -173.401617    2      1      
iter:   9  09:20:22         -3.23  -173.404445    2      1      
iter:  10  09:20:22         -3.35  -173.405646    2      1      
iter:  11  09:20:23         -3.43  -173.403191    2      1      
iter:  12  09:20:23         -3.61  -173.407416    2      1      
iter:  13  09:20:24         -3.54  -173.405740    2      1      
iter:  14  09:20:24         -3.81  -173.406102    2      1      
iter:  15  09:20:25         -3.87  -173.408687    2      1      
iter:  16  09:20:25         -3.81  -173.405967    2      1      
iter:  17  09:20:26         -4.25  -173.406779    2      1      

Converged after 17 iterations.

Dipole moment: (-0.840379, -0.241089, -0.266686) |e|*Ang

Energy contributions relative to reference atoms: (reference = -24663.074771)

Kinetic:        +72.225123
Potential:      -89.018860
External:        +0.000000
XC:            -159.431008
Entropy (-ST):   -0.203629
Local:           +2.919781
--------------------------
Free energy:   -173.508594
Extrapolated:  -173.406779

Fermi level: -4.59297

 Band  Eigenvalues  Occupancy
    0    -22.76799    2.00000
    1    -21.59258    2.00000
    2    -21.01238    2.00000
    3    -20.84358    2.00000
    4    -20.32296    2.00000
    5    -19.94268    2.00000
    6    -19.27332    2.00000
    7    -18.99248    2.00000
    8    -18.76321    2.00000
    9    -18.12362    2.00000
   10    -17.63310    2.00000
   11    -17.26294    2.00000
   12    -16.16564    2.00000
   13    -15.47804    2.00000
   14    -15.32603    2.00000
   15    -15.08299    2.00000
   16    -14.33985    2.00000
   17    -13.36169    2.00000
   18    -13.00348    2.00000
   19    -12.69659    2.00000
   20    -12.19731    2.00000
   21    -11.80233    2.00000
   22    -11.35452    2.00000
   23    -11.19121    2.00000
   24    -10.56987    2.00000
   25    -10.03717    2.00000
   26     -9.96672    2.00000
   27     -9.50955    2.00000
   28     -9.44077    2.00000
   29     -9.22910    2.00000
   30     -8.81454    2.00000
   31     -8.66140    2.00000
   32     -8.28316    2.00000
   33     -8.08680    2.00000
   34     -8.05188    2.00000
   35     -7.75199    2.00000
   36     -7.22295    2.00000
   37     -7.01459    2.00000
   38     -6.76015    2.00000
   39     -6.60896    2.00000
   40     -6.46185    2.00000
   41     -6.41186    2.00000
   42     -6.12107    2.00000
   43     -6.03730    2.00000
   44     -5.68269    1.99996
   45     -5.21038    1.99584
   46     -4.95340    1.94703
   47     -4.77365    1.71796
   48     -4.43146    0.33177
   49     -4.03366    0.00742
   50     -3.41802    0.00002
   51     -3.19846    0.00000
   52     -2.94301    0.00000
   53     -2.82135    0.00000
   54     -2.15305    0.00000
   55     -1.95838    0.00000
   56     -1.60005    0.00000
   57     -1.43257    0.00000
   58     -0.89246    0.00000
   59     -0.67502    0.00000
   60     -0.40293    0.00000
   61     -0.16264    0.00000
   62      0.02724    0.00000
   63      0.16956    0.00000
   64      0.33140    0.00000
   65      0.53182    0.00000
   66      0.77013    0.00000
   67      1.36188    0.00000
   68      2.29656    0.00000
   69      2.49128    0.00000
   70      3.45327    0.00000
   71      5.08608    0.00000
   72      5.44347    0.00000
   73      5.89189    0.00000
   74      6.13278    0.00000
   75      6.50697    0.00000
   76      6.79499    0.00000
   77      6.84176    0.00000
   78      7.31136    0.00000
   79      7.79604    0.00000
   80      7.93335    0.00000
   81      8.08294    0.00000
   82      8.29455    0.00000
   83      8.51573    0.00000
   84      8.69987    0.00000
   85      8.81163    0.00000
   86      8.93408    0.00000
   87      9.09274    0.00000
   88      9.20932    0.00000
   89      9.26512    0.00000
   90      9.55998    0.00000
   91      9.63751    0.00000
   92      9.71301    0.00000
   93      9.85298    0.00000
   94      9.86763    0.00000
   95      9.93312    0.00000
   96     10.00696    0.00000
   97     10.22153    0.00000


Forces in eV/Ang:
  0 C     0.08173   -0.80523   -1.22869
  1 C    -1.86832    1.61118    2.32550
  2 C    -1.38792   -0.88695   -0.31207
  3 C     0.85452   -0.85997   -1.20349
  4 C    -0.13636   -0.32640   -1.03677
  5 C     0.98557   -0.01169   -1.44287
  6 C     0.41951   -0.03201   -0.07392
  7 C    -0.13170   -0.68145   -0.19914
  8 C     1.45960   -0.30840    2.63222
  9 C    -0.28957    0.36911   -0.19111
 10 C    -0.03796   -0.89086    0.20550
 11 C    -0.15308    1.07174    0.37567
 12 C    -0.84004    0.83851   -0.08546
 13 C    -0.53707    0.98790    1.47819
 14 C    -0.18930   -0.02523    0.69667
 15 C     2.70313   -0.48457   -3.32903
 16 C     0.11567   -0.00766   -0.28914
 17 C    -0.65782   -0.52212   -0.66051
 18 C     0.24435    0.07933    1.27523
 19 C    -3.11117    1.30620    0.73641
 20 C    -0.96272   -2.20556   -1.02895
 21 C     0.32032   -0.08232    0.32432
 22 C     1.77586    0.62183    0.01428
 23 C     1.27632    1.24749    1.00283

System changes: positions 

Initializing position-dependent things.

Density initialized from wave functions
           .--------------------------------------.  
          /|                                      |  
         / |                                      |  
        /  |                                      |  
       /   |                                      |  
[...]
    5    -20.01235    2.00000
    6    -19.66828    2.00000
    7    -19.10045    2.00000
    8    -18.83062    2.00000
    9    -18.27611    2.00000
   10    -17.94467    2.00000
   11    -17.53661    2.00000
   12    -16.58656    2.00000
   13    -15.83774    2.00000
   14    -15.27449    2.00000
   15    -15.23742    2.00000
   16    -14.68705    2.00000
   17    -14.27070    2.00000
   18    -13.57912    2.00000
   19    -13.21167    2.00000
   20    -12.89461    2.00000
   21    -11.94960    2.00000
   22    -11.61981    2.00000
   23    -10.90589    2.00000
   24    -10.78775    2.00000
   25    -10.45252    2.00000
   26    -10.30802    2.00000
   27    -10.00064    2.00000
   28     -9.65085    2.00000
   29     -9.29387    2.00000
   30     -9.27771    2.00000
   31     -8.74805    2.00000
   32     -8.67776    2.00000
   33     -8.60388    2.00000
   34     -8.25514    2.00000
   35     -8.21420    2.00000
   36     -7.67218    2.00000
   37     -7.42750    2.00000
   38     -7.03279    2.00000
   39     -6.98651    2.00000
   40     -6.57664    2.00000
   41     -6.37680    2.00000
   42     -6.30836    2.00000
   43     -5.98091    2.00000
   44     -5.40882    1.99971
   45     -5.23132    1.99832
   46     -4.73841    1.79144
   47     -4.56943    1.22641
   48     -4.52017    0.98411
   49     -3.22081    0.00000
   50     -3.20485    0.00000
   51     -2.78971    0.00000
   52     -2.22117    0.00000
   53     -1.86919    0.00000
   54     -1.73919    0.00000
   55     -1.54547    0.00000
   56     -1.28428    0.00000
   57     -0.45069    0.00000
   58     -0.13683    0.00000
   59      0.23575    0.00000
   60      0.26263    0.00000
   61      0.44675    0.00000
   62      1.07358    0.00000
   63      1.44736    0.00000
   64      2.00111    0.00000
   65      2.56183    0.00000
   66      3.23151    0.00000
   67      4.08094    0.00000
   68      4.55586    0.00000
   69      4.85217    0.00000
   70      5.51814    0.00000
   71      5.56594    0.00000
   72      6.24122    0.00000
   73      6.51581    0.00000
   74      6.73698    0.00000
   75      7.04326    0.00000
   76      7.35711    0.00000
   77      7.62766    0.00000
   78      7.71211    0.00000
   79      8.12357    0.00000
   80      8.14746    0.00000
   81      8.35070    0.00000
   82      8.46375    0.00000
   83      8.85616    0.00000
   84      8.93175    0.00000
   85      9.01655    0.00000
   86      9.11523    0.00000
   87      9.28857    0.00000
   88      9.33930    0.00000
   89      9.45946    0.00000
   90      9.62789    0.00000
   91      9.76852    0.00000
   92      9.78667    0.00000
   93      9.93089    0.00000
   94     10.04489    0.00000
   95     10.18557    0.00000
   96     10.26045    0.00000
   97     10.35283    0.00000


Forces in eV/Ang:
  0 C    -0.05307   -0.03756    0.05770
  1 C     0.01471    0.02608    0.03901
  2 C     0.00550    0.07362   -0.06038
  3 C     0.01377   -0.04952   -0.04052
  4 C    -0.01147    0.03837   -0.01625
  5 C    -0.03634   -0.03848   -0.00383
  6 C     0.11090   -0.02930    0.04766
  7 C     0.02599   -0.03145    0.03265
  8 C     0.03422    0.00862    0.06973
  9 C    -0.09897   -0.00163   -0.06349
 10 C    -0.00512   -0.02059   -0.00819
 11 C     0.02564    0.02179   -0.08651
 12 C    -0.08827   -0.01263    0.02899
 13 C    -0.02347    0.01542    0.03563
 14 C     0.05338    0.03188   -0.01358
 15 C     0.05017    0.00135    0.02494
 16 C     0.00618   -0.02826    0.00037
 17 C    -0.04284    0.07647   -0.08974
 18 C     0.01210    0.02253   -0.07250
 19 C     0.01439    0.01377    0.00182
 20 C     0.02262    0.01884    0.00406
 21 C    -0.01884   -0.00649   -0.05304
 22 C    -0.01995   -0.11369    0.08454
 23 C    -0.03399   -0.03777    0.02268

System changes: positions 

Initializing position-dependent things.

Density initialized from wave functions
           .--------------------------------------.  
          /|                                      |  
         / |                                      |  
        /  |                                      |  
       /   |                                      |  
      /    |                                      |  
     /     |                                      |  
    /      |                                      |  
   /       |                                      |  
  /        |                 C  CC                |  
 *         |   C C  C  C  C   C   C               |  
 |         |  CCC         C C CC C                |  
 |         .-------C--C-CC--C---------------------.  
 |        /                                      /   
 |       /                                      /    
 |      /                                      /     
 |     /                                      /      
 |    /                                      /       
 |   /                                      /        
 |  /                                      /         
 | /                                      /          
 |/                                      /           
 *--------------------------------------*            

Positions:
   0 C      6.107532   10.729225    4.590030
   1 C      4.991250   10.157261    4.763365
   2 C      8.624651   11.362331    4.767872
   3 C      4.026750    9.311692    5.163337
   4 C      7.505638   10.536851    4.559150
   5 C      9.934191   11.808116    4.959062
   6 C      3.565806    8.184338    5.529727
   7 C      8.004666    9.163619    4.635075
   8 C      9.855669   10.425258    5.058315
   9 C      3.594511    6.914944    5.952242
  10 C      7.344885    7.909946    4.540753
  11 C      9.417432    9.086423    5.001388
  12 C      8.668372    4.362133    6.059120
  13 C      7.441353    4.097448    6.175315
  14 C     11.080815    5.207972    6.322876
  15 C      6.104037    4.202660    6.302357
  16 C      9.731407    5.287938    5.880463
  17 C     11.619066    6.405444    6.203869
  18 C      4.977830    4.786510    6.335241
  19 C      9.268446    6.579077    5.332350
  20 C     11.420260    7.636893    5.802565
  21 C      4.070244    5.762063    6.202931
  22 C      7.989024    6.868626    4.867646
  23 C     10.081795    7.826595    5.343248

Unit cell:
           periodic     x           y           z      points  spacing
  1. axis:    yes   16.000000    0.000000    0.000000    80     0.2000
  2. axis:    yes    0.000000   16.000000    0.000000    80     0.2000
  3. axis:    yes    0.000000    0.000000   10.000000    48     0.2083

Effective grid spacing dv^(1/3) = 0.2027

                     log10-error:    total        iterations:
           time      wfs    density  energy       fermi  poisson
iter:   1  09:30:38          +inf  -182.111299    3      4      
iter:   2  09:30:38         -2.53  -182.105079    3      1      
iter:   3  09:30:39         -3.01  -182.104090    2      1      
iter:   4  09:30:39         -3.25  -182.104290    3      1      
iter:   5  09:30:40         -3.07  -182.104037    2      1      
iter:   6  09:30:40         -3.15  -182.107115    3      1      
iter:   7  09:30:41         -2.73  -182.104887    3      1      
iter:   8  09:30:41         -3.24  -182.104373    2      1      
iter:   9  09:30:42         -3.58  -182.104577    2      1      
iter:  10  09:30:42         -3.51  -182.104534    2      1      
iter:  11  09:30:43         -4.02  -182.104545    2      1      

Converged after 11 iterations.

Dipole moment: (-0.461239, -0.124955, -0.005006) |e|*Ang

Energy contributions relative to reference atoms: (reference = -24663.074771)

Kinetic:       +105.690007
Potential:     -115.765111
External:        +0.000000
XC:            -174.901350
Entropy (-ST):   -0.340211
Local:           +3.042015
--------------------------
Free energy:   -182.274650
Extrapolated:  -182.104545

Fermi level: -4.52239

 Band  Eigenvalues  Occupancy
    0    -23.33907    2.00000
    1    -22.03806    2.00000
    2    -20.97016    2.00000
    3    -20.59047    2.00000
    4    -20.24768    2.00000
    5    -20.01462    2.00000
    6    -19.66846    2.00000
    7    -19.10153    2.00000
    8    -18.83304    2.00000
    9    -18.27246    2.00000
   10    -17.94883    2.00000
   11    -17.53724    2.00000
   12    -16.58997    2.00000
   13    -15.83773    2.00000
   14    -15.27615    2.00000
   15    -15.23711    2.00000
   16    -14.68706    2.00000
   17    -14.27540    2.00000
   18    -13.57950    2.00000
   19    -13.21307    2.00000
   20    -12.89425    2.00000
   21    -11.94676    2.00000
   22    -11.61877    2.00000
   23    -10.91128    2.00000
   24    -10.78762    2.00000
   25    -10.45415    2.00000
   26    -10.30674    2.00000
   27    -10.00673    2.00000
   28     -9.65138    2.00000
   29     -9.29646    2.00000
   30     -9.28047    2.00000
   31     -8.75001    2.00000
   32     -8.67894    2.00000
   33     -8.60584    2.00000
   34     -8.25421    2.00000
   35     -8.21519    2.00000
   36     -7.67349    2.00000
   37     -7.42746    2.00000
   38     -7.02879    2.00000
   39     -6.98653    2.00000
   40     -6.57750    2.00000
   41     -6.37629    2.00000
   42     -6.30985    2.00000
   43     -5.97929    2.00000
   44     -5.41142    1.99972
   45     -5.23173    1.99834
   46     -4.73844    1.79329
   47     -4.56827    1.22546
   48     -4.51902    0.98318
   49     -3.22078    0.00000
   50     -3.20476    0.00000
   51     -2.78912    0.00000
   52     -2.21342    0.00000
   53     -1.86632    0.00000
   54     -1.73899    0.00000
   55     -1.54475    0.00000
   56     -1.28169    0.00000
   57     -0.44561    0.00000
   58     -0.13635    0.00000
   59      0.24455    0.00000
   60      0.26630    0.00000
   61      0.45265    0.00000
   62      1.06383    0.00000
   63      1.44842    0.00000
   64      1.99835    0.00000
   65      2.56681    0.00000
   66      3.23770    0.00000
   67      4.08705    0.00000
   68      4.55695    0.00000
   69      4.85792    0.00000
   70      5.52839    0.00000
   71      5.57720    0.00000
   72      6.24857    0.00000
   73      6.51708    0.00000
   74      6.74043    0.00000
   75      7.04379    0.00000
   76      7.36040    0.00000
   77      7.62767    0.00000
   78      7.71167    0.00000
   79      8.11862    0.00000
   80      8.16302    0.00000
   81      8.35148    0.00000
   82      8.45770    0.00000
   83      8.85736    0.00000
   84      8.93237    0.00000
   85      9.01583    0.00000
   86      9.12229    0.00000
   87      9.29158    0.00000
   88      9.33032    0.00000
   89      9.45850    0.00000
   90      9.62673    0.00000
   91      9.76959    0.00000
   92      9.78897    0.00000
   93      9.93420    0.00000
   94     10.04715    0.00000
   95     10.18157    0.00000
   96     10.25887    0.00000
   97     10.34862    0.00000


Forces in eV/Ang:
  0 C    -0.04606   -0.03763    0.05431
  1 C     0.02027    0.03111    0.02775
  2 C    -0.00637    0.07100   -0.05664
  3 C     0.01714   -0.02181   -0.04095
  4 C    -0.01369    0.01015   -0.01544
  5 C    -0.03343   -0.02978    0.00174
  6 C     0.08225   -0.03222    0.04292
  7 C    -0.00041   -0.02974    0.02100
  8 C     0.03120    0.00508    0.05972
  9 C    -0.06964   -0.05287   -0.04957
 10 C     0.00830   -0.01773   -0.00148
 11 C     0.02065   -0.01343   -0.07294
 12 C    -0.05734    0.00103    0.02451
 13 C    -0.03112    0.00859    0.03470
 14 C     0.06066    0.01347    0.00027
 15 C     0.05141   -0.00394    0.03566
 16 C     0.00920   -0.02155   -0.00172
 17 C    -0.02243    0.04284   -0.07538
 18 C    -0.02285    0.03909   -0.06745
 19 C    -0.00956    0.00500    0.00235
 20 C     0.02526    0.05409   -0.00165
 21 C    -0.00695    0.00619   -0.03787
 22 C    -0.01697   -0.08761    0.08697
 23 C    -0.02776   -0.00722    0.01544

System changes: positions 

Initializing position-dependent things.

Density initialized from wave functions
           .--------------------------------------.  
          /|                                      |  
         / |                                      |  
        /  |                                      |  
       /   |                                      |  
      /    |                                      |  
     /     |                                      |  
    /      |                                      |  
   /       |                                      |  
  /        |                 C  CC                |  
 *         |   C C  C  C  C   C   C               |  
 |         |  C C         C   CC C                |  
 |         .-------C--C-CC--C---------------------.  
 |        /                                      /   
 |       /                                      /    
 |      /                                      /     
 |     /                                      /      
 |    /                                      /       
 |   /                                      /        
 |  /                                      /         
 | /                                      /          
 |/                                      /           
 *--------------------------------------*            

Positions:
   0 C      6.109356   10.724318    4.587181
   1 C      5.002496   10.138557    4.764403
   2 C      8.623441   11.367017    4.767283
   3 C      4.036205    9.296221    5.162889
   4 C      7.509525   10.538073    4.552001
   5 C      9.933289   11.799914    4.977087
   6 C      3.574570    8.175864    5.543810
   7 C      8.011976    9.163822    4.624036
   8 C      9.858653   10.421551    5.070145
   9 C      3.560286    6.904203    5.957265
  10 C      7.355364    7.908021    4.524602
  11 C      9.422307    9.084404    4.993991
  12 C      8.665734    4.364641    6.062541
  13 C      7.438542    4.108760    6.190785
  14 C     11.081623    5.208559    6.317269
  15 C      6.103657    4.221599    6.313579
  16 C      9.731897    5.284600    5.874400
  17 C     11.612298    6.409360    6.202597
  18 C      4.968954    4.788400    6.329425
  19 C      9.271008    6.576419    5.323905
  20 C     11.419870    7.644342    5.809301
  21 C      4.059629    5.759108    6.193472
  22 C      7.990707    6.862019    4.855156
  23 C     10.081878    7.822915    5.339924

Unit cell:
           periodic     x           y           z      points  spacing
  1. axis:    yes   16.000000    0.000000    0.000000    80     0.2000
  2. axis:    yes    0.000000   16.000000    0.000000    80     0.2000
  3. axis:    yes    0.000000    0.000000   10.000000    48     0.2083

Effective grid spacing dv^(1/3) = 0.2027

                     log10-error:    total        iterations:
           time      wfs    density  energy       fermi  poisson
iter:   1  09:30:44          +inf  -182.147559    3      5      
iter:   2  09:30:45         -2.14  -182.109975    3      2      
iter:   3  09:30:45         -2.51  -182.107232    3      1      
iter:   4  09:30:46         -2.75  -182.108602    3      2      
iter:   5  09:30:46         -2.83  -182.107863    3      1      
iter:   6  09:30:47         -2.97  -182.106981    3      2      
iter:   7  09:30:47         -2.91  -182.105778    3      1      
iter:   8  09:30:48         -3.21  -182.107404    2      1      
iter:   9  09:30:48         -3.46  -182.107735    2      1      
iter:  10  09:30:49         -3.62  -182.107731    2      1      
iter:  11  09:30:49         -3.61  -182.107779    3      1      
iter:  12  09:30:50         -3.83  -182.107434    2      1      
iter:  13  09:30:50         -3.98  -182.107575    2      1      
iter:  14  09:30:51         -4.05  -182.107824    2      1      

Converged after 14 iterations.

Dipole moment: (-0.463887, -0.122860, -0.007160) |e|*Ang

Energy contributions relative to reference atoms: (reference = -24663.074771)

Kinetic:       +106.696468
Potential:     -116.584630
External:        +0.000000
XC:            -175.091453
Entropy (-ST):   -0.339198
Local:           +3.041391
--------------------------
Free energy:   -182.277423
Extrapolated:  -182.107824

Fermi level: -4.51959

 Band  Eigenvalues  Occupancy
    0    -23.34563    2.00000
    1    -22.03640    2.00000
    2    -20.96775    2.00000
    3    -20.60190    2.00000
    4    -20.24776    2.00000
    5    -20.02448    2.00000
    6    -19.66714    2.00000
    7    -19.10840    2.00000
    8    -18.84142    2.00000
    9    -18.25993    2.00000
   10    -17.96338    2.00000
   11    -17.53822    2.00000
   12    -16.60345    2.00000
   13    -15.83707    2.00000
   14    -15.28328    2.00000
   15    -15.23656    2.00000
   16    -14.69267    2.00000
   17    -14.28824    2.00000
   18    -13.58270    2.00000
   19    -13.21889    2.00000
   20    -12.88810    2.00000
   21    -11.94023    2.00000
   22    -11.61432    2.00000
   23    -10.93860    2.00000
   24    -10.79098    2.00000
   25    -10.45876    2.00000
   26    -10.31178    2.00000
   27    -10.03496    2.00000
   28     -9.65029    2.00000
   29     -9.30607    2.00000
   30     -9.29117    2.00000
   31     -8.75450    2.00000
   32     -8.67826    2.00000
   33     -8.60823    2.00000
   34     -8.25175    2.00000
   35     -8.22099    2.00000
   36     -7.68160    2.00000
   37     -7.42486    2.00000
   38     -7.00831    2.00000
   39     -6.99137    2.00000
   40     -6.58082    2.00000
   41     -6.37508    2.00000
   42     -6.31793    2.00000
   43     -5.97439    2.00000
   44     -5.42164    1.99976
   45     -5.23338    1.99841
   46     -4.73709    1.79596
   47     -4.56688    1.23217
   48     -4.51433    0.97369
   49     -3.22493    0.00000
   50     -3.20621    0.00000
   51     -2.78624    0.00000
   52     -2.18322    0.00000
   53     -1.85612    0.00000
   54     -1.74423    0.00000
   55     -1.54246    0.00000
   56     -1.27758    0.00000
   57     -0.43123    0.00000
   58     -0.14894    0.00000
   59      0.26549    0.00000
   60      0.28304    0.00000
   61      0.48786    0.00000
   62      0.98499    0.00000
   63      1.45417    0.00000
   64      1.98492    0.00000
   65      2.57940    0.00000
   66      3.25878    0.00000
   67      4.10619    0.00000
   68      4.56098    0.00000
   69      4.86430    0.00000
   70      5.56576    0.00000
   71      5.61547    0.00000
   72      6.26845    0.00000
   73      6.51395    0.00000
   74      6.75005    0.00000
   75      7.03546    0.00000
   76      7.35866    0.00000
   77      7.62318    0.00000
   78      7.70658    0.00000
   79      8.10217    0.00000
   80      8.19106    0.00000
   81      8.35574    0.00000
   82      8.43953    0.00000
   83      8.85557    0.00000
   84      8.93223    0.00000
   85      9.01179    0.00000
   86      9.14800    0.00000
   87      9.28170    0.00000
   88      9.32973    0.00000
   89      9.45490    0.00000
   90      9.62284    0.00000
   91      9.76465    0.00000
   92      9.80298    0.00000
   93      9.95073    0.00000
   94     10.05986    0.00000
   95     10.16124    0.00000
   96     10.25615    0.00000
   97     10.32793    0.00000


Forces in eV/Ang:
  0 C     0.04802   -0.00051    0.01922
  1 C    -0.01032    0.03184    0.02638
  2 C    -0.03495    0.04576   -0.01990
  3 C    -0.03622    0.02121   -0.01130
  4 C    -0.00250   -0.04024    0.00509
  5 C    -0.05133    0.05572   -0.02472
  6 C     0.01811   -0.01667   -0.00289
  7 C    -0.04903   -0.02360   -0.01161
  8 C     0.02394   -0.04914    0.01494
  9 C    -0.02772   -0.00579   -0.05242
 10 C     0.01789   -0.01242    0.01145
 11 C    -0.01284   -0.06185   -0.01519
 12 C    -0.00552    0.03143    0.02452
 13 C     0.01727   -0.03076   -0.00294
 14 C     0.04549    0.00835    0.01163
 15 C    -0.00801   -0.03860    0.02474
 16 C     0.03659    0.03320    0.00211
 17 C     0.04040   -0.00781   -0.04193
 18 C    -0.01544   -0.00458   -0.02055
 19 C    -0.05915   -0.04725    0.00314
 20 C     0.01587    0.05759   -0.03025
 21 C    -0.03965   -0.02277   -0.01655
 22 C    -0.01624   -0.01066    0.06085
 23 C     0.00340    0.05267    0.01647

