
  ___ ___ ___ _ _ _  
 |   |   |_  | | | | 
 | | | | | . | | | | 
 |__ |  _|___|_____|  1.3.0b1
 |___|_|             

User:   esb@s65n63.grendel.cscaa.dk
Date:   Wed Nov  8 16:14:54 2017
Arch:   x86_64
Pid:    73152
Python: 2.7.13
gpaw:   /home/esb/DFT/gpaw_git/gpaw
_gpaw:  /home/esb/DFT/gpaw_git/build/bin.linux-x86_64-2.7/gpaw-python
ase:    /home/esb/DFT/ase_git/ase (version 3.15.0b1)
numpy:  /comm/swstack/core/python/2.7.13/lib/python2.7/site-packages/numpy (version 1.13.3)
scipy:  /comm/swstack/core/python/2.7.13/lib/python2.7/site-packages/scipy (version 0.19.1)
units:  Angstrom and eV
cores:  16
Extra parameters: {'blacs': True}

Input parameters:
  basis: dzp
  gpts: [80 80 48]
  kpts: [1 1 1]
  maxiter: 99
  mixer: {backend: pulay,
          beta: 0.05,
          method: separate,
          nmaxold: 5,
          weight: 75}
  mode: lcao
  nbands: -50
  occupations: {name: fermi-dirac,
                width: 0.1}
  poissonsolver: {eps: 1e-07,
                  name: fd,
                  nn: 3,
                  relax: GS}
  xc: PBE

System changes: positions, numbers, cell, pbc, initial_charges, initial_magmoms 

Initialize ...

C-setup:
  name: Carbon
  id: 4aa54d4b901d75f77cc0ea3eec22967b
  Z: 6
  valence: 4
  core: 2
  charge: 0.0
  file: /home/esb/DFT/gpaw-setups-0.8.7929/C.PBE.gz
  cutoffs: 0.64(comp), 1.14(filt), 1.14(core), lmax=2
  valence states:
                energy  radius
    2s(2.00)   -13.751   0.635
    2p(2.00)    -5.284   0.635
    *s          13.461   0.635
    *p          21.927   0.635
    *d           0.000   0.635

  LCAO basis set for C:
    Name: dzp
    File: /home/esb/DFT/gpaw-setups-0.8.7929/C.dzp.basis.gz
    Number of radial functions: 5
    Number of spherical harmonics: 13
      l=0, rc=5.5469 Bohr: 2s-sz confined orbital
      l=1, rc=6.6719 Bohr: 2p-sz confined orbital
      l=0, rc=3.0312 Bohr: 2s-dz split-valence wave
      l=1, rc=3.7500 Bohr: 2p-dz split-valence wave
      l=2, rc=6.6719 Bohr: d-type Gaussian polarization

Reference energy: -24663.074771

Spin-paired calculation

Occupation numbers:
  Fermi-Dirac: width=0.1000 eV

Convergence criteria:
  Maximum total energy change: 0.0005 eV / electron
  Maximum integral of absolute density change: 0.0001 electrons
  Maximum integral of absolute eigenstate change: 4e-08 eV^2
  Maximum number of iterations: 99

Symmetries present (total): 1

  ( 1  0  0)
  ( 0  1  0)
  ( 0  0  1)

1 k-point (Gamma)
1 k-point in the irreducible part of the Brillouin zone
       k-points in crystal coordinates                weights
   0:     0.00000000    0.00000000    0.00000000          1/1

Wave functions: LCAO
  Diagonalizer: Serial LAPACK
  Atomic Correction: dense with blas
  Datatype: float
  Eigensolver: None 

LCAO using direct dense diagonalizer 

Densities:
  Coarse grid: 80*80*48 grid
  Fine grid: 160*160*96 grid
  Total Charge: 0.000000 

Density mixing:
  Method: separate
  Backend: pulay
  Linear mixing parameter: 0.05
  Mixing with 5 old densities
  Damping of long wave oscillations: 75 

Hamiltonian:
  XC and Coulomb potentials evaluated on a 160*160*96 grid
  Using the PBE Exchange-Correlation functional
  Interpolation: tri-quintic (5. degree polynomial)
  Poisson solver: Gauss-Seidel solver with 6 multi-grid levels
    Coarsest grid: 5 x 5 x 3 points
    Stencil: 6*3+1=19 point O(h^6) finite-difference Laplacian
    Max iterations: 1000
    Tolerance: 1.000000e-07 

Memory estimate:
  Process memory now: 77.58 MiB
  Calculator: 15.59 MiB
    Density: 6.13 MiB
      Arrays: 3.81 MiB
      Localized functions: 0.86 MiB
      Mixer: 1.46 MiB
    Hamiltonian: 5.40 MiB
      Arrays: 2.49 MiB
      XC: 0.00 MiB
      Poisson: 2.85 MiB
      vbar: 0.07 MiB
    Wavefunctions: 4.05 MiB
      C [qnM]: 0.23 MiB
      S, T [2 x qmm]: 1.49 MiB
      P [aqMi]: 0.01 MiB
      TCI: 0.00 MiB
      BasisFunctions: 2.33 MiB
      Eigensolver: 0.00 MiB

Total number of cores used: 16
Domain decomposition: 2 x 4 x 2

Number of atoms: 24
Number of atomic orbitals: 312
Number of bands in calculation: 98
Bands to converge: occupied states only
Number of valence electrons: 96

... initialized

Initializing position-dependent things.

Density initialized from atomic densities
           .--------------------------------------.  
          /|                                      |  
         / |                                      |  
        /  |                                      |  
       /   |                                      |  
      /    |                                      |  
     /     |                                      |  
    /      |                                      |  
   /       |              C  C  C                 |  
  /        |         C  C        C                |  
 *         |  C   C       C  C                    |  
 |         |C    C   C   C        C C             |  
 |         .--C-------C-C-------------------------.  
 |        /               C        CC            /   
 |       /                  C   C               /    
 |      /                                      /     
 |     /                                      /      
 |    /                                      /       
 |   /                                      /        
 |  /                                      /         
 | /                                      /          
 |/                                      /           
 *--------------------------------------*            

Positions:
   0 C      4.548957    8.939707    5.657963
   1 C      4.733159    7.480995    5.572564
   2 C      6.376847   11.186431    5.037006
   3 C      7.618496    7.892146    5.083733
   4 C      9.287865    9.365081    5.503145
   5 C      3.221666    8.953746    5.073537
   6 C      9.703293   11.628251    5.229182
   7 C      3.583383    7.300031    4.754851
   8 C      2.326475    8.023627    4.685535
   9 C     12.410988    7.630790    3.472649
  10 C     11.130780    9.401833    4.267874
  11 C     10.302319   10.308830    5.187805
  12 C      6.896575    6.037715    5.427738
  13 C      5.801057    9.585181    5.710387
  14 C     12.283197    6.357552    4.098067
  15 C      9.743316    5.409110    3.999264
  16 C      7.207872   11.749818    5.506202
  17 C      8.182572    8.807970    5.696344
  18 C      8.526434   12.057310    5.365932
  19 C      9.078321    4.780271    4.853391
  20 C     11.499863    5.322866    4.208707
  21 C      7.968472    5.235883    5.895306
  22 C      6.167468    7.203883    5.592687
  23 C     12.252411    8.824002    4.427462

Unit cell:
           periodic     x           y           z      points  spacing
  1. axis:    yes   16.000000    0.000000    0.000000    80     0.2000
  2. axis:    yes    0.000000   16.000000    0.000000    80     0.2000
  3. axis:    yes    0.000000    0.000000   10.000000    48     0.2083

Effective grid spacing dv^(1/3) = 0.2027

                     log10-error:    total        iterations:
           time      wfs    density  energy       fermi  poisson
iter:   1  16:14:55          +inf  -166.983849    2      6      
iter:   2  16:14:56         -0.92  -166.036765    3      3      
iter:   3  16:14:57         -0.95  -163.203895    35     4      
iter:   4  16:14:57         -1.19  -162.886583    3      3      
iter:   5  16:14:58         -1.27  -162.634250    33     3      
iter:   6  16:14:58         -1.44  -162.543003    4      3      
iter:   7  16:14:59         -1.64  -162.503289    3      3      
iter:   8  16:14:59         -1.80  -162.483795    3      2      
iter:   9  16:15:00         -1.87  -162.464252    3      2      
iter:  10  16:15:00         -1.99  -162.453638    3      2      
iter:  11  16:15:01         -2.16  -162.442561    2      2      
iter:  12  16:15:01         -2.29  -162.442797    3      2      
iter:  13  16:15:02         -2.43  -162.438851    3      2      
iter:  14  16:15:02         -2.78  -162.439910    2      2      
iter:  15  16:15:03         -2.97  -162.443081    2      1      
iter:  16  16:15:03         -3.03  -162.443846    2      1      
iter:  17  16:15:04         -3.22  -162.435946    2      1      
iter:  18  16:15:04         -3.57  -162.439454    2      1      
iter:  19  16:15:05         -3.66  -162.440041    2      1      
iter:  20  16:15:05         -3.72  -162.439750    2      1      
iter:  21  16:15:06         -3.81  -162.440187    2      1      
iter:  22  16:15:06         -3.99  -162.439811    2      1      
iter:  23  16:15:07         -4.10  -162.439782    2      1      

Converged after 23 iterations.

Dipole moment: (0.178050, 0.211665, 0.261336) |e|*Ang

Energy contributions relative to reference atoms: (reference = -24663.074771)

Kinetic:       +106.049859
Potential:     -111.786948
External:        +0.000000
XC:            -159.433538
Entropy (-ST):   -0.391037
Local:           +2.926363
--------------------------
Free energy:   -162.635301
Extrapolated:  -162.439782

Fermi level: -4.54892

 Band  Eigenvalues  Occupancy
    0    -23.61917    2.00000
    1    -21.78352    2.00000
    2    -21.13567    2.00000
    3    -20.48221    2.00000
    4    -20.24556    2.00000
    5    -19.78982    2.00000
    6    -19.65298    2.00000
    7    -19.21249    2.00000
    8    -18.70788    2.00000
    9    -17.86203    2.00000
   10    -17.26922    2.00000
   11    -16.94491    2.00000
   12    -16.01577    2.00000
   13    -15.78597    2.00000
   14    -15.21299    2.00000
   15    -14.76740    2.00000
   16    -13.82630    2.00000
   17    -13.05503    2.00000
   18    -12.42332    2.00000
   19    -12.31098    2.00000
   20    -11.70716    2.00000
   21    -10.96292    2.00000
   22    -10.71744    2.00000
   23    -10.52253    2.00000
   24    -10.36397    2.00000
   25    -10.20114    2.00000
   26     -9.81770    2.00000
   27     -9.58847    2.00000
   28     -9.30370    2.00000
   29     -8.87577    2.00000
   30     -8.74700    2.00000
   31     -8.48892    2.00000
   32     -8.33715    2.00000
   33     -8.26898    2.00000
   34     -7.87585    2.00000
   35     -7.51262    2.00000
   36     -7.39479    2.00000
   37     -7.37486    2.00000
   38     -6.88382    2.00000
   39     -6.69760    2.00000
   40     -6.66337    2.00000
   41     -6.31616    2.00000
   42     -5.98575    2.00000
   43     -5.71779    1.99998
   44     -5.62818    1.99996
   45     -5.24466    1.99810
   46     -4.81208    1.86573
   47     -4.57309    1.12025
   48     -4.51886    0.85079
   49     -4.27752    0.12429
   50     -4.16154    0.04071
   51     -3.62139    0.00019
   52     -2.95982    0.00000
   53     -2.72051    0.00000
   54     -2.51159    0.00000
   55     -2.36534    0.00000
   56     -1.80146    0.00000
   57     -1.48566    0.00000
   58     -1.15550    0.00000
   59     -1.10479    0.00000
   60     -1.02693    0.00000
   61     -0.76646    0.00000
   62      0.14248    0.00000
   63      0.27488    0.00000
   64      0.42322    0.00000
   65      0.60088    0.00000
   66      0.88034    0.00000
   67      1.00894    0.00000
   68      1.71706    0.00000
   69      1.92865    0.00000
   70      3.12991    0.00000
   71      3.76684    0.00000
   72      4.19814    0.00000
   73      4.47020    0.00000
   74      4.78836    0.00000
   75      5.20857    0.00000
   76      5.38521    0.00000
   77      5.59810    0.00000
   78      6.87379    0.00000
   79      7.00915    0.00000
   80      7.58210    0.00000
   81      7.78717    0.00000
   82      8.03525    0.00000
   83      8.23180    0.00000
   84      8.36231    0.00000
   85      8.65330    0.00000
   86      8.69195    0.00000
   87      8.74612    0.00000
   88      9.10696    0.00000
   89      9.13800    0.00000
   90      9.22819    0.00000
   91      9.34434    0.00000
   92      9.46786    0.00000
   93      9.55557    0.00000
   94      9.62106    0.00000
   95      9.88991    0.00000
   96     10.03792    0.00000
   97     10.09812    0.00000


Forces in eV/Ang:
  0 C     2.19072    2.80027    0.33984
  1 C     2.28705    0.26507   -0.26341
  2 C   -17.57911  -14.45515   -5.19295
  3 C    -9.64271   -7.13234   -1.17004
  4 C     4.18553    3.46614   -0.06120
  5 C     0.03127    0.51398    0.03239
  6 C     0.36026    0.07055   -0.17362
  7 C    -1.31320   -0.56918    0.23599
  8 C     0.54471   -0.83669   -0.42942
  9 C     1.13616   -0.70273    4.07813
 10 C    -2.20986    5.89110    3.70026
 11 C    -0.96262   -2.94398   -2.11900
 12 C     3.94924   -2.27711    2.29322
 13 C    -1.81961    3.26942   -1.84966
 14 C    -0.44554    1.26883   -1.71165
 15 C     7.77847   -0.02196   -1.25961
 16 C    15.41062   11.45587    6.68305
 17 C     2.77202    2.67318    3.01067
 18 C     1.10002   -0.17688    0.62086
 19 C    -6.80687    0.68819    5.80430
 20 C    -3.91773    1.59534   -1.38606
 21 C     0.24280    0.19609   -5.07048
 22 C     1.14959   -0.74775   -2.18242
 23 C     1.51471   -4.36901   -3.90883

System changes: positions 

Initializing position-dependent things.

Density initialized from wave functions
           .--------------------------------------.  
          /|                                      |  
         / |                                      |  
        /  |                                      |  
       /   |                                      |  
      /    |                                      |  
     /     |                                      |  
    /      |                                      |  
   /       |              C  C  C                 |  
  /        |         C C         C                |  
 *         |  C   C       C   C                   |  
 |         |C    C   C  C         C C             |  
 |         .--C-------C-C-------------------------.  
 |        /               C        CC            /   
 |       /                  C   C               /    
 |      /                                      /     
 |     /                                      /      
 |    /                                      /       
 |   /                                      /        
 |  /                                      /         
 | /                                      /          
 |/                                      /           
 *--------------------------------------*            

Positions:
   0 C      4.552710    8.944505    5.658545
   1 C      4.737078    7.481450    5.572113
   2 C      6.346725   11.161662    5.028108
   3 C      7.601973    7.879925    5.081728
   4 C      9.295037    9.371020    5.503041
   5 C      3.221720    8.954626    5.073593
   6 C      9.703911   11.628372    5.228885
   7 C      3.581133    7.299056    4.755255
   8 C      2.327408    8.022193    4.684799
   9 C     12.412934    7.629586    3.479637
  10 C     11.126993    9.411927    4.274214
  11 C     10.300670   10.303785    5.184174
  12 C      6.903342    6.033813    5.431667
  13 C      5.797939    9.590783    5.707217
  14 C     12.282433    6.359727    4.095134
  15 C      9.756645    5.409072    3.997106
  16 C      7.234278   11.769447    5.517653
  17 C      8.187322    8.812551    5.701502
  18 C      8.528319   12.057007    5.366996
  19 C      9.066657    4.781451    4.863337
  20 C     11.493150    5.325599    4.206332
  21 C      7.968888    5.236219    5.886618
  22 C      6.169438    7.202602    5.588947
  23 C     12.255007    8.816516    4.420764

Unit cell:
           periodic     x           y           z      points  spacing
  1. axis:    yes   16.000000    0.000000    0.000000    80     0.2000
  2. axis:    yes    0.000000   16.000000    0.000000    80     0.2000
  3. axis:    yes    0.000000    0.000000   10.000000    48     0.2083

Effective grid spacing dv^(1/3) = 0.2027

                     log10-error:    total        iterations:
           time      wfs    density  energy       fermi  poisson
iter:   1  16:15:08          +inf  -164.730431    3      5      
iter:   2  16:15:09         -1.82  -164.627243    2      2      
iter:   3  16:15:09         -2.08  -164.616277    2      2      
iter:   4  16:15:10         -2.21  -164.601707    2      2      
iter:   5  16:15:10         -2.34  -164.596357    3      2      
iter:   6  16:15:11         -2.48  -164.593424    2      2      
iter:   7  16:15:11         -2.70  -164.592312    2      2      
iter:   8  16:15:12         -2.85  -164.589820    2      2      
iter:   9  16:15:12         -3.06  -164.590979    2      1      
iter:  10  16:15:13         -3.16  -164.589552    2      1      
iter:  11  16:15:13         -3.39  -164.588921    2      1      
iter:  12  16:15:14         -3.49  -164.587983    2      1      
iter:  13  16:15:14         -3.66  -164.588017    2      1      
iter:  14  16:15:15         -3.78  -164.587245    2      1      
iter:  15  16:15:15         -3.99  -164.588553    2      1      
iter:  16  16:15:16         -4.07  -164.589358    2      1      

Converged after 16 iterations.

Dipole moment: (0.192874, 0.193423, 0.257386) |e|*Ang

Energy contributions relative to reference atoms: (reference = -24663.074771)

Kinetic:        +93.584662
Potential:     -102.988008
External:        +0.000000
XC:            -157.829243
Entropy (-ST):   -0.386152
Local:           +2.836307
--------------------------
Free energy:   -164.782434
Extrapolated:  -164.589358

Fermi level: -4.51579

 Band  Eigenvalues  Occupancy
    0    -23.56324    2.00000
    1    -21.75369    2.00000
    2    -21.16697    2.00000
    3    -20.41694    2.00000
    4    -20.18122    2.00000
    5    -19.76972    2.00000
    6    -19.60142    2.00000
    7    -19.17977    2.00000
    8    -18.66902    2.00000
    9    -17.81850    2.00000
   10    -17.29491    2.00000
   11    -16.97013    2.00000
   12    -16.01719    2.00000
   13    -15.74146    2.00000
   14    -15.23884    2.00000
   15    -14.86491    2.00000
   16    -13.83831    2.00000
   17    -13.12497    2.00000
   18    -12.54873    2.00000
   19    -12.37722    2.00000
   20    -11.71790    2.00000
   21    -10.97040    2.00000
   22    -10.77578    2.00000
   23    -10.51477    2.00000
   24    -10.35151    2.00000
   25    -10.23133    2.00000
   26     -9.80824    2.00000
   27     -9.57726    2.00000
   28     -9.27769    2.00000
   29     -8.86795    2.00000
   30     -8.72214    2.00000
   31     -8.49337    2.00000
   32     -8.31900    2.00000
   33     -8.26720    2.00000
   34     -7.85430    2.00000
   35     -7.49608    2.00000
   36     -7.37044    2.00000
   37     -7.35351    2.00000
   38     -6.88829    2.00000
   39     -6.67749    2.00000
   40     -6.65608    2.00000
   41     -6.29848    2.00000
   42     -5.98997    2.00000
   43     -5.73244    1.99999
   44     -5.59062    1.99996
   45     -5.21815    1.99822
   46     -4.77762    1.86407
   47     -4.54952    1.16710
   48     -4.47824    0.81444
   49     -4.23814    0.11721
   50     -4.12336    0.03875
   51     -3.62043    0.00026
   52     -2.98304    0.00000
   53     -2.75713    0.00000
   54     -2.46457    0.00000
   55     -2.32785    0.00000
   56     -1.80177    0.00000
   57     -1.51437    0.00000
   58     -1.15485    0.00000
   59     -1.07011    0.00000
   60     -1.01274    0.00000
   61     -0.70834    0.00000
   62      0.04894    0.00000
   63      0.18222    0.00000
   64      0.32622    0.00000
   65      0.60211    0.00000
   66      0.91003    0.00000
   67      0.96876    0.00000
   68      1.67245    0.00000
   69      1.99732    0.00000
   70      3.15265    0.00000
   71      3.90520    0.00000
   72      4.04925    0.00000
   73      4.54590    0.00000
   74      4.91740    0.00000
   75      5.24251    0.00000
   76      5.43986    0.00000
   77      5.67585    0.00000
   78      6.97772    0.00000
   79      7.14312    0.00000
   80      7.62195    0.00000
   81      7.79046    0.00000
   82      8.06096    0.00000
   83      8.26938    0.00000
   84      8.42447    0.00000
   85      8.64154    0.00000
   86      8.69615    0.00000
   87      8.79730    0.00000
   88      9.12385    0.00000
   89      9.14140    0.00000
   90      9.23493    0.00000
   91      9.45161    0.00000
   92      9.47187    0.00000
   93      9.55086    0.00000
   94      9.64544    0.00000
   95      9.88744    0.00000
   96     10.03842    0.00000
   97     10.10896    0.00000


Forces in eV/Ang:
  0 C     2.19217    2.60974    0.34809
  1 C     2.02781    0.33621   -0.35527
  2 C    -9.36454   -9.05523   -0.68408
  3 C    -8.55492   -5.60501   -0.08183
  4 C     3.34580    2.79962    0.00439
  5 C     0.05228    0.50955    0.05484
  6 C     0.99103   -0.08179   -0.21744
  7 C    -1.06931   -0.57494    0.36229
  8 C     0.51783   -0.80125   -0.43020
  9 C     1.14194   -0.64207    3.97565
 10 C    -1.31318    5.30711    3.61634
 11 C    -0.73413   -2.31160   -2.09082
 12 C     3.62353   -1.94676    2.20413
 13 C    -1.84913    3.60435   -1.98978
 14 C    -0.55990    1.05704   -1.63994
 15 C     6.92266   -0.77027   -0.11719
 16 C     6.19849    5.63197    2.51737
 17 C     2.10374    1.31975    1.99715
 18 C     1.55690    0.06851    0.43113
 19 C    -5.82914    1.38999    4.70248
 20 C    -3.88024    1.67507   -1.42711
 21 C     0.49009    0.04155   -4.96386
 22 C     1.25438   -0.81486   -2.23486
 23 C     0.70454   -3.85292   -3.90594

System changes: positions 

Initializing position-dependent things.

Density initialized from wave functions
           .--------------------------------------.  
          /|                                      |  
         / |                                      |  
        /  |                                      |  
       /   |                                      |  
      /    |                                      |  
     /     |                                      |  
    /      |                                      |  
   /       |              C  C  C                 |  
  /        |         C C         C                |  
 *         |  C   C       C   C                   |  
 |         |C    C   C  C         C C             |  
 |         .--C-------C-C-------------------------.  
 |        /               C        CC            /   
 |       /                  C   C               /    
 |      /                                      /     
 |     /                                      /      
 |    /                                      /       
 |   /                                      /        
 |  /                                      /         
 | /                                      /          
 |/                                      /           
 *--------------------------------------*            

Positions:
   0 C      4.562523    8.955530    5.660131
   1 C      4.745265    7.483197    5.570209
   2 C      6.332892   11.139597    5.040453
   3 C      7.567414    7.860065    5.085080
   4 C      9.307138    9.381269    5.503284
   5 C      3.222025    8.956891    5.073915
   6 C      9.710500   11.627486    5.227762
   7 C      3.577182    7.296464    4.757307
   8 C      2.329633    8.018729    4.682872
   9 C     12.418063    7.626920    3.497074
  10 C     11.124182    9.433677    4.290108
  11 C     10.298166   10.295603    5.174916
  12 C      6.918441    6.026232    5.441225
  13 C      5.789565    9.608054    5.697836
  14 C     12.279538    6.363732    4.088042
  15 C      9.784694    5.403069    4.000485
  16 C      7.230537   11.774747    5.514684
  17 C      8.194451    8.813831    5.706975
  18 C      8.536846   12.058152    5.368277
  19 C      9.043917    4.790067    4.880612
  20 C     11.475917    5.333366    4.199807
  21 C      7.971926    5.235877    5.864773
  22 C      6.175408    7.198727    5.578769
  23 C     12.255391    8.801040    4.403298

Unit cell:
           periodic     x           y           z      points  spacing
  1. axis:    yes   16.000000    0.000000    0.000000    80     0.2000
  2. axis:    yes    0.000000   16.000000    0.000000    80     0.2000
  3. axis:    yes    0.000000    0.000000   10.000000    48     0.2083

Effective grid spacing dv^(1/3) = 0.2027

                     log10-error:    total        iterations:
           time      wfs    density  energy       fermi  poisson
iter:   1  16:15:17          +inf  -167.020833    3      5      
iter:   2  16:15:18         -1.61  -166.736642    2      2      
iter:   3  16:15:18         -1.96  -166.701564    2      2      
iter:   4  16:15:19         -2.07  -166.662218    2      2      
iter:   5  16:15:20         -2.29  -166.657444    3      2      
iter:   6  16:15:20         -2.45  -166.656774    2      2      
iter:   7  16:15:21         -2.53  -166.655154    2      2      
iter:   8  16:15:21         -2.69  -166.653738    2      2      
iter:   9  16:15:22         -2.88  -166.653445    2      2      
iter:  10  16:15:22         -3.08  -166.653718    2      2      
iter:  11  16:15:23         -3.29  -166.652926    2      1      
iter:  12  16:15:23         -3.39  -166.652514    2      1      
iter:  13  16:15:24         -3.63  -166.653635    2      1      
iter:  14  16:15:24         -3.71  -166.653288    2      1      
iter:  15  16:15:24         -3.86  -166.653245    2      1      
iter:  16  16:15:25         -4.05  -166.653672    2      1      

Converged after 16 iterations.

Dipole moment: (0.226288, 0.151012, 0.245456) |e|*Ang

Energy contributions relative to reference atoms: (reference = -24663.074771)

Kinetic:        +86.562145
Potential:      -98.065616
External:        +0.000000
XC:            -157.846780
Entropy (-ST):   -0.361103
Local:           +2.877131
--------------------------
Free energy:   -166.834223
Extrapolated:  -166.653672

Fermi level: -4.45387

 Band  Eigenvalues  Occupancy
    0    -23.44418    2.00000
    1    -21.73863    2.00000
    2    -21.24898    2.00000
    3    -20.36267    2.00000
    4    -20.09778    2.00000
    5    -19.77826    2.00000
    6    -19.56330    2.00000
    7    -19.15752    2.00000
    8    -18.68206    2.00000
    9    -17.81314    2.00000
   10    -17.36672    2.00000
   11    -17.00613    2.00000
   12    -16.04286    2.00000
   13    -15.63730    2.00000
   14    -15.24318    2.00000
   15    -14.88035    2.00000
   16    -13.87714    2.00000
   17    -13.20789    2.00000
   18    -12.81827    2.00000
   19    -12.49702    2.00000
   20    -11.76407    2.00000
   21    -11.08986    2.00000
   22    -10.90410    2.00000
   23    -10.55706    2.00000
   24    -10.37206    2.00000
   25    -10.30625    2.00000
   26     -9.79450    2.00000
   27     -9.56349    2.00000
   28     -9.24910    2.00000
   29     -8.89110    2.00000
   30     -8.70086    2.00000
   31     -8.49311    2.00000
   32     -8.31624    2.00000
   33     -8.29065    2.00000
   34     -7.83046    2.00000
   35     -7.51314    2.00000
   36     -7.36841    2.00000
   37     -7.34350    2.00000
   38     -6.89256    2.00000
   39     -6.68221    2.00000
   40     -6.65062    2.00000
   41     -6.29926    2.00000
   42     -6.01679    2.00000
   43     -5.76143    2.00000
   44     -5.55835    1.99997
   45     -5.17878    1.99858
   46     -4.76082    1.91123
   47     -4.49142    1.18555
   48     -4.40853    0.77711
   49     -4.15659    0.09734
   50     -4.03508    0.02990
   51     -3.58274    0.00033
   52     -2.92324    0.00000
   53     -2.69754    0.00000
   54     -2.31942    0.00000
   55     -2.27233    0.00000
   56     -1.79942    0.00000
   57     -1.43057    0.00000
   58     -1.12117    0.00000
   59     -1.01144    0.00000
   60     -0.94415    0.00000
   61     -0.61429    0.00000
   62     -0.04094    0.00000
   63      0.26739    0.00000
   64      0.31122    0.00000
   65      0.65235    0.00000
   66      0.93412    0.00000
   67      0.98945    0.00000
   68      1.68517    0.00000
   69      2.13418    0.00000
   70      3.27051    0.00000
   71      4.05263    0.00000
   72      4.35541    0.00000
   73      4.77314    0.00000
   74      5.23299    0.00000
   75      5.41723    0.00000
   76      5.61763    0.00000
   77      5.84582    0.00000
   78      7.21075    0.00000
   79      7.45192    0.00000
   80      7.73995    0.00000
   81      7.80058    0.00000
   82      8.10190    0.00000
   83      8.35801    0.00000
   84      8.51438    0.00000
   85      8.66872    0.00000
   86      8.75237    0.00000
   87      8.85212    0.00000
   88      9.13301    0.00000
   89      9.18993    0.00000
   90      9.28869    0.00000
   91      9.50275    0.00000
   92      9.51736    0.00000
   93      9.56965    0.00000
   94      9.70354    0.00000
   95      9.92640    0.00000
   96     10.06154    0.00000
   97     10.14682    0.00000


Forces in eV/Ang:
  0 C     2.02916    2.26461    0.25646
  1 C     1.64856    0.45339   -0.49910
  2 C    -7.88311   -8.35627    0.33171
  3 C    -7.14063   -3.61760    1.27422
  4 C     1.81676    1.55177    0.23148
  5 C     0.03709    0.48295    0.10893
  6 C     0.95621   -0.00884   -0.19708
  7 C    -0.62462   -0.58332    0.59307
  8 C     0.49702   -0.67586   -0.40990
  9 C     1.16238   -0.55284    3.63619
 10 C    -0.02210    4.30302    3.29723
 11 C    -0.25645   -1.39172   -1.97219
 12 C     2.88982   -1.36702    1.98285
 13 C    -1.66223    3.92850   -2.23559
 14 C    -0.76931    0.65305   -1.46423
 15 C     5.90434   -1.59565    1.31323
 16 C     5.34108    4.82868    1.65169
 17 C     1.58221   -0.07723    0.72161
 18 C     0.90785   -0.02223    0.41295
 19 C    -4.33709    2.06474    3.20880
 20 C    -3.89708    1.76671   -1.49915
 21 C     0.82084   -0.18940   -4.66221
 22 C     1.35759   -0.93556   -2.28766
 23 C    -0.39129   -2.99032   -3.71590

System changes: positions 

Initializing position-dependent things.

Density initialized from wave functions
           .--------------------------------------.  
          /|                                      |  
         / |                                      |  
        /  |                                      |  
       /   |                                      |  
      /    |                                      |  
     /     |                                      |  
    /      |                                      |  
   /       |              C  C  C                 |  
  /        |         C C         C                |  
 *         |  C   C       C   C                   |  
 |         |C    C   C  C         C C             |  
 |         .--C-------C-C-------------------------.  
 |        /               C        CC            /   
 |       /                  C   C               /    
 |      /                                      /     
 |     /                                      /      
 |    /                                      /       
 |   /                                      /        
 |  /                                      /         
 | /                                      /          
 |/                                      /           
 *--------------------------------------*            

Positions:
   0 C      4.574057    8.967349    5.661410
   1 C      4.753135    7.486429    5.566568
   2 C      6.315629   11.108702    5.059093
   3 C      7.532566    7.849021    5.099807
   4 C      9.310947    9.384844    5.505501
   5 C      3.222265    8.959656    5.074782
   6 C      9.717981   11.627176    5.226521
   7 C      3.575504    7.292975    4.761858
   8 C      2.332430    8.015200    4.680504
   9 C     12.425010    7.624092    3.517286
  10 C     11.130476    9.454462    4.308431
  11 C     10.298712   10.291935    5.163683
  12 C      6.932434    6.020815    5.452042
  13 C      5.780183    9.633224    5.683491
  14 C     12.274043    6.365792    4.080107
  15 C      9.814073    5.388995    4.015821
  16 C      7.231505   11.783197    5.509245
  17 C      8.200273    8.805252    5.704503
  18 C      8.541757   12.058512    5.370086
  19 C      9.025526    4.806343    4.891950
  20 C     11.452948    5.344315    4.190614
  21 C      7.978477    5.233626    5.838401
  22 C      6.184048    7.192647    5.564935
  23 C     12.247475    8.787403    4.381885

Unit cell:
           periodic     x           y           z      points  spacing
  1. axis:    yes   16.000000    0.000000    0.000000    80     0.2000
  2. axis:    yes    0.000000   16.000000    0.000000    80     0.2000
  3. axis:    yes    0.000000    0.000000   10.000000    48     0.2083

Effective grid spacing dv^(1/3) = 0.2027

                     log10-error:    total        iterations:
           time      wfs    density  energy       fermi  poisson
iter:   1  16:15:27          +inf  -169.279684    3      5      
iter:   2  16:15:27         -1.53  -168.834125    2      2      
iter:   3  16:15:28         -1.90  -168.774100    2      2      
iter:   4  16:15:28         -2.06  -168.737635    2      2      
iter:   5  16:15:29         -2.25  -168.726767    2      2      
iter:   6  16:15:29         -2.37  -168.724801    2      2      
iter:   7  16:15:30         -2.51  -168.724369    2      2      
iter:   8  16:15:30         -2.62  -168.722598    2      2      
iter:   9  16:15:31         -2.78  -168.720895    2      2      
iter:  10  16:15:31         -3.10  -168.717711    2      1      
iter:  11  16:15:32         -3.23  -168.718498    2      1      
iter:  12  16:15:32         -3.35  -168.722729    2      1      
iter:  13  16:15:33         -3.60  -168.721648    2      1      
iter:  14  16:15:33         -3.68  -168.722602    2      1      
iter:  15  16:15:34         -3.76  -168.722899    2      1      
iter:  16  16:15:34         -3.92  -168.721314    2      1      
iter:  17  16:15:35         -4.08  -168.722675    2      1      

Converged after 17 iterations.

Dipole moment: (0.256066, 0.116811, 0.233888) |e|*Ang

Energy contributions relative to reference atoms: (reference = -24663.074771)

Kinetic:        +84.063702
Potential:      -96.523238
External:        +0.000000
XC:            -158.998357
Entropy (-ST):   -0.331518
Local:           +2.900978
--------------------------
Free energy:   -168.888434
Extrapolated:  -168.722675

Fermi level: -4.37878

 Band  Eigenvalues  Occupancy
    0    -23.31695    2.00000
    1    -21.73947    2.00000
    2    -21.35803    2.00000
    3    -20.34441    2.00000
    4    -20.08437    2.00000
    5    -19.81952    2.00000
    6    -19.51093    2.00000
    7    -19.19519    2.00000
    8    -18.71195    2.00000
    9    -17.81709    2.00000
   10    -17.46718    2.00000
   11    -17.05746    2.00000
   12    -16.09901    2.00000
   13    -15.61843    2.00000
   14    -15.26303    2.00000
   15    -14.92264    2.00000
   16    -13.92567    2.00000
   17    -13.32306    2.00000
   18    -13.05195    2.00000
   19    -12.57782    2.00000
   20    -11.88094    2.00000
   21    -11.32786    2.00000
   22    -11.06361    2.00000
   23    -10.71316    2.00000
   24    -10.38698    2.00000
   25    -10.34597    2.00000
   26     -9.79070    2.00000
   27     -9.55770    2.00000
   28     -9.27782    2.00000
   29     -8.96753    2.00000
   30     -8.69457    2.00000
   31     -8.52622    2.00000
   32     -8.34493    2.00000
   33     -8.32912    2.00000
   34     -7.82880    2.00000
   35     -7.56508    2.00000
   36     -7.36316    2.00000
   37     -7.34936    2.00000
   38     -6.91689    2.00000
   39     -6.71522    2.00000
   40     -6.61621    2.00000
   41     -6.30513    2.00000
   42     -6.02516    2.00000
   43     -5.78038    2.00000
   44     -5.49739    1.99997
   45     -5.14007    1.99901
   46     -4.74496    1.94992
   47     -4.42996    1.25046
   48     -4.31720    0.70151
   49     -4.05340    0.07439
   50     -3.93882    0.02427
   51     -3.54438    0.00048
   52     -2.87793    0.00000
   53     -2.61313    0.00000
   54     -2.21907    0.00000
   55     -2.08504    0.00000
   56     -1.73702    0.00000
   57     -1.30796    0.00000
   58     -1.08921    0.00000
   59     -0.94446    0.00000
   60     -0.80206    0.00000
   61     -0.49881    0.00000
   62     -0.13389    0.00000
   63      0.33961    0.00000
   64      0.38334    0.00000
   65      0.77935    0.00000
   66      0.98816    0.00000
   67      1.08958    0.00000
   68      1.75801    0.00000
   69      2.31231    0.00000
   70      3.43533    0.00000
   71      4.13922    0.00000
   72      4.81894    0.00000
   73      4.98785    0.00000
   74      5.59266    0.00000
   75      5.61530    0.00000
   76      5.86340    0.00000
   77      5.95919    0.00000
   78      7.44853    0.00000
   79      7.75532    0.00000
   80      7.82235    0.00000
   81      7.93301    0.00000
   82      8.18475    0.00000
   83      8.42653    0.00000
   84      8.62472    0.00000
   85      8.72939    0.00000
   86      8.84849    0.00000
   87      8.96803    0.00000
   88      9.17630    0.00000
   89      9.27132    0.00000
   90      9.36670    0.00000
   91      9.51073    0.00000
   92      9.55338    0.00000
   93      9.65362    0.00000
   94      9.80998    0.00000
   95      9.96699    0.00000
   96     10.08289    0.00000
   97     10.17087    0.00000


Forces in eV/Ang:
  0 C     1.79782    1.85294    0.12706
  1 C     1.36303    0.50946   -0.56126
  2 C    -5.77460   -7.18145    1.56412
  3 C    -6.38811   -2.80918    1.72202
  4 C     1.12477    1.02321    0.28909
  5 C     0.02235    0.40398    0.14857
  6 C     0.78780    0.12504   -0.18607
  7 C    -0.23204   -0.51651    0.73599
  8 C     0.50925   -0.52392   -0.33905
  9 C     1.15093   -0.61141    3.19668
 10 C     0.56576    3.69722    2.86473
 11 C    -0.25715   -0.96072   -1.60497
 12 C     2.30774   -0.92172    1.73766
 13 C    -1.48507    4.26335   -2.43936
 14 C    -0.92623    0.39005   -1.26433
 15 C     5.61720   -1.73821    1.82687
 16 C     3.51170    3.44247    0.62123
 17 C     1.51039   -0.45002    0.24005
 18 C     0.76585   -0.14576    0.30801
 19 C    -3.39699    2.01642    2.44398
 20 C    -3.96881    1.72433   -1.55296
 21 C     0.93923   -0.33982   -4.19883
 22 C     1.17495   -0.90088   -2.20074
 23 C    -0.74067   -2.42800   -3.34862

System changes: positions 

Initializing position-dependent things.

Density initialized from wave functions
           .--------------------------------------.  
          /|                                      |  
         / |                                      |  
        /  |                                      |  
       /   |                                      |  
      /    |                                      |  
     /     |                                      |  
    /      |                                      |  
   /       |              C  C  C                 |  
  /        |         C C         C                |  
 *         |  C   C        C  C                   |  
 |         |C    C   C  C         C C             |  
 |         .--C-------C-C-------------------------.  
 |        /               C        CC            /   
 |       /                  C   C               /    
 |      /                                      /     
 |     /                                      /      
 |    /                                      /       
 |   /                                      /        
 |  /                                      /         
 | /                                      /          
 |/                                      /           
 *--------------------------------------*            

Positions:
   0 C      4.583954    8.976338    5.661544
   1 C      4.759552    7.490020    5.562578
   2 C      6.302923   11.078311    5.081787
   3 C      7.499349    7.839209    5.115127
   4 C      9.312285    9.386777    5.507820
   5 C      3.222355    8.961758    5.075953
   6 C      9.722969   11.628389    5.225376
   7 C      3.576572    7.290081    4.767411
   8 C      2.335567    8.012815    4.678753
   9 C     12.432074    7.620218    3.534562
  10 C     11.138976    9.472832    4.323737
  11 C     10.297836   10.289634    5.155602
  12 C      6.942944    6.018107    5.461326
  13 C      5.771943    9.661766    5.667134
  14 C     12.267288    6.366368    4.073472
  15 C      9.845313    5.375884    4.032226
  16 C      7.230562   11.788881    5.501560
  17 C      8.207857    8.797688    5.701292
  18 C      8.545991   12.057341    5.371212
  19 C      9.011493    4.820111    4.900725
  20 C     11.428210    5.354935    4.180683
  21 C      7.985428    5.230438    5.815036
  22 C      6.190691    7.187060    5.551653
  23 C     12.239264    8.776444    4.363079

Unit cell:
           periodic     x           y           z      points  spacing
  1. axis:    yes   16.000000    0.000000    0.000000    80     0.2000
  2. axis:    yes    0.000000   16.000000    0.000000    80     0.2000
  3. axis:    yes    0.000000    0.000000   10.000000    48     0.2083

Effective grid spacing dv^(1/3) = 0.2027

                     log10-error:    total        iterations:
           time      wfs    density  energy       fermi  poisson
iter:   1  16:15:36          +inf  -170.890879    3      5      
iter:   2  16:15:37         -1.59  -170.586172    2      2      
iter:   3  16:15:37         -1.92  -170.531131    2      2      
iter:   4  16:15:38         -2.10  -170.499886    2      2      
iter:   5  16:15:38         -2.29  -170.491584    2      2      
iter:   6  16:15:39         -2.43  -170.489307    2      2      
iter:   7  16:15:39         -2.59  -170.489909    2      2      
iter:   8  16:15:40         -2.68  -170.488245    2      2      
iter:   9  16:15:40         -2.87  -170.487078    2      2      
iter:  10  16:15:41         -3.19  -170.485461    2      1      
iter:  11  16:15:41         -3.30  -170.485481    2      1      
iter:  12  16:15:42         -3.44  -170.488975    2      1      
iter:  13  16:15:42         -3.64  -170.489031    2      1      
iter:  14  16:15:43         -3.75  -170.489419    2      1      
iter:  15  16:15:43         -3.82  -170.489507    2      1      
iter:  16  16:15:44         -3.89  -170.488603    2      1      
iter:  17  16:15:44         -4.07  -170.488311    2      1      

Converged after 17 iterations.

Dipole moment: (0.269868, 0.083745, 0.221972) |e|*Ang

Energy contributions relative to reference atoms: (reference = -24663.074771)

Kinetic:        +83.741150
Potential:      -96.557159
External:        +0.000000
XC:            -160.445226
Entropy (-ST):   -0.301401
Local:           +2.923625
--------------------------
Free energy:   -170.639011
Extrapolated:  -170.488311

Fermi level: -4.31339

 Band  Eigenvalues  Occupancy
    0    -23.22255    2.00000
    1    -21.74730    2.00000
    2    -21.45400    2.00000
    3    -20.34625    2.00000
    4    -20.08403    2.00000
    5    -19.86431    2.00000
    6    -19.43495    2.00000
    7    -19.23598    2.00000
    8    -18.75465    2.00000
    9    -17.84238    2.00000
   10    -17.54730    2.00000
   11    -17.10636    2.00000
   12    -16.14468    2.00000
   13    -15.61163    2.00000
   14    -15.30433    2.00000
   15    -14.94594    2.00000
   16    -13.99069    2.00000
   17    -13.46495    2.00000
   18    -13.19195    2.00000
   19    -12.62306    2.00000
   20    -12.03876    2.00000
   21    -11.56563    2.00000
   22    -11.23792    2.00000
   23    -10.89446    2.00000
   24    -10.39944    2.00000
   25    -10.36637    2.00000
   26     -9.78062    2.00000
   27     -9.55296    2.00000
   28     -9.30878    2.00000
   29     -9.03802    2.00000
   30     -8.69512    2.00000
   31     -8.57148    2.00000
   32     -8.38197    2.00000
   33     -8.35475    2.00000
   34     -7.81961    2.00000
   35     -7.62148    2.00000
   36     -7.38258    2.00000
   37     -7.32663    2.00000
   38     -6.95599    2.00000
   39     -6.75919    2.00000
   40     -6.57193    2.00000
   41     -6.32392    2.00000
   42     -6.01722    2.00000
   43     -5.79448    2.00000
   44     -5.43404    1.99997
   45     -5.11256    1.99932
   46     -4.72818    1.96890
   47     -4.38578    1.34692
   48     -4.23206    0.61436
   49     -3.94899    0.05096
   50     -3.84829    0.01892
   51     -3.50901    0.00064
   52     -2.85764    0.00000
   53     -2.49846    0.00000
   54     -2.14470    0.00000
   55     -1.92973    0.00000
   56     -1.62774    0.00000
   57     -1.20788    0.00000
   58     -1.05406    0.00000
   59     -0.85875    0.00000
   60     -0.65956    0.00000
   61     -0.38032    0.00000
   62     -0.18624    0.00000
   63      0.37740    0.00000
   64      0.49538    0.00000
   65      0.91865    0.00000
   66      1.07337    0.00000
   67      1.19587    0.00000
   68      1.85479    0.00000
   69      2.50383    0.00000
   70      3.58613    0.00000
   71      4.25940    0.00000
   72      5.13805    0.00000
   73      5.16577    0.00000
   74      5.81058    0.00000
   75      5.96965    0.00000
   76      6.02831    0.00000
   77      6.29017    0.00000
   78      7.59567    0.00000
   79      7.78672    0.00000
   80      8.03446    0.00000
   81      8.11500    0.00000
   82      8.28014    0.00000
   83      8.49394    0.00000
   84      8.68562    0.00000
   85      8.79347    0.00000
   86      8.94404    0.00000
   87      9.08794    0.00000
   88      9.23108    0.00000
   89      9.37012    0.00000
   90      9.46019    0.00000
   91      9.50886    0.00000
   92      9.59656    0.00000
   93      9.72247    0.00000
   94      9.91738    0.00000
   95     10.01849    0.00000
   96     10.09802    0.00000
   97     10.17580    0.00000


Forces in eV/Ang:
  0 C     1.66368    1.54812   -0.02221
  1 C     1.12565    0.54658   -0.54322
  2 C    -4.38315   -6.34843    2.23416
  3 C    -5.49198   -2.06421    2.06385
  4 C     0.76789    0.74802    0.31296
  5 C     0.02405    0.33569    0.18474
  6 C     0.81279    0.13488   -0.21030
  7 C     0.01010   -0.43185    0.78559
  8 C     0.51340   -0.41281   -0.26567
  9 C     1.18634   -0.77155    2.76281
 10 C     0.98500    3.22831    2.47300
 11 C    -0.24559   -0.65117   -1.35437
 12 C     1.92051   -0.56118    1.51709
 13 C    -1.40348    4.34691   -2.50436
 14 C    -1.00768    0.27981   -1.12795
 15 C     5.23634   -1.80236    2.22873
 16 C     2.47279    2.55239    0.03161
 17 C     1.10134   -0.92639   -0.15376
 18 C     0.37750   -0.20898    0.24647
 19 C    -2.47944    1.87383    1.70468
 20 C    -3.98572    1.64281   -1.59568
 21 C     0.89014   -0.38719   -3.71889
 22 C     0.80643   -0.84356   -2.02776
 23 C    -0.95763   -1.90830   -2.97482

System changes: positions 

Initializing position-dependent things.

Density initialized from wave functions
           .--------------------------------------.  
          /|                                      |  
         / |                                      |  
        /  |                                      |  
       /   |                                      |  
      /    |                                      |  
     /     |                                      |  
    /      |                                      |  
   /       |              C  C  C                 |  
  /        |         C C         C                |  
 *         |  C   C        C  C                   |  
 |         |C    C   C  C         C C             |  
 |         .--C-------C-C-------------------------.  
 |        /               C        CC            /   
 |       /                  C   C               /    
 |      /                                      /     
 |     /                                      /      
 |    /                                      /       
 |   /                                      /        
 |  /                                      /         
 | /                                      /          
 |/                                      /           
 *--------------------------------------*            

Positions:
   0 C      4.593639    8.983898    5.660356
   1 C      4.765002    7.493884    5.559024
   2 C      6.292433   11.048079    5.105786
   3 C      7.469984    7.831402    5.131316
   4 C      9.314212    9.389330    5.510002
   5 C      3.222514    8.963402    5.077425
   6 C      9.728525   11.629468    5.223851
   7 C      3.578747    7.287889    4.773066
   8 C      2.338960    8.011025    4.677574
   9 C     12.439958    7.614159    3.549339
  10 C     11.148791    9.490189    4.336869
  11 C     10.296101   10.287892    5.148953
  12 C      6.952269    6.017290    5.469527
  13 C      5.763497    9.691377    5.650045
  14 C     12.259972    6.367105    4.067263
  15 C      9.876804    5.363497    4.049958
  16 C      7.229892   11.793290    5.493411
  17 C      8.212527    8.788189    5.697185
  18 C      8.546888   12.055605    5.372092
  19 C      9.002185    4.831463    4.906276
  20 C     11.402009    5.365090    4.169946
  21 C      7.991189    5.227351    5.794368
  22 C      6.193512    7.181999    5.539583
  23 C     12.231217    8.767916    4.346458

Unit cell:
           periodic     x           y           z      points  spacing
  1. axis:    yes   16.000000    0.000000    0.000000    80     0.2000
  2. axis:    yes    0.000000   16.000000    0.000000    80     0.2000
  3. axis:    yes    0.000000    0.000000   10.000000    48     0.2083

Effective grid spacing dv^(1/3) = 0.2027

                     log10-error:    total        iterations:
           time      wfs    density  energy       fermi  poisson
iter:   1  16:15:46          +inf  -172.337343    3      5      
iter:   2  16:15:46         -1.64  -172.112935    2      2      
iter:   3  16:15:47         -1.92  -172.054860    2      2      
iter:   4  16:15:47         -2.13  -172.026701    2      2      
iter:   5  16:15:48         -2.33  -172.021117    2      2      
iter:   6  16:15:48         -2.46  -172.018949    2      2      
iter:   7  16:15:49         -2.64  -172.019097    2      2      
iter:   8  16:15:49         -2.76  -172.016968    2      2      
iter:   9  16:15:50         -3.13  -172.013072    2      1      
iter:  10  16:15:50         -3.26  -172.016704    2      1      
iter:  11  16:15:51         -3.40  -172.019023    2      1      
iter:  12  16:15:51         -3.58  -172.018064    2      1      
iter:  13  16:15:52         -3.70  -172.019445    2      1      
iter:  14  16:15:52         -3.77  -172.019881    2      1      
iter:  15  16:15:53         -3.89  -172.018254    2      1      
iter:  16  16:15:53         -4.18  -172.018881    2      1      

Converged after 16 iterations.

Dipole moment: (0.269772, 0.055886, 0.208577) |e|*Ang

Energy contributions relative to reference atoms: (reference = -24663.074771)

Kinetic:        +84.751810
Potential:      -97.566333
External:        +0.000000
XC:            -162.010339
Entropy (-ST):   -0.270544
Local:           +2.941253
--------------------------
Free energy:   -172.154153
Extrapolated:  -172.018881

Fermi level: -4.26232

 Band  Eigenvalues  Occupancy
    0    -23.15598    2.00000
    1    -21.78574    2.00000
    2    -21.50606    2.00000
    3    -20.36374    2.00000
    4    -20.09791    2.00000
    5    -19.90829    2.00000
    6    -19.36213    2.00000
    7    -19.27181    2.00000
    8    -18.80040    2.00000
    9    -17.88063    2.00000
   10    -17.61158    2.00000
   11    -17.15379    2.00000
   12    -16.19308    2.00000
   13    -15.61635    2.00000
   14    -15.37342    2.00000
   15    -14.96290    2.00000
   16    -14.06369    2.00000
   17    -13.61356    2.00000
   18    -13.27005    2.00000
   19    -12.65960    2.00000
   20    -12.21667    2.00000
   21    -11.79302    2.00000
   22    -11.40095    2.00000
   23    -11.06003    2.00000
   24    -10.44694    2.00000
   25    -10.35683    2.00000
   26     -9.77339    2.00000
   27     -9.54714    2.00000
   28     -9.33773    2.00000
   29     -9.09665    2.00000
   30     -8.70566    2.00000
   31     -8.62450    2.00000
   32     -8.42230    2.00000
   33     -8.37442    2.00000
   34     -7.80469    2.00000
   35     -7.67781    2.00000
   36     -7.39795    2.00000
   37     -7.31048    2.00000
   38     -7.00884    2.00000
   39     -6.80180    2.00000
   40     -6.52981    2.00000
   41     -6.35359    2.00000
   42     -5.99058    2.00000
   43     -5.80054    2.00000
   44     -5.36664    1.99997
   45     -5.08769    1.99948
   46     -4.70927    1.97735
   47     -4.36002    1.45304
   48     -4.15860    0.52338
   49     -3.85435    0.03326
   50     -3.75728    0.01273
   51     -3.47712    0.00078
   52     -2.84949    0.00000
   53     -2.38424    0.00000
   54     -2.06849    0.00000
   55     -1.83895    0.00000
   56     -1.44747    0.00000
   57     -1.16290    0.00000
   58     -1.00601    0.00000
   59     -0.77298    0.00000
   60     -0.51849    0.00000
   61     -0.29908    0.00000
   62     -0.17715    0.00000
   63      0.42724    0.00000
   64      0.60331    0.00000
   65      1.05792    0.00000
   66      1.18023    0.00000
   67      1.30068    0.00000
   68      1.96341    0.00000
   69      2.68504    0.00000
   70      3.71861    0.00000
   71      4.37505    0.00000
   72      5.28102    0.00000
   73      5.30448    0.00000
   74      5.99126    0.00000
   75      6.11816    0.00000
   76      6.28044    0.00000
   77      6.86349    0.00000
   78      7.63486    0.00000
   79      7.84945    0.00000
   80      8.21514    0.00000
   81      8.23807    0.00000
   82      8.36715    0.00000
   83      8.58480    0.00000
   84      8.70344    0.00000
   85      8.87792    0.00000
   86      9.02350    0.00000
   87      9.19479    0.00000
   88      9.29920    0.00000
   89      9.45316    0.00000
   90      9.49110    0.00000
   91      9.62146    0.00000
   92      9.67654    0.00000
   93      9.78891    0.00000
   94      9.99871    0.00000
   95     10.09853    0.00000
   96     10.11215    0.00000
   97     10.18948    0.00000


Forces in eV/Ang:
  0 C     1.49769    1.26035   -0.12071
  1 C     0.89728    0.57282   -0.51498
  2 C    -3.14493   -5.40872    2.60138
  3 C    -4.57869   -1.61594    2.18995
  4 C     0.15596    0.33383    0.39681
  5 C     0.04695    0.29390    0.21459
  6 C     0.65231    0.23804   -0.21105
  7 C     0.17313   -0.33419    0.79465
  8 C     0.52919   -0.31960   -0.19558
  9 C     1.17384   -0.92144    2.43000
 10 C     1.38871    2.79185    2.12932
 11 C    -0.19801   -0.36079   -1.14737
 12 C     1.50976   -0.14982    1.30307
 13 C    -1.46935    4.20445   -2.46261
 14 C    -1.01958    0.18125   -1.01760
 15 C     4.74163   -1.79926    2.45237
 16 C     1.60339    1.82212   -0.34301
 17 C     1.09039   -1.00576   -0.40655
 18 C     0.26847   -0.33840    0.16434
 19 C    -1.70413    1.64210    1.12433
 20 C    -3.80961    1.56953   -1.61917
 21 C     0.87069   -0.42526   -3.25883
 22 C     0.43203   -0.88416   -1.81382
 23 C    -1.12497   -1.41454   -2.63519

System changes: positions 

Initializing position-dependent things.

Density initialized from wave functions
           .--------------------------------------.  
          /|                                      |  
         / |                                      |  
        /  |                                      |  
       /   |                                      |  
      /    |                                      |  
     /     |                                      |  
    /      |                                      |  
   /       |              C  C  C                 |  
  /        |         C C         C                |  
 *         |  C   C        C  C                   |  
 |         |C    C   C  C         C C             |  
 |         .--C-------C-C-------------------------.  
 |        /               C        CC            /   
 |       /                  C   C               /    
 |      /                                      /     
 |     /                                      /      
 |    /                                      /       
 |   /                                      /        
 |  /                                      /         
 | /                                      /          
 |/                                      /           
 *--------------------------------------*            

Positions:
   0 C      4.603446    8.990652    5.658343
   1 C      4.769806    7.498326    5.555599
   2 C      6.283744   11.018136    5.130844
   3 C      7.443034    7.822340    5.147983
   4 C      9.312327    9.389956    5.513211
   5 C      3.223035    8.965067    5.079292
   6 C      9.732690   11.631832    5.222125
   7 C      3.581541    7.286379    4.778989
   8 C      2.343076    8.009529    4.676840
   9 C     12.448765    7.605526    3.564075
  10 C     11.161616    9.507832    4.349424
  11 C     10.294116   10.286983    5.142683
  12 C      6.960378    6.019449    5.477316
  13 C      5.752189    9.722112    5.631850
  14 C     12.252174    6.367912    4.060699
  15 C      9.909237    5.350982    4.069349
  16 C      7.229317   11.797285    5.485544
  17 C      8.219731    8.780194    5.692748
  18 C      8.548019   12.052199    5.372462
  19 C      8.995981    4.840720    4.910120
  20 C     11.374464    5.375901    4.157587
  21 C      7.996956    5.224011    5.774469
  22 C      6.192727    7.175590    5.528125
  23 C     12.222447    8.761346    4.330183

Unit cell:
           periodic     x           y           z      points  spacing
  1. axis:    yes   16.000000    0.000000    0.000000    80     0.2000
  2. axis:    yes    0.000000   16.000000    0.000000    80     0.2000
  3. axis:    yes    0.000000    0.000000   10.000000    48     0.2083

Effective grid spacing dv^(1/3) = 0.2027

                     log10-error:    total        iterations:
           time      wfs    density  energy       fermi  poisson
iter:   1  16:15:55          +inf  -173.674462    3      5      
iter:   2  16:15:55         -1.68  -173.493564    2      2      
iter:   3  16:15:56         -1.92  -173.430734    2      2      
iter:   4  16:15:56         -2.15  -173.405390    2      2      
iter:   5  16:15:57         -2.34  -173.400614    2      2      
iter:   6  16:15:57         -2.46  -173.398410    2      2      
iter:   7  16:15:58         -2.65  -173.395670    2      2      
iter:   8  16:15:58         -2.99  -173.396501    2      1      
iter:   9  16:15:59         -3.13  -173.396203    1      1      
iter:  10  16:15:59         -3.25  -173.396611    2      1      
iter:  11  16:16:00         -3.47  -173.399054    2      1      
iter:  12  16:16:00         -3.62  -173.399952    2      1      
iter:  13  16:16:01         -3.61  -173.398198    2      1      
iter:  14  16:16:01         -3.88  -173.399010    2      1      
iter:  15  16:16:02         -3.94  -173.399961    2      1      
iter:  16  16:16:02         -4.02  -173.399233    2      1      

Converged after 16 iterations.

Dipole moment: (0.254935, 0.029857, 0.192435) |e|*Ang

Energy contributions relative to reference atoms: (reference = -24663.074771)

Kinetic:        +87.758974
Potential:     -100.099889
External:        +0.000000
XC:            -163.895351
Entropy (-ST):   -0.233080
Local:           +2.953573
--------------------------
Free energy:   -173.515773
Extrapolated:  -173.399233

Fermi level: -4.22763

 Band  Eigenvalues  Occupancy
    0    -23.11747    2.00000
    1    -21.85488    2.00000
    2    -21.49563    2.00000
    3    -20.39832    2.00000
    4    -20.11955    2.00000
    5    -19.94903    2.00000
    6    -19.32062    2.00000
    7    -19.28923    2.00000
    8    -18.85869    2.00000
    9    -17.93672    2.00000
   10    -17.65812    2.00000
   11    -17.20591    2.00000
   12    -16.24244    2.00000
   13    -15.62471    2.00000
   14    -15.46894    2.00000
   15    -14.97649    2.00000
   16    -14.13732    2.00000
   17    -13.75637    2.00000
   18    -13.32338    2.00000
   19    -12.69319    2.00000
   20    -12.39032    2.00000
   21    -12.00625    2.00000
   22    -11.54750    2.00000
   23    -11.20893    2.00000
   24    -10.50975    2.00000
   25    -10.35381    2.00000
   26     -9.76890    2.00000
   27     -9.54523    2.00000
   28     -9.36159    2.00000
   29     -9.14541    2.00000
   30     -8.72947    2.00000
   31     -8.68299    2.00000
   32     -8.46228    2.00000
   33     -8.38984    2.00000
   34     -7.78917    2.00000
   35     -7.72465    2.00000
   36     -7.41081    2.00000
   37     -7.30620    2.00000
   38     -7.07563    2.00000
   39     -6.84576    2.00000
   40     -6.50079    2.00000
   41     -6.39437    2.00000
   42     -5.95521    2.00000
   43     -5.80194    2.00000
   44     -5.29595    1.99995
   45     -5.07158    1.99957
   46     -4.69508    1.98151
   47     -4.35722    1.57031
   48     -4.09663    0.42497
   49     -3.74782    0.01636
   50     -3.65370    0.00641
   51     -3.45862    0.00091
   52     -2.83506    0.00000
   53     -2.25365    0.00000
   54     -1.97881    0.00000
   55     -1.76729    0.00000
   56     -1.23493    0.00000
   57     -1.14520    0.00000
   58     -0.93438    0.00000
   59     -0.66853    0.00000
   60     -0.37141    0.00000
   61     -0.27979    0.00000
   62     -0.05916    0.00000
   63      0.49566    0.00000
   64      0.71939    0.00000
   65      1.19980    0.00000
   66      1.33803    0.00000
   67      1.42357    0.00000
   68      2.09780    0.00000
   69      2.87743    0.00000
   70      3.84550    0.00000
   71      4.48527    0.00000
   72      5.33239    0.00000
   73      5.41109    0.00000
   74      6.08401    0.00000
   75      6.29955    0.00000
   76      6.49768    0.00000
   77      7.45240    0.00000
   78      7.64113    0.00000
   79      7.93768    0.00000
   80      8.30653    0.00000
   81      8.36011    0.00000
   82      8.44408    0.00000
   83      8.67346    0.00000
   84      8.72949    0.00000
   85      8.95989    0.00000
   86      9.08986    0.00000
   87      9.27423    0.00000
   88      9.37002    0.00000
   89      9.49663    0.00000
   90      9.54986    0.00000
   91      9.73638    0.00000
   92      9.78356    0.00000
   93      9.96285    0.00000
   94     10.04403    0.00000
   95     10.11009    0.00000
   96     10.22116    0.00000
   97     10.24703    0.00000


Forces in eV/Ang:
  0 C     1.23335    0.95160   -0.20879
  1 C     0.65686    0.56355   -0.47365
  2 C    -1.99567   -4.23775    2.67921
  3 C    -3.54648   -1.15571    2.26401
  4 C     0.09999    0.32007    0.36116
  5 C     0.07060    0.25521    0.23249
  6 C     0.72756    0.19974   -0.24483
  7 C     0.28994   -0.23328    0.79820
  8 C     0.52624   -0.23443   -0.13330
  9 C     1.11529   -0.95173    2.16894
 10 C     1.63611    2.41654    1.82190
 11 C    -0.24768   -0.20416   -0.92256
 12 C     1.24731    0.20070    1.08191
 13 C    -1.57287    3.81815   -2.24692
 14 C    -0.95132    0.08766   -0.94690
 15 C     3.99501   -1.77474    2.55684
 16 C     0.92957    1.19189   -0.58299
 17 C     0.56993   -1.39036   -0.59325
 18 C    -0.09354   -0.39184    0.12396
 19 C    -1.08521    1.39285    0.66509
 20 C    -3.36412    1.46135   -1.56782
 21 C     0.79087   -0.42193   -2.85882
 22 C     0.02694   -0.86715   -1.56833
 23 C    -1.12041   -1.01274   -2.35522

System changes: positions 

Initializing position-dependent things.

Density initialized from wave functions
           .--------------------------------------.  
          /|                                      |  
         / |                                      |  
        /  |                                      |  
       /   |                                      |  
      /    |                                      |  
     /     |                                      |  
    /      |                                      |  
   /       |              C  C  C                 |  
  /        |         C C         C                |  
 *         |  C   C        C  C                   |  
 |         |C    C   C  C         C C             |  
 |         .--C-------C-C-------------------------.  
 |        /               C        CC            /   
 |       /                   C  C               /    
 |      /                                      /     
 |     /                                      /      
 |    /                                      /       
 |   /                                      /        
 |  /                                      /         
 | /                                      /          
 |/                                      /           
 *--------------------------------------*            

Positions:
   0 C      4.612277    8.996216    5.655401
   1 C      4.773686    7.503188    5.552192
   2 C      6.277184   10.991196    5.155510
   3 C      7.419837    7.813024    5.166181
   4 C      9.313191    9.393425    5.516089
   5 C      3.223949    8.966823    5.081546
   6 C      9.738842   11.633773    5.219653
   7 C      3.584934    7.285569    4.785638
   8 C      2.347893    8.008300    4.676468
   9 C     12.458338    7.595496    3.580161
  10 C     11.176953    9.526762    4.362164
  11 C     10.290579   10.285661    5.137025
  12 C      6.969068    6.024463    5.484746
  13 C      5.737005    9.752601    5.613741
  14 C     12.244394    6.368541    4.053064
  15 C      9.940231    5.337515    4.090749
  16 C      7.230016   11.801242    5.478392
  17 C      8.222481    8.768169    5.687814
  18 C      8.545524   12.047842    5.372841
  19 C      8.991636    4.848341    4.913024
  20 C     11.347802    5.387494    4.143890
  21 C      8.002426    5.220606    5.753850
  22 C      6.187716    7.168239    5.517139
  23 C     12.214198    8.755851    4.312846

Unit cell:
           periodic     x           y           z      points  spacing
  1. axis:    yes   16.000000    0.000000    0.000000    80     0.2000
  2. axis:    yes    0.000000   16.000000    0.000000    80     0.2000
  3. axis:    yes    0.000000    0.000000   10.000000    48     0.2083

Effective grid spacing dv^(1/3) = 0.2027

                     log10-error:    total        iterations:
           time      wfs    density  energy       fermi  poisson
iter:   1  16:16:04          +inf  -174.824856    2      5      
iter:   2  16:16:04         -1.71  -174.671744    2      2      
iter:   3  16:16:05         -1.93  -174.608637    2      2      
iter:   4  16:16:05         -2.17  -174.586326    2      2      
iter:   5  16:16:06         -2.36  -174.578490    2      2      
iter:   6  16:16:06         -2.52  -174.578615    2      2      
iter:   7  16:16:07         -2.66  -174.579147    2      2      
iter:   8  16:16:07         -2.84  -174.579637    2      2      
iter:   9  16:16:08         -3.04  -174.579499    2      2      
iter:  10  16:16:08         -3.28  -174.577972    2      1      
iter:  11  16:16:09         -3.51  -174.580241    2      1      
iter:  12  16:16:09         -3.58  -174.581084    2      1      
iter:  13  16:16:10         -3.70  -174.578824    2      1      
iter:  14  16:16:10         -3.92  -174.580482    2      1      
iter:  15  16:16:11         -4.11  -174.580652    2      1      

Converged after 15 iterations.

Dipole moment: (0.236552, 0.008744, 0.173956) |e|*Ang

Energy contributions relative to reference atoms: (reference = -24663.074771)

Kinetic:        +92.441999
Potential:     -103.908253
External:        +0.000000
XC:            -166.003080
Entropy (-ST):   -0.201771
Local:           +2.989567
--------------------------
Free energy:   -174.681538
Extrapolated:  -174.580652

Fermi level: -4.20893

 Band  Eigenvalues  Occupancy
    0    -23.10553    2.00000
    1    -21.93851    2.00000
    2    -21.47402    2.00000
    3    -20.45456    2.00000
    4    -20.15944    2.00000
    5    -19.98976    2.00000
    6    -19.36470    2.00000
    7    -19.23002    2.00000
    8    -18.91557    2.00000
    9    -18.00013    2.00000
   10    -17.70468    2.00000
   11    -17.24582    2.00000
   12    -16.30857    2.00000
   13    -15.64885    2.00000
   14    -15.56879    2.00000
   15    -15.00062    2.00000
   16    -14.20712    2.00000
   17    -13.88933    2.00000
   18    -13.37956    2.00000
   19    -12.78789    2.00000
   20    -12.49765    2.00000
   21    -12.20162    2.00000
   22    -11.67868    2.00000
   23    -11.34842    2.00000
   24    -10.57730    2.00000
   25    -10.36001    2.00000
   26     -9.77830    2.00000
   27     -9.54681    2.00000
   28     -9.38435    2.00000
   29     -9.19005    2.00000
   30     -8.77139    2.00000
   31     -8.74628    2.00000
   32     -8.50535    2.00000
   33     -8.41026    2.00000
   34     -7.80140    2.00000
   35     -7.74995    2.00000
   36     -7.41110    2.00000
   37     -7.30954    2.00000
   38     -7.14179    2.00000
   39     -6.88696    2.00000
   40     -6.49234    2.00000
   41     -6.41686    2.00000
   42     -5.91936    2.00000
   43     -5.79195    2.00000
   44     -5.22841    1.99993
   45     -5.05664    1.99958
   46     -4.67942    1.98206
   47     -4.36758    1.66024
   48     -4.05299    0.34747
   49     -3.64564    0.00713
   50     -3.55016    0.00275
   51     -3.43153    0.00084
   52     -2.80061    0.00000
   53     -2.13449    0.00000
   54     -1.88468    0.00000
   55     -1.68169    0.00000
   56     -1.16341    0.00000
   57     -1.00808    0.00000
   58     -0.86653    0.00000
   59     -0.55065    0.00000
   60     -0.26684    0.00000
   61     -0.22519    0.00000
   62      0.09907    0.00000
   63      0.58444    0.00000
   64      0.85966    0.00000
   65      1.31372    0.00000
   66      1.52030    0.00000
   67      1.60092    0.00000
   68      2.24361    0.00000
   69      3.05720    0.00000
   70      3.96909    0.00000
   71      4.60222    0.00000
   72      5.34015    0.00000
   73      5.50416    0.00000
   74      6.13558    0.00000
   75      6.44569    0.00000
   76      6.64002    0.00000
   77      7.60727    0.00000
   78      7.95538    0.00000
   79      8.02802    0.00000
   80      8.33443    0.00000
   81      8.45856    0.00000
   82      8.53461    0.00000
   83      8.70080    0.00000
   84      8.81503    0.00000
   85      9.02624    0.00000
   86      9.13717    0.00000
   87      9.28687    0.00000
   88      9.42954    0.00000
   89      9.58704    0.00000
   90      9.61034    0.00000
   91      9.76512    0.00000
   92      9.92111    0.00000
   93     10.07056    0.00000
   94     10.10284    0.00000
   95     10.19932    0.00000
   96     10.29363    0.00000
   97     10.36996    0.00000


Forces in eV/Ang:
  0 C     0.87502    0.63573   -0.27259
  1 C     0.44554    0.53434   -0.41684
  2 C    -0.90326   -2.89153    2.50938
  3 C    -2.63449   -0.93054    2.20895
  4 C    -0.56148   -0.13530    0.41735
  5 C     0.07875    0.23111    0.22062
  6 C     0.50884    0.31730   -0.21549
  7 C     0.31389   -0.14439    0.76280
  8 C     0.53060   -0.15762   -0.06525
  9 C     1.02095   -0.86465    1.87783
 10 C     1.87618    1.99783    1.49834
 11 C    -0.18903    0.04318   -0.75522
 12 C     1.00778    0.52819    0.88273
 13 C    -1.71278    3.18849   -1.91262
 14 C    -0.79781   -0.03138   -0.85553
 15 C     2.97430   -1.76232    2.52305
 16 C     0.29443    0.64889   -0.70541
 17 C     0.73507   -1.23843   -0.75121
 18 C    -0.00891   -0.51188    0.04700
 19 C    -0.54046    1.11022    0.25898
 20 C    -2.52969    1.28337   -1.45309
 21 C     0.61600   -0.37109   -2.39672
 22 C    -0.28946   -0.90411   -1.27986
 23 C    -1.12908   -0.61450   -2.04975

System changes: positions 

Initializing position-dependent things.

Density initialized from wave functions
           .--------------------------------------.  
          /|                                      |  
         / |                                      |  
        /  |                                      |  
       /   |                                      |  
      /    |                                      |  
     /     |                                      |  
    /      |                                      |  
   /       |              C  C  C                 |  
  /        |         C C         C                |  
 *         |  C   C        C  C                   |  
 |         |C    C   C  C         C C             |  
 |         .--C-------C-C-------------------------.  
 |        /               C        CC            /   
 |       /                   C  C               /    
 |      /                                      /     
 |     /                                      /      
 |    /                                      /       
 |   /                                      /        
 |  /                                      /         
 | /                                      /          
 |/                                      /           
 *--------------------------------------*            

Positions:
   0 C      4.619295    9.000678    5.651532
   1 C      4.777156    7.508608    5.548732
   2 C      6.272831   10.968673    5.178809
   3 C      7.397644    7.800164    5.186075
   4 C      9.307832    9.393390    5.520199
   5 C      3.225102    8.968991    5.083962
   6 C      9.743423   11.637644    5.217114
   7 C      3.588049    7.285265    4.793081
   8 C      2.353909    8.007195    4.676552
   9 C     12.468958    7.584982    3.598242
  10 C     11.196440    9.547484    4.375660
  11 C     10.286830   10.285454    5.130830
  12 C      6.979163    6.032717    5.492588
  13 C      5.716164    9.781763    5.595986
  14 C     12.237204    6.368514    4.044098
  15 C      9.967647    5.321520    4.114453
  16 C      7.231540   11.805885    5.472456
  17 C      8.230284    8.758071    5.681870
  18 C      8.545200   12.041203    5.372710
  19 C      8.988479    4.854567    4.915291
  20 C     11.325739    5.399767    4.128644
  21 C      8.006643    5.217508    5.731976
  22 C      6.179131    7.158580    5.506445
  23 C     12.205313    8.751355    4.293560

Unit cell:
           periodic     x           y           z      points  spacing
  1. axis:    yes   16.000000    0.000000    0.000000    80     0.2000
  2. axis:    yes    0.000000   16.000000    0.000000    80     0.2000
  3. axis:    yes    0.000000    0.000000   10.000000    48     0.2083

Effective grid spacing dv^(1/3) = 0.2027

                     log10-error:    total        iterations:
           time      wfs    density  energy       fermi  poisson
iter:   1  16:16:12          +inf  -175.731667    3      5      
iter:   2  16:16:13         -1.77  -175.622812    2      2      
iter:   3  16:16:14         -1.98  -175.574211    3      2      
iter:   4  16:16:14         -2.23  -175.559536    3      2      
iter:   5  16:16:15         -2.39  -175.547185    2      2      
iter:   6  16:16:15         -2.57  -175.554926    2      2      
iter:   7  16:16:16         -2.74  -175.553434    2      2      
iter:   8  16:16:16         -2.98  -175.552620    2      2      
iter:   9  16:16:17         -3.18  -175.549757    2      1      
iter:  10  16:16:17         -3.31  -175.551150    2      1      
iter:  11  16:16:18         -3.56  -175.553753    2      1      
iter:  12  16:16:18         -3.61  -175.553036    2      1      
iter:  13  16:16:19         -3.72  -175.552892    2      1      
iter:  14  16:16:19         -3.88  -175.553449    1      1      
iter:  15  16:16:19         -4.03  -175.554339    2      1      

Converged after 15 iterations.

Dipole moment: (0.209351, -0.011384, 0.155008) |e|*Ang

Energy contributions relative to reference atoms: (reference = -24663.074771)

Kinetic:        +99.426865
Potential:     -109.427589
External:        +0.000000
XC:            -168.471261
Entropy (-ST):   -0.175087
Local:           +3.005191
--------------------------
Free energy:   -175.641883
Extrapolated:  -175.554339

Fermi level: -4.20919

 Band  Eigenvalues  Occupancy
    0    -23.12444    2.00000
    1    -22.04900    2.00000
    2    -21.40667    2.00000
    3    -20.51670    2.00000
    4    -20.20452    2.00000
    5    -20.02766    2.00000
    6    -19.41403    2.00000
    7    -19.19254    2.00000
    8    -18.96582    2.00000
    9    -18.06824    2.00000
   10    -17.74948    2.00000
   11    -17.27720    2.00000
   12    -16.38112    2.00000
   13    -15.71557    2.00000
   14    -15.62732    2.00000
   15    -15.03015    2.00000
   16    -14.27116    2.00000
   17    -14.00822    2.00000
   18    -13.43475    2.00000
   19    -12.92661    2.00000
   20    -12.52467    2.00000
   21    -12.35199    2.00000
   22    -11.80212    2.00000
   23    -11.47373    2.00000
   24    -10.65681    2.00000
   25    -10.38584    2.00000
   26     -9.80339    2.00000
   27     -9.55063    2.00000
   28     -9.40633    2.00000
   29     -9.23349    2.00000
   30     -8.82201    2.00000
   31     -8.80550    2.00000
   32     -8.54127    2.00000
   33     -8.43600    2.00000
   34     -7.83997    2.00000
   35     -7.74897    2.00000
   36     -7.40756    2.00000
   37     -7.32586    2.00000
   38     -7.20499    2.00000
   39     -6.92393    2.00000
   40     -6.52751    2.00000
   41     -6.41644    2.00000
   42     -5.90281    2.00000
   43     -5.77266    2.00000
   44     -5.16915    1.99986
   45     -5.05004    1.99955
   46     -4.67210    1.98066
   47     -4.39613    1.73277
   48     -4.02879    0.28273
   49     -3.55961    0.00301
   50     -3.45194    0.00103
   51     -3.35113    0.00038
   52     -2.75159    0.00000
   53     -2.00908    0.00000
   54     -1.78566    0.00000
   55     -1.57410    0.00000
   56     -1.16722    0.00000
   57     -0.84565    0.00000
   58     -0.76643    0.00000
   59     -0.36353    0.00000
   60     -0.21508    0.00000
   61     -0.05940    0.00000
   62      0.27411    0.00000
   63      0.69209    0.00000
   64      1.04050    0.00000
   65      1.44747    0.00000
   66      1.69251    0.00000
   67      1.88716    0.00000
   68      2.42270    0.00000
   69      3.25618    0.00000
   70      4.09383    0.00000
   71      4.73488    0.00000
   72      5.33844    0.00000
   73      5.57278    0.00000
   74      6.20648    0.00000
   75      6.54932    0.00000
   76      6.68252    0.00000
   77      7.61313    0.00000
   78      8.10092    0.00000
   79      8.29952    0.00000
   80      8.32970    0.00000
   81      8.52542    0.00000
   82      8.62376    0.00000
   83      8.72230    0.00000
   84      8.91612    0.00000
   85      9.07748    0.00000
   86      9.15988    0.00000
   87      9.27440    0.00000
   88      9.46148    0.00000
   89      9.64439    0.00000
   90      9.70281    0.00000
   91      9.79157    0.00000
   92     10.02253    0.00000
   93     10.09081    0.00000
   94     10.13179    0.00000
   95     10.26452    0.00000
   96     10.40868    0.00000
   97     10.42816    0.00000


Forces in eV/Ang:
  0 C     0.41707    0.30937   -0.30878
  1 C     0.21359    0.49983   -0.36297
  2 C     0.16563   -1.36489    2.15709
  3 C    -1.60129   -0.60881    2.22245
  4 C    -0.26242    0.05061    0.25381
  5 C     0.08370    0.19513    0.18800
  6 C     0.61746    0.21396   -0.23191
  7 C     0.29931   -0.08776    0.73077
  8 C     0.50442   -0.10192   -0.01506
  9 C     0.92848   -0.61253    1.58054
 10 C     1.93883    1.68247    1.24744
 11 C    -0.28763    0.11998   -0.55936
 12 C     0.84990    0.78865    0.69351
 13 C    -1.79675    2.37698   -1.46626
 14 C    -0.59164   -0.19678   -0.72384
 15 C     1.74742   -1.72764    2.33339
 16 C    -0.19425    0.19722   -0.76186
 17 C    -0.01916   -1.65926   -0.79904
 18 C    -0.26653   -0.50409    0.02617
 19 C    -0.00739    0.78780   -0.10909
 20 C    -1.48792    1.07060   -1.29587
 21 C     0.32766   -0.31512   -1.88199
 22 C    -0.59736   -0.84559   -1.01163
 23 C    -1.01618   -0.28400   -1.76091

System changes: positions 

Initializing position-dependent things.

Density initialized from wave functions
           .--------------------------------------.  
          /|                                      |  
         / |                                      |  
        /  |                                      |  
       /   |                                      |  
[...]

Kinetic:       +100.919318
Potential:     -111.092949
External:        +0.000000
XC:            -173.872267
Entropy (-ST):   -0.076994
Local:           +3.062760
--------------------------
Free energy:   -181.060131
Extrapolated:  -181.021634

Fermi level: -4.34745

 Band  Eigenvalues  Occupancy
    0    -23.31320    2.00000
    1    -22.95716    2.00000
    2    -21.00624    2.00000
    3    -20.34638    2.00000
    4    -20.19674    2.00000
    5    -19.78231    2.00000
    6    -19.38912    2.00000
    7    -19.01173    2.00000
    8    -18.81182    2.00000
    9    -18.18249    2.00000
   10    -18.01618    2.00000
   11    -17.39610    2.00000
   12    -16.74208    2.00000
   13    -16.09140    2.00000
   14    -15.66399    2.00000
   15    -15.36061    2.00000
   16    -14.54706    2.00000
   17    -14.46498    2.00000
   18    -13.87260    2.00000
   19    -13.44175    2.00000
   20    -13.03109    2.00000
   21    -12.37233    2.00000
   22    -12.14105    2.00000
   23    -11.74686    2.00000
   24    -10.76425    2.00000
   25    -10.44569    2.00000
   26     -9.88389    2.00000
   27     -9.69704    2.00000
   28     -9.34203    2.00000
   29     -9.28402    2.00000
   30     -8.92602    2.00000
   31     -8.91893    2.00000
   32     -8.74294    2.00000
   33     -8.58232    2.00000
   34     -7.96248    2.00000
   35     -7.90875    2.00000
   36     -7.57582    2.00000
   37     -7.25349    2.00000
   38     -7.13121    2.00000
   39     -7.04876    2.00000
   40     -6.60294    2.00000
   41     -6.45864    2.00000
   42     -6.19281    2.00000
   43     -5.60231    1.99999
   44     -5.08863    1.99879
   45     -4.95557    1.99544
   46     -4.82663    1.98354
   47     -4.69035    1.93720
   48     -4.03584    0.08489
   49     -3.38990    0.00014
   50     -3.07750    0.00001
   51     -2.73567    0.00000
   52     -1.89724    0.00000
   53     -1.71333    0.00000
   54     -1.39447    0.00000
   55     -1.10238    0.00000
   56     -1.00582    0.00000
   57     -0.49893    0.00000
   58     -0.24040    0.00000
   59     -0.00434    0.00000
   60      0.46446    0.00000
   61      0.57079    0.00000
   62      1.10218    0.00000
   63      1.57836    0.00000
   64      2.30017    0.00000
   65      2.42623    0.00000
   66      2.87504    0.00000
   67      3.83604    0.00000
   68      4.28291    0.00000
   69      4.43223    0.00000
   70      5.07934    0.00000
   71      5.32574    0.00000
   72      5.71329    0.00000
   73      6.10942    0.00000
   74      6.67001    0.00000
   75      6.86101    0.00000
   76      7.29974    0.00000
   77      7.47953    0.00000
   78      7.91926    0.00000
   79      8.12004    0.00000
   80      8.20935    0.00000
   81      8.36669    0.00000
   82      8.58018    0.00000
   83      8.74409    0.00000
   84      8.80856    0.00000
   85      8.90177    0.00000
   86      8.95098    0.00000
   87      9.03855    0.00000
   88      9.45550    0.00000
   89      9.55916    0.00000
   90      9.60113    0.00000
   91      9.62345    0.00000
   92      9.77423    0.00000
   93      9.97995    0.00000
   94     10.00401    0.00000
   95     10.14996    0.00000
   96     10.30694    0.00000
   97     10.38347    0.00000


Forces in eV/Ang:
  0 C    -0.03421   -0.01365    0.08175
  1 C    -0.01965   -0.03462   -0.01682
  2 C     0.01322   -0.04281   -0.03222
  3 C     0.08335   -0.08280    0.06228
  4 C    -0.08342   -0.06550   -0.00636
  5 C    -0.00505    0.00926    0.04834
  6 C     0.03141    0.02624   -0.02522
  7 C    -0.03357   -0.00727    0.00272
  8 C    -0.01663   -0.01865    0.00790
  9 C     0.00330   -0.01444    0.02634
 10 C     0.01548    0.03304    0.06401
 11 C    -0.03954   -0.00796    0.02406
 12 C     0.01113    0.01318   -0.02418
 13 C    -0.02861    0.03266   -0.01991
 14 C     0.03657   -0.02695   -0.02138
 15 C    -0.05174   -0.05456    0.00217
 16 C     0.03696   -0.02598   -0.01907
 17 C     0.02692    0.01611   -0.01269
 18 C     0.02592   -0.01858   -0.02391
 19 C     0.01300    0.02062    0.00196
 20 C    -0.06236   -0.00810    0.05178
 21 C     0.01612    0.06889   -0.02523
 22 C    -0.00556    0.01684   -0.07452
 23 C     0.01863    0.11496    0.03177

System changes: positions 

Initializing position-dependent things.

Density initialized from wave functions
           .--------------------------------------.  
          /|                                      |  
         / |                                      |  
        /  |                                      |  
       /   |                                      |  
      /    |                                      |  
     /     |                                      |  
    /      |                                      |  
   /       |           C  C  C                    |  
  /        |        C           CC                |  
 *         |     C      C  C  C     C             |  
 |         C  C   C C               C             |  
 |         .----------C---------------------------.  
 |        /            C  C        CC            /   
 |       /                   C  C               /    
 |      /                                      /     
 |     /                                      /      
 |    /                                      /       
 |   /                                      /        
 |  /                                      /         
 | /                                      /          
 |/                                      /           
 *--------------------------------------*            

Positions:
   0 C      4.361651    9.223530    5.353106
   1 C      4.823669    7.774217    5.454020
   2 C      6.104930   11.151585    5.570612
   3 C      7.487492    7.658217    5.642313
   4 C      9.481433    9.321190    5.372895
   5 C      3.000561    8.837674    4.967901
   6 C      9.722254   11.587189    5.147970
   7 C      3.587450    7.185213    5.093012
   8 C      2.312767    7.664673    4.807535
   9 C     12.513520    7.548589    3.910555
  10 C     11.644769    9.896890    4.520030
  11 C     10.404664   10.344523    5.033911
  12 C      7.148577    6.284746    5.461013
  13 C      5.097223   10.340131    5.452340
  14 C     12.186603    6.317863    3.907803
  15 C     10.272391    4.702277    4.370199
  16 C      7.196936   11.853897    5.495294
  17 C      8.491679    8.587760    5.590402
  18 C      8.510091   11.931906    5.411128
  19 C      8.990735    4.736693    4.761325
  20 C     11.355515    5.278251    4.024277
  21 C      7.849534    5.131356    5.159714
  22 C      6.121162    7.273580    5.568975
  23 C     12.253179    8.831638    4.202442

Unit cell:
           periodic     x           y           z      points  spacing
  1. axis:    yes   16.000000    0.000000    0.000000    80     0.2000
  2. axis:    yes    0.000000   16.000000    0.000000    80     0.2000
  3. axis:    yes    0.000000    0.000000   10.000000    48     0.2083

Effective grid spacing dv^(1/3) = 0.2027

                     log10-error:    total        iterations:
           time      wfs    density  energy       fermi  poisson
iter:   1  16:21:04          +inf  -181.023813    2      4      
iter:   2  16:21:04         -2.82  -181.023446    2      1      
iter:   3  16:21:04         -3.10  -181.023284    2      1      
iter:   4  16:21:05         -3.21  -181.022720    2      1      
iter:   5  16:21:05         -3.34  -181.024979    2      1      
iter:   6  16:21:06         -2.94  -181.023509    2      1      
iter:   7  16:21:06         -3.36  -181.023013    2      1      
iter:   8  16:21:07         -2.90  -181.023653    2      1      
iter:   9  16:21:07         -4.26  -181.023557    2      1      

Converged after 9 iterations.

Dipole moment: (0.198495, 0.023025, 0.072001) |e|*Ang

Energy contributions relative to reference atoms: (reference = -24663.074771)

Kinetic:       +100.980956
Potential:     -111.138602
External:        +0.000000
XC:            -173.889334
Entropy (-ST):   -0.077435
Local:           +3.062141
--------------------------
Free energy:   -181.062274
Extrapolated:  -181.023557

Fermi level: -4.34842

 Band  Eigenvalues  Occupancy
    0    -23.31021    2.00000
    1    -22.95444    2.00000
    2    -21.00914    2.00000
    3    -20.34582    2.00000
    4    -20.19306    2.00000
    5    -19.78182    2.00000
    6    -19.38593    2.00000
    7    -19.01214    2.00000
    8    -18.80782    2.00000
    9    -18.18044    2.00000
   10    -18.01660    2.00000
   11    -17.39774    2.00000
   12    -16.74159    2.00000
   13    -16.09180    2.00000
   14    -15.66141    2.00000
   15    -15.35744    2.00000
   16    -14.54597    2.00000
   17    -14.46324    2.00000
   18    -13.87231    2.00000
   19    -13.43931    2.00000
   20    -13.03037    2.00000
   21    -12.37780    2.00000
   22    -12.14782    2.00000
   23    -11.74998    2.00000
   24    -10.76641    2.00000
   25    -10.44209    2.00000
   26     -9.88964    2.00000
   27     -9.69645    2.00000
   28     -9.33631    2.00000
   29     -9.27697    2.00000
   30     -8.92746    2.00000
   31     -8.92025    2.00000
   32     -8.73985    2.00000
   33     -8.58037    2.00000
   34     -7.96423    2.00000
   35     -7.90806    2.00000
   36     -7.57173    2.00000
   37     -7.25105    2.00000
   38     -7.13182    2.00000
   39     -7.04592    2.00000
   40     -6.60555    2.00000
   41     -6.45769    2.00000
   42     -6.19259    2.00000
   43     -5.60316    1.99999
   44     -5.09152    1.99882
   45     -4.95725    1.99547
   46     -4.82501    1.98311
   47     -4.69092    1.93696
   48     -4.03755    0.08550
   49     -3.39258    0.00014
   50     -3.07041    0.00001
   51     -2.73252    0.00000
   52     -1.89500    0.00000
   53     -1.72440    0.00000
   54     -1.39762    0.00000
   55     -1.10131    0.00000
   56     -1.00809    0.00000
   57     -0.49704    0.00000
   58     -0.24616    0.00000
   59     -0.00292    0.00000
   60      0.46796    0.00000
   61      0.57570    0.00000
   62      1.10497    0.00000
   63      1.58129    0.00000
   64      2.30242    0.00000
   65      2.41887    0.00000
   66      2.86682    0.00000
   67      3.84631    0.00000
   68      4.29460    0.00000
   69      4.43358    0.00000
   70      5.08526    0.00000
   71      5.32665    0.00000
   72      5.71418    0.00000
   73      6.12388    0.00000
   74      6.66399    0.00000
   75      6.86656    0.00000
   76      7.29187    0.00000
   77      7.47706    0.00000
   78      7.93636    0.00000
   79      8.12069    0.00000
   80      8.21323    0.00000
   81      8.37312    0.00000
   82      8.57426    0.00000
   83      8.74554    0.00000
   84      8.80739    0.00000
   85      8.89688    0.00000
   86      8.95114    0.00000
   87      9.04407    0.00000
   88      9.45836    0.00000
   89      9.55632    0.00000
   90      9.59821    0.00000
   91      9.62431    0.00000
   92      9.77991    0.00000
   93      9.98088    0.00000
   94     10.01091    0.00000
   95     10.14945    0.00000
   96     10.30416    0.00000
   97     10.38503    0.00000


Forces in eV/Ang:
  0 C    -0.00810    0.02512    0.08044
  1 C     0.03555   -0.05986   -0.01849
  2 C     0.05126   -0.00989   -0.03814
  3 C     0.04536   -0.00529    0.01186
  4 C    -0.08540   -0.06589   -0.00887
  5 C    -0.04213   -0.02684    0.03502
  6 C     0.01372    0.04058   -0.02744
  7 C    -0.02446    0.00931   -0.01198
  8 C    -0.03394   -0.01280    0.01760
  9 C     0.01331    0.00879    0.02064
 10 C    -0.00653    0.07000    0.06809
 11 C    -0.04038   -0.01194    0.02716
 12 C    -0.00326   -0.00670   -0.01643
 13 C    -0.02556    0.00638   -0.00973
 14 C     0.04153   -0.01761   -0.01991
 15 C    -0.06311   -0.06183    0.00556
 16 C     0.01464   -0.03737   -0.01582
 17 C     0.01750   -0.00283   -0.00216
 18 C     0.01823   -0.02938   -0.02237
 19 C    -0.00172    0.02269    0.00605
 20 C    -0.05744   -0.02001    0.04485
 21 C     0.01613    0.05144   -0.03444
 22 C     0.03324    0.00881   -0.00842
 23 C     0.03399    0.04270    0.01574

System changes: positions 

Initializing position-dependent things.

Density initialized from wave functions
           .--------------------------------------.  
          /|                                      |  
         / |                                      |  
        /  |                                      |  
       /   |                                      |  
      /    |                                      |  
     /     |                                      |  
    /      |                                      |  
   /       |           C  C  C                    |  
  /        |        C           CC                |  
 *         |     C      C  C  C     C             |  
 |         C  C   C C               C             |  
 |         .----------C---------------------------.  
 |        /            C  C        CC            /   
 |       /                   C  C               /    
 |      /                                      /     
 |     /                                      /      
 |    /                                      /       
 |   /                                      /        
 |  /                                      /         
 | /                                      /          
 |/                                      /           
 *--------------------------------------*            

Positions:
   0 C      4.360432    9.223486    5.358530
   1 C      4.821516    7.772330    5.453817
   2 C      6.108489   11.147570    5.568287
   3 C      7.487823    7.652910    5.649212
   4 C      9.476056    9.321062    5.368874
   5 C      3.000382    8.840544    4.969809
   6 C      9.726234   11.590095    5.149154
   7 C      3.583505    7.185934    5.089279
   8 C      2.310579    7.669470    4.807715
   9 C     12.511980    7.550929    3.913586
  10 C     11.643608    9.896883    4.524776
  11 C     10.401679   10.344201    5.034073
  12 C      7.148572    6.282532    5.462288
  13 C      5.096985   10.340314    5.452164
  14 C     12.188073    6.319287    3.901705
  15 C     10.273898    4.699276    4.370772
  16 C      7.199891   11.851878    5.491169
  17 C      8.489386    8.585481    5.590889
  18 C      8.512484   11.931711    5.409155
  19 C      8.993240    4.736515    4.764831
  20 C     11.353683    5.281284    4.025227
  21 C      7.851063    5.129342    5.160697
  22 C      6.119370    7.271355    5.565670
  23 C     12.257967    8.836683    4.203141

Unit cell:
           periodic     x           y           z      points  spacing
  1. axis:    yes   16.000000    0.000000    0.000000    80     0.2000
  2. axis:    yes    0.000000   16.000000    0.000000    80     0.2000
  3. axis:    yes    0.000000    0.000000   10.000000    48     0.2083

Effective grid spacing dv^(1/3) = 0.2027

                     log10-error:    total        iterations:
           time      wfs    density  energy       fermi  poisson
iter:   1  16:21:09          +inf  -181.026319    2      4      
iter:   2  16:21:09         -2.77  -181.025862    2      1      
iter:   3  16:21:10         -3.03  -181.025522    2      1      
iter:   4  16:21:10         -3.11  -181.024977    2      1      
iter:   5  16:21:11         -3.25  -181.028337    2      1      
iter:   6  16:21:11         -2.85  -181.024551    2      1      
iter:   7  16:21:12         -3.47  -181.024506    2      1      
iter:   8  16:21:12         -2.93  -181.025675    2      1      
iter:   9  16:21:13         -4.11  -181.025044    2      1      

Converged after 9 iterations.

Dipole moment: (0.199847, 0.023954, 0.069785) |e|*Ang

Energy contributions relative to reference atoms: (reference = -24663.074771)

Kinetic:       +100.762170
Potential:     -110.966119
External:        +0.000000
XC:            -173.838520
Entropy (-ST):   -0.078079
Local:           +3.056465
--------------------------
Free energy:   -181.064083
Extrapolated:  -181.025044

Fermi level: -4.34949

 Band  Eigenvalues  Occupancy
    0    -23.30922    2.00000
    1    -22.95547    2.00000
    2    -21.00871    2.00000
    3    -20.34093    2.00000
    4    -20.18806    2.00000
    5    -19.78054    2.00000
    6    -19.38333    2.00000
    7    -19.00949    2.00000
    8    -18.80872    2.00000
    9    -18.17752    2.00000
   10    -18.01790    2.00000
   11    -17.39790    2.00000
   12    -16.73682    2.00000
   13    -16.08871    2.00000
   14    -15.66170    2.00000
   15    -15.35510    2.00000
   16    -14.54387    2.00000
   17    -14.46289    2.00000
   18    -13.87197    2.00000
   19    -13.43627    2.00000
   20    -13.02573    2.00000
   21    -12.38483    2.00000
   22    -12.14607    2.00000
   23    -11.74686    2.00000
   24    -10.77441    2.00000
   25    -10.44020    2.00000
   26     -9.89798    2.00000
   27     -9.69809    2.00000
   28     -9.33168    2.00000
   29     -9.26808    2.00000
   30     -8.92420    2.00000
   31     -8.91681    2.00000
   32     -8.73532    2.00000
   33     -8.57768    2.00000
   34     -7.96530    2.00000
   35     -7.90697    2.00000
   36     -7.57709    2.00000
   37     -7.25013    2.00000
   38     -7.13079    2.00000
   39     -7.03991    2.00000
   40     -6.60611    2.00000
   41     -6.46099    2.00000
   42     -6.19485    2.00000
   43     -5.60431    1.99999
   44     -5.09603    1.99886
   45     -4.95909    1.99551
   46     -4.82635    1.98316
   47     -4.69012    1.93580
   48     -4.03988    0.08654
   49     -3.39365    0.00014
   50     -3.06383    0.00001
   51     -2.73163    0.00000
   52     -1.89422    0.00000
   53     -1.73380    0.00000
   54     -1.40022    0.00000
   55     -1.10498    0.00000
   56     -1.01250    0.00000
   57     -0.49773    0.00000
   58     -0.25738    0.00000
   59     -0.01273    0.00000
   60      0.46920    0.00000
   61      0.58342    0.00000
   62      1.10439    0.00000
   63      1.58059    0.00000
   64      2.30232    0.00000
   65      2.41066    0.00000
   66      2.85318    0.00000
   67      3.84968    0.00000
   68      4.30066    0.00000
   69      4.43387    0.00000
   70      5.09136    0.00000
   71      5.32565    0.00000
   72      5.70692    0.00000
   73      6.14303    0.00000
   74      6.65874    0.00000
   75      6.86990    0.00000
   76      7.28409    0.00000
   77      7.46713    0.00000
   78      7.95298    0.00000
   79      8.11489    0.00000
   80      8.21180    0.00000
   81      8.37265    0.00000
   82      8.56342    0.00000
   83      8.73850    0.00000
   84      8.80264    0.00000
   85      8.88976    0.00000
   86      8.94691    0.00000
   87      9.04712    0.00000
   88      9.46163    0.00000
   89      9.55150    0.00000
   90      9.59508    0.00000
   91      9.62587    0.00000
   92      9.78584    0.00000
   93      9.97945    0.00000
   94     10.01618    0.00000
   95     10.14542    0.00000
   96     10.29492    0.00000
   97     10.38674    0.00000


Forces in eV/Ang:
  0 C    -0.00225    0.00639    0.05480
  1 C     0.02992   -0.04663   -0.02547
  2 C     0.05616    0.00019   -0.04913
  3 C    -0.01413    0.05681   -0.03254
  4 C    -0.04571   -0.03467   -0.00960
  5 C    -0.02620   -0.02390    0.03876
  6 C     0.02433    0.04343   -0.03502
  7 C     0.03072    0.01624   -0.01083
  8 C    -0.07568   -0.02974    0.01825
  9 C     0.00217    0.00232    0.01315
 10 C     0.00161    0.05370    0.06517
 11 C    -0.02549   -0.00863    0.02451
 12 C    -0.01031   -0.04039   -0.01371
 13 C     0.00915    0.01066    0.00251
 14 C     0.01378   -0.02365    0.00467
 15 C    -0.02598   -0.04904   -0.00870
 16 C    -0.01732   -0.04303   -0.00401
 17 C     0.01004   -0.01895    0.01188
 18 C    -0.00547   -0.02649   -0.02020
 19 C    -0.02004    0.01743    0.00048
 20 C    -0.01644    0.02038    0.03741
 21 C    -0.01436    0.04471   -0.03188
 22 C     0.06568    0.00101    0.03620
 23 C     0.01959    0.00003    0.01993

