
  ___ ___ ___ _ _ _  
 |   |   |_  | | | | 
 | | | | | . | | | | 
 |__ |  _|___|_____|  1.3.0b1
 |___|_|             

User:   esb@s65n33.grendel.cscaa.dk
Date:   Thu Nov  9 11:02:54 2017
Arch:   x86_64
Pid:    75490
Python: 2.7.13
gpaw:   /home/esb/DFT/gpaw_git/gpaw
_gpaw:  /home/esb/DFT/gpaw_git/build/bin.linux-x86_64-2.7/gpaw-python
ase:    /home/esb/DFT/ase_git/ase (version 3.15.0b1)
numpy:  /comm/swstack/core/python/2.7.13/lib/python2.7/site-packages/numpy (version 1.13.3)
scipy:  /comm/swstack/core/python/2.7.13/lib/python2.7/site-packages/scipy (version 0.19.1)
units:  Angstrom and eV
cores:  16
Extra parameters: {'blacs': True}

Input parameters:
  basis: dzp
  gpts: [80 80 48]
  kpts: [1 1 1]
  maxiter: 99
  mixer: {backend: pulay,
          beta: 0.05,
          method: separate,
          nmaxold: 5,
          weight: 75}
  mode: lcao
  nbands: -50
  occupations: {name: fermi-dirac,
                width: 0.1}
  poissonsolver: {eps: 1e-07,
                  name: fd,
                  nn: 3,
                  relax: GS}
  xc: PBE

System changes: positions, numbers, cell, pbc, initial_charges, initial_magmoms 

Initialize ...

C-setup:
  name: Carbon
  id: 4aa54d4b901d75f77cc0ea3eec22967b
  Z: 6
  valence: 4
  core: 2
  charge: 0.0
  file: /home/esb/DFT/gpaw-setups-0.8.7929/C.PBE.gz
  cutoffs: 0.64(comp), 1.14(filt), 1.14(core), lmax=2
  valence states:
                energy  radius
    2s(2.00)   -13.751   0.635
    2p(2.00)    -5.284   0.635
    *s          13.461   0.635
    *p          21.927   0.635
    *d           0.000   0.635

  LCAO basis set for C:
    Name: dzp
    File: /home/esb/DFT/gpaw-setups-0.8.7929/C.dzp.basis.gz
    Number of radial functions: 5
    Number of spherical harmonics: 13
      l=0, rc=5.5469 Bohr: 2s-sz confined orbital
      l=1, rc=6.6719 Bohr: 2p-sz confined orbital
      l=0, rc=3.0312 Bohr: 2s-dz split-valence wave
      l=1, rc=3.7500 Bohr: 2p-dz split-valence wave
      l=2, rc=6.6719 Bohr: d-type Gaussian polarization

Reference energy: -24663.074771

Spin-paired calculation

Occupation numbers:
  Fermi-Dirac: width=0.1000 eV

Convergence criteria:
  Maximum total energy change: 0.0005 eV / electron
  Maximum integral of absolute density change: 0.0001 electrons
  Maximum integral of absolute eigenstate change: 4e-08 eV^2
  Maximum number of iterations: 99

Symmetries present (total): 1

  ( 1  0  0)
  ( 0  1  0)
  ( 0  0  1)

1 k-point (Gamma)
1 k-point in the irreducible part of the Brillouin zone
       k-points in crystal coordinates                weights
   0:     0.00000000    0.00000000    0.00000000          1/1

Wave functions: LCAO
  Diagonalizer: Serial LAPACK
  Atomic Correction: dense with blas
  Datatype: float
  Eigensolver: None 

LCAO using direct dense diagonalizer 

Densities:
  Coarse grid: 80*80*48 grid
  Fine grid: 160*160*96 grid
  Total Charge: 0.000000 

Density mixing:
  Method: separate
  Backend: pulay
  Linear mixing parameter: 0.05
  Mixing with 5 old densities
  Damping of long wave oscillations: 75 

Hamiltonian:
  XC and Coulomb potentials evaluated on a 160*160*96 grid
  Using the PBE Exchange-Correlation functional
  Interpolation: tri-quintic (5. degree polynomial)
  Poisson solver: Gauss-Seidel solver with 6 multi-grid levels
    Coarsest grid: 5 x 5 x 3 points
    Stencil: 6*3+1=19 point O(h^6) finite-difference Laplacian
    Max iterations: 1000
    Tolerance: 1.000000e-07 

Memory estimate:
  Process memory now: 77.57 MiB
  Calculator: 15.59 MiB
    Density: 6.13 MiB
      Arrays: 3.81 MiB
      Localized functions: 0.86 MiB
      Mixer: 1.46 MiB
    Hamiltonian: 5.40 MiB
      Arrays: 2.49 MiB
      XC: 0.00 MiB
      Poisson: 2.85 MiB
      vbar: 0.07 MiB
    Wavefunctions: 4.05 MiB
      C [qnM]: 0.23 MiB
      S, T [2 x qmm]: 1.49 MiB
      P [aqMi]: 0.01 MiB
      TCI: 0.00 MiB
      BasisFunctions: 2.33 MiB
      Eigensolver: 0.00 MiB

Total number of cores used: 16
Domain decomposition: 2 x 4 x 2

Number of atoms: 24
Number of atomic orbitals: 312
Number of bands in calculation: 98
Bands to converge: occupied states only
Number of valence electrons: 96

... initialized

Initializing position-dependent things.

Density initialized from atomic densities
           .--------------------------------------.  
          /|                                      |  
         / |                                      |  
        /  |                                      |  
       /   |                                      |  
      /    |                                      |  
     /     |                                      |  
    /      |                                      |  
   /       |                                      |  
  /        |                                      |  
 *         | C C                                  |  
 |         |      C  C C    C  C  C               |  
 |         .--CC--C--C----C-----C-----------------.  
 |        /   C       C      C                   /   
 |       /      C     C   C                     /    
 |      /          C   C                       /     
 |     /                                      /      
 |    /                                      /       
 |   /                                      /        
 |  /                                      /         
 | /                                      /          
 |/                                      /           
 *--------------------------------------*            

Positions:
   0 C      8.506659    2.388800    4.957102
   1 C     11.696070    7.853692    4.825233
   2 C      9.563954    3.231182    5.000110
   3 C     10.366456    8.193381    4.803702
   4 C     10.182441    4.327776    4.981103
   5 C      9.019146    7.923105    4.803826
   6 C     11.085112    6.648478    4.874300
   7 C      8.772627    6.485049    4.860486
   8 C     10.027241    5.726528    4.910660
   9 C      7.144349    5.803821    4.487939
  10 C      6.741196    2.264913    5.007565
  11 C      4.608842    3.479230    5.519144
  12 C      7.742349    3.284970    4.556233
  13 C      5.475356    2.547808    5.380250
  14 C      7.606997    4.626565    4.444737
  15 C      4.277668    4.765506    5.438223
  16 C      6.475197    7.006545    4.592228
  17 C      5.062943    7.136226    4.972492
  18 C      4.278956    6.028984    5.283401
  19 C      4.733790    8.568184    4.941612
  20 C      5.904991    9.281721    4.540395
  21 C      3.472503    9.088549    5.173458
  22 C      6.997554    8.371475    4.410588
  23 C      2.310062    9.550679    5.322292

Unit cell:
           periodic     x           y           z      points  spacing
  1. axis:    yes   16.000000    0.000000    0.000000    80     0.2000
  2. axis:    yes    0.000000   16.000000    0.000000    80     0.2000
  3. axis:    yes    0.000000    0.000000   10.000000    48     0.2083

Effective grid spacing dv^(1/3) = 0.2027

                     log10-error:    total        iterations:
           time      wfs    density  energy       fermi  poisson
iter:   1  11:02:56          +inf  -177.783148    2      6      
iter:   2  11:02:56         -0.89  -176.084294    3      3      
iter:   3  11:02:57         -0.93  -174.530273    4      3      
iter:   4  11:02:58         -1.00  -173.465062    35     3      
iter:   5  11:02:58         -1.08  -173.170417    4      2      
iter:   6  11:02:59         -1.13  -172.446153    35     4      
iter:   7  11:02:59         -1.41  -172.536611    3      3      
iter:   8  11:03:00         -1.52  -172.430838    3      3      
iter:   9  11:03:00         -1.62  -172.402390    3      3      
iter:  10  11:03:01         -1.76  -172.362430    4      3      
iter:  11  11:03:01         -1.92  -172.333444    3      2      
iter:  12  11:03:02         -2.04  -172.305487    3      2      
iter:  13  11:03:02         -2.20  -172.298284    3      2      
iter:  14  11:03:03         -2.34  -172.295097    3      2      
iter:  15  11:03:03         -2.45  -172.294608    3      2      
iter:  16  11:03:04         -2.57  -172.294586    3      2      
iter:  17  11:03:05         -2.75  -172.294035    3      2      
iter:  18  11:03:05         -2.93  -172.302643    2      1      
iter:  19  11:03:06         -3.03  -172.311026    3      1      
iter:  20  11:03:06         -3.23  -172.308757    3      1      
iter:  21  11:03:06         -3.49  -172.295583    2      1      
iter:  22  11:03:07         -3.60  -172.292827    2      1      
iter:  23  11:03:07         -3.69  -172.290424    2      1      
iter:  24  11:03:08         -3.97  -172.289976    2      1      
iter:  25  11:03:08         -4.17  -172.290834    2      1      

Converged after 25 iterations.

Dipole moment: (0.987728, -1.498521, -0.056340) |e|*Ang

Energy contributions relative to reference atoms: (reference = -24663.074771)

Kinetic:       +118.161154
Potential:     -119.947285
External:        +0.000000
XC:            -173.305123
Entropy (-ST):   -0.381641
Local:           +2.991240
--------------------------
Free energy:   -172.481654
Extrapolated:  -172.290834

Fermi level: -4.66178

 Band  Eigenvalues  Occupancy
    0    -24.19605    2.00000
    1    -23.35340    2.00000
    2    -22.35666    2.00000
    3    -21.23606    2.00000
    4    -20.93043    2.00000
    5    -20.35140    2.00000
    6    -19.86023    2.00000
    7    -19.27535    2.00000
    8    -18.94554    2.00000
    9    -18.57857    2.00000
   10    -17.86884    2.00000
   11    -17.55803    2.00000
   12    -16.88818    2.00000
   13    -16.42078    2.00000
   14    -15.86524    2.00000
   15    -15.09868    2.00000
   16    -14.93146    2.00000
   17    -14.45647    2.00000
   18    -13.89431    2.00000
   19    -13.50327    2.00000
   20    -12.99540    2.00000
   21    -12.32697    2.00000
   22    -11.56263    2.00000
   23    -11.36907    2.00000
   24    -11.24587    2.00000
   25    -10.79602    2.00000
   26    -10.47094    2.00000
   27    -10.33362    2.00000
   28    -10.12857    2.00000
   29     -9.72239    2.00000
   30     -9.54592    2.00000
   31     -9.21531    2.00000
   32     -9.00261    2.00000
   33     -8.54837    2.00000
   34     -8.34421    2.00000
   35     -8.13545    2.00000
   36     -7.79063    2.00000
   37     -7.52615    2.00000
   38     -6.89390    2.00000
   39     -6.60868    2.00000
   40     -6.47779    2.00000
   41     -6.34927    2.00000
   42     -5.83010    1.99998
   43     -5.51229    1.99960
   44     -5.33991    1.99773
   45     -5.06412    1.96484
   46     -4.88600    1.80795
   47     -4.70543    1.21483
   48     -4.65334    0.95783
   49     -4.30903    0.05708
   50     -3.65650    0.00009
   51     -3.63366    0.00007
   52     -3.05526    0.00000
   53     -2.83313    0.00000
   54     -2.42363    0.00000
   55     -1.91106    0.00000
   56     -1.47808    0.00000
   57     -1.04215    0.00000
   58     -0.69462    0.00000
   59     -0.46650    0.00000
   60     -0.33612    0.00000
   61      0.49508    0.00000
   62      0.54331    0.00000
   63      0.91171    0.00000
   64      1.27029    0.00000
   65      1.55210    0.00000
   66      2.49729    0.00000
   67      3.41580    0.00000
   68      3.59198    0.00000
   69      4.12419    0.00000
   70      4.50314    0.00000
   71      4.78231    0.00000
   72      5.37597    0.00000
   73      5.49249    0.00000
   74      5.76136    0.00000
   75      6.24908    0.00000
   76      6.69085    0.00000
   77      6.99694    0.00000
   78      7.10533    0.00000
   79      7.66766    0.00000
   80      7.67800    0.00000
   81      7.86172    0.00000
   82      8.16478    0.00000
   83      8.21371    0.00000
   84      8.53224    0.00000
   85      8.74973    0.00000
   86      8.99848    0.00000
   87      9.15776    0.00000
   88      9.24730    0.00000
   89      9.32117    0.00000
   90      9.40140    0.00000
   91      9.60098    0.00000
   92      9.66168    0.00000
   93      9.84291    0.00000
   94      9.90805    0.00000
   95      9.97796    0.00000
   96     10.09801    0.00000
   97     10.18773    0.00000


Forces in eV/Ang:
  0 C     4.01171   -7.35290    1.79728
  1 C     1.15684    0.56533   -0.13916
  2 C     4.65792    0.23660    1.84056
  3 C    -1.90492   -0.30900   -0.04099
  4 C    -0.09202   -0.66745    0.19460
  5 C    -2.95051   -1.23951   -0.78983
  6 C    -0.85519    0.15837    0.40864
  7 C     2.79958    1.42224   -0.60391
  8 C    -0.03482    0.52767   -0.00092
  9 C     2.48299    2.52111    0.63010
 10 C     1.06051    1.58366   -0.24960
 11 C    -0.75764    0.92003   -0.18719
 12 C   -10.58848    4.50052   -3.12086
 13 C     1.49927   -1.00426    0.43281
 14 C    -1.32237   -1.60650   -0.79777
 15 C    -0.06042   -1.10258    0.12094
 16 C    -1.53231    1.22060   -0.41333
 17 C    -0.48949   -1.03640    0.20001
 18 C     0.67747    0.97319   -0.35625
 19 C    -0.57815    0.51024   -0.15999
 20 C     3.45823   -1.23992   -0.42610
 21 C     2.25832   -0.99981   -0.18657
 22 C    -0.52936    0.40572    1.56994
 23 C    -2.40293    0.93844    0.33043

System changes: positions 

Initializing position-dependent things.

Density initialized from wave functions
           .--------------------------------------.  
          /|                                      |  
         / |                                      |  
        /  |                                      |  
       /   |                                      |  
      /    |                                      |  
     /     |                                      |  
    /      |                                      |  
   /       |                                      |  
  /        |                                      |  
 *         | C C                                  |  
 |         |      C  C C    C  C  C               |  
 |         .--CC--C--C----C-----C-----------------.  
 |        /   C       C      C                   /   
 |       /      C     C   C                     /    
 |      /          C   C                       /     
 |     /                                      /      
 |    /                                      /       
 |   /                                      /        
 |  /                                      /         
 | /                                      /          
 |/                                      /           
 *--------------------------------------*            

Positions:
   0 C      8.520120    2.364127    4.963133
   1 C     11.699952    7.855589    4.824766
   2 C      9.579584    3.231976    5.006286
   3 C     10.360065    8.192344    4.803564
   4 C     10.182133    4.325537    4.981756
   5 C      9.009246    7.918946    4.801176
   6 C     11.082242    6.649009    4.875671
   7 C      8.782021    6.489821    4.858460
   8 C     10.027124    5.728299    4.910657
   9 C      7.152680    5.812281    4.490053
  10 C      6.744755    2.270227    5.006727
  11 C      4.606300    3.482317    5.518515
  12 C      7.706821    3.300071    4.545762
  13 C      5.480387    2.544438    5.381702
  14 C      7.602560    4.621174    4.442060
  15 C      4.277465    4.761807    5.438629
  16 C      6.470055    7.010641    4.590841
  17 C      5.061301    7.132748    4.973163
  18 C      4.281230    6.032250    5.282205
  19 C      4.731850    8.569896    4.941075
  20 C      5.916595    9.277560    4.538966
  21 C      3.480080    9.085194    5.172832
  22 C      6.995777    8.372836    4.415856
  23 C      2.301999    9.553828    5.323400

Unit cell:
           periodic     x           y           z      points  spacing
  1. axis:    yes   16.000000    0.000000    0.000000    80     0.2000
  2. axis:    yes    0.000000   16.000000    0.000000    80     0.2000
  3. axis:    yes    0.000000    0.000000   10.000000    48     0.2083

Effective grid spacing dv^(1/3) = 0.2027

                     log10-error:    total        iterations:
           time      wfs    density  energy       fermi  poisson
iter:   1  11:03:10          +inf  -173.305689    3      5      
iter:   2  11:03:11         -1.82  -173.224442    3      2      
iter:   3  11:03:11         -2.11  -173.204620    3      2      
iter:   4  11:03:12         -2.24  -173.189211    2      2      
iter:   5  11:03:12         -2.47  -173.189615    3      2      
iter:   6  11:03:13         -2.56  -173.187372    2      2      
iter:   7  11:03:13         -2.65  -173.184527    2      2      
iter:   8  11:03:14         -2.91  -173.186880    2      1      
iter:   9  11:03:14         -3.02  -173.183489    3      2      
iter:  10  11:03:15         -3.28  -173.182263    2      1      
iter:  11  11:03:15         -3.36  -173.184063    2      1      
iter:  12  11:03:16         -3.54  -173.183235    2      1      
iter:  13  11:03:16         -3.74  -173.182947    2      1      
iter:  14  11:03:17         -3.90  -173.183230    1      1      
iter:  15  11:03:17         -4.04  -173.182788    2      1      

Converged after 15 iterations.

Dipole moment: (0.946136, -1.461865, -0.055185) |e|*Ang

Energy contributions relative to reference atoms: (reference = -24663.074771)

Kinetic:       +112.478053
Potential:     -116.104726
External:        +0.000000
XC:            -172.330168
Entropy (-ST):   -0.366155
Local:           +2.957129
--------------------------
Free energy:   -173.365866
Extrapolated:  -173.182788

Fermi level: -4.65791

 Band  Eigenvalues  Occupancy
    0    -23.79831    2.00000
    1    -23.32369    2.00000
    2    -22.37410    2.00000
    3    -21.19301    2.00000
    4    -20.89413    2.00000
    5    -20.33704    2.00000
    6    -19.86079    2.00000
    7    -19.25911    2.00000
    8    -18.97358    2.00000
    9    -18.58064    2.00000
   10    -17.92911    2.00000
   11    -17.55430    2.00000
   12    -16.85288    2.00000
   13    -16.43792    2.00000
   14    -15.80676    2.00000
   15    -15.08020    2.00000
   16    -14.90397    2.00000
   17    -14.43895    2.00000
   18    -13.87098    2.00000
   19    -13.51923    2.00000
   20    -13.03222    2.00000
   21    -12.36774    2.00000
   22    -11.53140    2.00000
   23    -11.27306    2.00000
   24    -11.10073    2.00000
   25    -10.75811    2.00000
   26    -10.42899    2.00000
   27    -10.28800    2.00000
   28    -10.13252    2.00000
   29     -9.74330    2.00000
   30     -9.53718    2.00000
   31     -9.20478    2.00000
   32     -8.99079    2.00000
   33     -8.52516    2.00000
   34     -8.40693    2.00000
   35     -8.13142    2.00000
   36     -7.84046    2.00000
   37     -7.50659    2.00000
   38     -6.91404    2.00000
   39     -6.62743    2.00000
   40     -6.45926    2.00000
   41     -6.37517    2.00000
   42     -5.84480    1.99999
   43     -5.54561    1.99972
   44     -5.32688    1.99752
   45     -5.09192    1.97426
   46     -4.91884    1.86291
   47     -4.69345    1.17586
   48     -4.64416    0.93136
   49     -4.30708    0.05815
   50     -3.69409    0.00013
   51     -3.65599    0.00009
   52     -3.05962    0.00000
   53     -2.85661    0.00000
   54     -2.40700    0.00000
   55     -1.91842    0.00000
   56     -1.48186    0.00000
   57     -1.00086    0.00000
   58     -0.70260    0.00000
   59     -0.49459    0.00000
   60     -0.32700    0.00000
   61      0.49685    0.00000
   62      0.55751    0.00000
   63      0.95249    0.00000
   64      1.24322    0.00000
   65      1.41342    0.00000
   66      2.45380    0.00000
   67      3.38452    0.00000
   68      3.60805    0.00000
   69      4.13252    0.00000
   70      4.46805    0.00000
   71      4.77369    0.00000
   72      5.34655    0.00000
   73      5.53757    0.00000
   74      5.73459    0.00000
   75      6.21351    0.00000
   76      6.70784    0.00000
   77      7.00349    0.00000
   78      7.08895    0.00000
   79      7.63366    0.00000
   80      7.72923    0.00000
   81      7.87791    0.00000
   82      8.19505    0.00000
   83      8.25890    0.00000
   84      8.58948    0.00000
   85      8.86830    0.00000
   86      9.00109    0.00000
   87      9.15927    0.00000
   88      9.26499    0.00000
   89      9.35147    0.00000
   90      9.41773    0.00000
   91      9.62223    0.00000
   92      9.68079    0.00000
   93      9.83489    0.00000
   94      9.90619    0.00000
   95      9.98378    0.00000
   96     10.08374    0.00000
   97     10.19375    0.00000


Forces in eV/Ang:
  0 C     1.62920   -3.52018    0.28277
  1 C     0.70158    0.52161   -0.14001
  2 C     3.04372   -0.99175    1.69777
  3 C    -1.57550   -0.38485   -0.04014
  4 C     0.24718    0.25203    0.17402
  5 C    -2.71282   -0.95633   -0.78213
  6 C    -0.67426    0.43476    0.40443
  7 C     2.34779    1.18848   -0.64626
  8 C     0.06868    0.25109    0.00472
  9 C     2.64503    2.25278    0.66269
 10 C     1.08888    1.53969   -0.12122
 11 C    -0.22587    0.15334   -0.23626
 12 C    -6.65093    0.17071   -1.53891
 13 C     0.83921   -0.63629    0.53700
 14 C    -1.73093   -0.14235   -0.85656
 15 C    -0.13073   -0.36432    0.05234
 16 C    -1.30122    0.81970   -0.39093
 17 C    -0.39284   -0.75554    0.13870
 18 C     0.49654    0.32714   -0.24314
 19 C    -0.19030    0.36981   -0.25738
 20 C     3.10184   -1.05357   -0.32315
 21 C     1.04150   -0.48034   -0.02371
 22 C    -0.27101    0.35147    1.48722
 23 C    -1.41959    0.54811    0.18122

System changes: positions 

Initializing position-dependent things.

Density initialized from wave functions
           .--------------------------------------.  
          /|                                      |  
         / |                                      |  
        /  |                                      |  
       /   |                                      |  
      /    |                                      |  
     /     |                                      |  
    /      |                                      |  
   /       |                                      |  
  /        |                                      |  
 *         | C C                                  |  
 |         |      C  C C    C  C  C               |  
 |         .--CC--C--C-----C----C-----------------.  
 |        /   C       C      C                   /   
 |       /      C     C   C                     /    
 |      /          C   C                       /     
 |     /                                      /      
 |    /                                      /       
 |   /                                      /        
 |  /                                      /         
 | /                                      /          
 |/                                      /           
 *--------------------------------------*            

Positions:
   0 C      8.524327    2.350514    4.960074
   1 C     11.703727    7.859410    4.823698
   2 C      9.597204    3.220198    5.018722
   3 C     10.349202    8.189153    4.803262
   4 C     10.185182    4.330619    4.983010
   5 C      8.989409    7.912639    4.795247
   6 C     11.077731    6.653270    4.878736
   7 C      8.798342    6.498065    4.853394
   8 C     10.028003    5.729259    4.910713
   9 C      7.173377    5.828510    4.495211
  10 C      6.753143    2.281798    5.006246
  11 C      4.606410    3.480846    5.516548
  12 C      7.669730    3.286472    4.539488
  13 C      5.484505    2.540859    5.386149
  14 C      7.587975    4.625128    4.435336
  15 C      4.276228    4.761573    5.438792
  16 C      6.460943    7.015502    4.587942
  17 C      5.058643    7.127962    4.974008
  18 C      4.284388    6.032517    5.280743
  19 C      4.731736    8.572229    4.938780
  20 C      5.938986    9.270180    4.536859
  21 C      3.483823    9.083324    5.173211
  22 C      6.994603    8.375326    4.426895
  23 C      2.294574    9.556658    5.324267

Unit cell:
           periodic     x           y           z      points  spacing
  1. axis:    yes   16.000000    0.000000    0.000000    80     0.2000
  2. axis:    yes    0.000000   16.000000    0.000000    80     0.2000
  3. axis:    yes    0.000000    0.000000   10.000000    48     0.2083

Effective grid spacing dv^(1/3) = 0.2027

                     log10-error:    total        iterations:
           time      wfs    density  energy       fermi  poisson
iter:   1  11:03:19          +inf  -174.069455    3      5      
iter:   2  11:03:20         -1.81  -173.971833    3      2      
iter:   3  11:03:20         -2.11  -173.952054    2      2      
iter:   4  11:03:21         -2.23  -173.931378    2      2      
iter:   5  11:03:21         -2.48  -173.930557    2      2      
iter:   6  11:03:22         -2.62  -173.929610    2      1      
iter:   7  11:03:22         -2.67  -173.927654    2      2      
iter:   8  11:03:23         -2.88  -173.928215    2      1      
iter:   9  11:03:23         -2.99  -173.926576    2      2      
iter:  10  11:03:24         -3.27  -173.926512    2      1      
iter:  11  11:03:24         -3.37  -173.926909    2      1      
iter:  12  11:03:25         -3.55  -173.926606    2      1      
iter:  13  11:03:25         -3.68  -173.926491    2      1      
iter:  14  11:03:26         -3.84  -173.926653    2      1      
iter:  15  11:03:26         -4.03  -173.926605    2      1      

Converged after 15 iterations.

Dipole moment: (0.928610, -1.447866, -0.055669) |e|*Ang

Energy contributions relative to reference atoms: (reference = -24663.074771)

Kinetic:       +109.256434
Potential:     -114.040008
External:        +0.000000
XC:            -171.936949
Entropy (-ST):   -0.344143
Local:           +2.965989
--------------------------
Free energy:   -174.098677
Extrapolated:  -173.926605

Fermi level: -4.63164

 Band  Eigenvalues  Occupancy
    0    -23.63631    2.00000
    1    -23.31841    2.00000
    2    -22.38076    2.00000
    3    -21.16646    2.00000
    4    -20.84438    2.00000
    5    -20.32214    2.00000
    6    -19.87424    2.00000
    7    -19.26143    2.00000
    8    -18.96941    2.00000
    9    -18.59092    2.00000
   10    -17.95276    2.00000
   11    -17.48725    2.00000
   12    -16.83625    2.00000
   13    -16.35068    2.00000
   14    -15.80481    2.00000
   15    -15.04527    2.00000
   16    -14.88255    2.00000
   17    -14.42941    2.00000
   18    -13.85756    2.00000
   19    -13.52957    2.00000
   20    -13.05322    2.00000
   21    -12.42647    2.00000
   22    -11.50145    2.00000
   23    -11.19329    2.00000
   24    -11.01371    2.00000
   25    -10.73587    2.00000
   26    -10.43344    2.00000
   27    -10.29572    2.00000
   28    -10.14635    2.00000
   29     -9.71793    2.00000
   30     -9.50840    2.00000
   31     -9.17913    2.00000
   32     -9.01106    2.00000
   33     -8.49715    2.00000
   34     -8.44083    2.00000
   35     -8.14035    2.00000
   36     -7.93054    2.00000
   37     -7.48281    2.00000
   38     -6.92357    2.00000
   39     -6.64373    2.00000
   40     -6.45333    2.00000
   41     -6.40207    2.00000
   42     -5.87850    1.99999
   43     -5.54867    1.99979
   44     -5.31642    1.99788
   45     -5.11567    1.98432
   46     -4.94396    1.91568
   47     -4.66399    1.16036
   48     -4.60933    0.88890
   49     -4.27088    0.05280
   50     -3.71001    0.00020
   51     -3.62759    0.00009
   52     -3.00248    0.00000
   53     -2.86821    0.00000
   54     -2.34092    0.00000
   55     -1.93455    0.00000
   56     -1.48493    0.00000
   57     -1.07049    0.00000
   58     -0.70366    0.00000
   59     -0.53562    0.00000
   60     -0.28305    0.00000
   61      0.49333    0.00000
   62      0.69263    0.00000
   63      1.01720    0.00000
   64      1.17476    0.00000
   65      1.34123    0.00000
   66      2.44140    0.00000
   67      3.35871    0.00000
   68      3.58738    0.00000
   69      4.12262    0.00000
   70      4.41235    0.00000
   71      4.73744    0.00000
   72      5.26736    0.00000
   73      5.61744    0.00000
   74      5.83026    0.00000
   75      6.18802    0.00000
   76      6.79269    0.00000
   77      7.01081    0.00000
   78      7.10376    0.00000
   79      7.64818    0.00000
   80      7.73192    0.00000
   81      7.87658    0.00000
   82      8.22617    0.00000
   83      8.34902    0.00000
   84      8.71653    0.00000
   85      8.98722    0.00000
   86      9.05210    0.00000
   87      9.17357    0.00000
   88      9.26859    0.00000
   89      9.36021    0.00000
   90      9.42276    0.00000
   91      9.63351    0.00000
   92      9.66669    0.00000
   93      9.84493    0.00000
   94      9.91908    0.00000
   95      9.99245    0.00000
   96     10.09948    0.00000
   97     10.19741    0.00000


Forces in eV/Ang:
  0 C     1.25142   -2.06114   -0.13656
  1 C     0.16927    0.54559   -0.13772
  2 C     2.37511   -0.60594    1.47261
  3 C    -1.26762   -0.46239   -0.04107
  4 C    -0.17909   -0.47578    0.19021
  5 C    -2.20165   -0.42824   -0.74339
  6 C    -0.50693    0.65112    0.37852
  7 C     1.62320    0.76462   -0.64355
  8 C     0.24893    0.23185    0.01226
  9 C     2.55408    2.13188    0.64836
 10 C     0.46225    1.02626    0.16779
 11 C     0.07689   -0.10624   -0.27203
 12 C    -4.63891    0.31691   -1.30344
 13 C     0.41152   -0.42840    0.60489
 14 C    -1.62074   -0.77046   -0.78010
 15 C    -0.15438   -0.25329    0.05757
 16 C    -0.98940    0.53396   -0.30830
 17 C    -0.16116   -0.30893    0.01104
 18 C     0.30600   -0.12761   -0.15167
 19 C     0.07285    0.34633   -0.30745
 20 C     2.21877   -0.65398   -0.11276
 21 C     0.47020   -0.18126    0.02481
 22 C     0.26012   -0.03016    1.34414
 23 C    -0.84020    0.31072    0.11322

System changes: positions 

Initializing position-dependent things.

Density initialized from wave functions
           .--------------------------------------.  
          /|                                      |  
         / |                                      |  
        /  |                                      |  
       /   |                                      |  
      /    |                                      |  
     /     |                                      |  
    /      |                                      |  
   /       |                                      |  
  /        |                                      |  
 *         | C C                                  |  
 |         |      C  C C    C  C  C               |  
 |         .--CC--C--C-----C----C-----------------.  
 |        /   C       C      C                   /   
 |       /      C     C   C                     /    
 |      /          C  CC                       /     
 |     /                                      /      
 |    /                                      /       
 |   /                                      /        
 |  /                                      /         
 | /                                      /          
 |/                                      /           
 *--------------------------------------*            

Positions:
   0 C      8.530380    2.342817    4.952216
   1 C     11.702634    7.865872    4.822053
   2 C      9.618317    3.210128    5.035190
   3 C     10.336050    8.183133    4.802770
   4 C     10.182834    4.325685    4.985270
   5 C      8.965403    7.910059    4.786494
   6 C     11.072767    6.662629    4.883173
   7 C      8.814071    6.505153    4.845561
   8 C     10.031874    5.731073    4.910901
   9 C      7.204195    5.852780    4.503034
  10 C      6.756843    2.292361    5.009561
  11 C      4.609993    3.476278    5.513022
  12 C      7.633221    3.276605    4.529766
  13 C      5.485965    2.537570    5.393937
  14 C      7.567584    4.618748    4.426042
  15 C      4.274078    4.761289    5.439273
  16 C      6.450812    7.019709    4.584578
  17 C      5.057741    7.126552    4.973548
  18 C      4.286875    6.027488    5.279578
  19 C      4.734680    8.575844    4.934629
  20 C      5.961668    9.264187    4.536492
  21 C      3.483730    9.083766    5.174188
  22 C      7.000190    8.373615    4.442274
  23 C      2.289502    9.558376    5.324927

Unit cell:
           periodic     x           y           z      points  spacing
  1. axis:    yes   16.000000    0.000000    0.000000    80     0.2000
  2. axis:    yes    0.000000   16.000000    0.000000    80     0.2000
  3. axis:    yes    0.000000    0.000000   10.000000    48     0.2083

Effective grid spacing dv^(1/3) = 0.2027

                     log10-error:    total        iterations:
           time      wfs    density  energy       fermi  poisson
iter:   1  11:03:28          +inf  -174.638193    3      5      
iter:   2  11:03:28         -1.94  -174.590573    3      2      
iter:   3  11:03:29         -2.17  -174.577651    2      1      
iter:   4  11:03:29         -2.27  -174.559853    2      2      
iter:   5  11:03:30         -2.50  -174.561459    2      2      
iter:   6  11:03:31         -2.59  -174.558239    2      2      
iter:   7  11:03:31         -2.58  -174.560064    2      2      
iter:   8  11:03:32         -2.82  -174.557946    2      1      
iter:   9  11:03:32         -3.04  -174.557466    2      2      
iter:  10  11:03:33         -3.22  -174.558312    2      1      
iter:  11  11:03:33         -3.29  -174.557889    2      1      
iter:  12  11:03:34         -3.62  -174.557985    2      1      
iter:  13  11:03:34         -3.71  -174.558097    2      1      
iter:  14  11:03:35         -3.81  -174.558152    2      1      
iter:  15  11:03:35         -3.98  -174.558190    2      1      
iter:  16  11:03:35         -4.11  -174.558205    2      1      

Converged after 16 iterations.

Dipole moment: (0.932426, -1.416919, -0.056121) |e|*Ang

Energy contributions relative to reference atoms: (reference = -24663.074771)

Kinetic:       +107.375160
Potential:     -112.912091
External:        +0.000000
XC:            -171.823867
Entropy (-ST):   -0.335610
Local:           +2.970398
--------------------------
Free energy:   -174.726010
Extrapolated:  -174.558205

Fermi level: -4.61047

 Band  Eigenvalues  Occupancy
    0    -23.51078    2.00000
    1    -23.32614    2.00000
    2    -22.39265    2.00000
    3    -21.13043    2.00000
    4    -20.79795    2.00000
    5    -20.29113    2.00000
    6    -19.88368    2.00000
    7    -19.26584    2.00000
    8    -18.96365    2.00000
    9    -18.56813    2.00000
   10    -17.98081    2.00000
   11    -17.43526    2.00000
   12    -16.84011    2.00000
   13    -16.29120    2.00000
   14    -15.78313    2.00000
   15    -14.99201    2.00000
   16    -14.85221    2.00000
   17    -14.42613    2.00000
   18    -13.85082    2.00000
   19    -13.54340    2.00000
   20    -13.03902    2.00000
   21    -12.46657    2.00000
   22    -11.47491    2.00000
   23    -11.13305    2.00000
   24    -10.93338    2.00000
   25    -10.72039    2.00000
   26    -10.43930    2.00000
   27    -10.30804    2.00000
   28    -10.15604    2.00000
   29     -9.70109    2.00000
   30     -9.45998    2.00000
   31     -9.17202    2.00000
   32     -9.07354    2.00000
   33     -8.48126    2.00000
   34     -8.42420    2.00000
   35     -8.14751    2.00000
   36     -8.05947    2.00000
   37     -7.46709    2.00000
   38     -6.93190    2.00000
   39     -6.65762    2.00000
   40     -6.49555    2.00000
   41     -6.38868    2.00000
   42     -5.91362    2.00000
   43     -5.56002    1.99985
   44     -5.31851    1.99832
   45     -5.12945    1.98892
   46     -4.95843    1.94020
   47     -4.63585    1.12621
   48     -4.58847    0.89043
   49     -4.25499    0.05558
   50     -3.76559    0.00043
   51     -3.59062    0.00007
   52     -2.96918    0.00000
   53     -2.84201    0.00000
   54     -2.24118    0.00000
   55     -1.92652    0.00000
   56     -1.45352    0.00000
   57     -1.10254    0.00000
   58     -0.70098    0.00000
   59     -0.55688    0.00000
   60     -0.17672    0.00000
   61      0.50108    0.00000
   62      0.85835    0.00000
   63      1.07006    0.00000
   64      1.15580    0.00000
   65      1.37307    0.00000
   66      2.46381    0.00000
   67      3.34184    0.00000
   68      3.59252    0.00000
   69      4.08619    0.00000
   70      4.34995    0.00000
   71      4.72707    0.00000
   72      5.16637    0.00000
   73      5.59682    0.00000
   74      5.92542    0.00000
   75      6.19188    0.00000
   76      6.87771    0.00000
   77      7.02388    0.00000
   78      7.15799    0.00000
   79      7.53676    0.00000
   80      7.76039    0.00000
   81      7.89586    0.00000
   82      8.25795    0.00000
   83      8.39119    0.00000
   84      8.87320    0.00000
   85      9.00958    0.00000
   86      9.14337    0.00000
   87      9.20033    0.00000
   88      9.26541    0.00000
   89      9.35319    0.00000
   90      9.43720    0.00000
   91      9.62432    0.00000
   92      9.67475    0.00000
   93      9.83439    0.00000
   94      9.92601    0.00000
   95     10.00676    0.00000
   96     10.10007    0.00000
   97     10.20167    0.00000


Forces in eV/Ang:
  0 C     0.71296   -1.02575   -0.45503
  1 C    -0.14636    0.67869   -0.12757
  2 C     1.39400   -1.03691    1.30097
  3 C    -1.11359   -0.38641   -0.05266
  4 C    -0.10211    0.10578    0.15198
  5 C    -1.75866    0.00588   -0.69503
  6 C    -0.44572    0.57289    0.35011
  7 C     0.77901    0.24446   -0.69714
  8 C     0.40183   -0.00997    0.03052
  9 C     2.77861    1.16283    0.62872
 10 C    -0.03418    0.27633    0.44706
 11 C     0.02661    0.09321   -0.24752
 12 C    -2.61953    0.27474   -1.17654
 13 C     0.19065   -0.48326    0.63694
 14 C    -1.82574    0.06048   -0.70292
 15 C    -0.13466   -0.57701    0.09198
 16 C    -0.54358    0.22166   -0.21011
 17 C    -0.18765   -0.13811   -0.05101
 18 C     0.29251   -0.02050   -0.17177
 19 C     0.06985    0.35084   -0.28950
 20 C     1.53891   -0.26625    0.06769
 21 C     0.49484   -0.11076   -0.02497
 22 C     0.78719   -0.30652    1.19325
 23 C    -0.61385    0.21503    0.09902

System changes: positions 

Initializing position-dependent things.

Density initialized from wave functions
           .--------------------------------------.  
          /|                                      |  
         / |                                      |  
        /  |                                      |  
       /   |                                      |  
      /    |                                      |  
     /     |                                      |  
    /      |                                      |  
   /       |                                      |  
  /        |                                      |  
 *         | C C                                  |  
 |         |      C  C C    C  C  C               |  
 |         .--CC--C--C-----C----C-----------------.  
 |        /   C       C      C                   /   
 |       /      C     C   C                     /    
 |      /          C  CC                       /     
 |     /                                      /      
 |    /                                      /       
 |   /                                      /        
 |  /                                      /         
 | /                                      /          
 |/                                      /           
 *--------------------------------------*            

Positions:
   0 C      8.535286    2.337731    4.943212
   1 C     11.699477    7.874357    4.820386
   2 C      9.633840    3.195844    5.051655
   3 C     10.322558    8.177700    4.802111
   4 C     10.181247    4.326408    4.987298
   5 C      8.943211    7.910830    4.777497
   6 C     11.067545    6.671124    4.887700
   7 C      8.823544    6.508071    4.836567
   8 C     10.037314    5.730829    4.911286
   9 C      7.239862    5.868919    4.511241
  10 C      6.756251    2.296334    5.015594
  11 C      4.612025    3.475134    5.509612
  12 C      7.606866    3.272060    4.517822
  13 C      5.486780    2.532521    5.402443
  14 C      7.543760    4.619657    4.416828
  15 C      4.272118    4.756083    5.440273
  16 C      6.443956    7.021864    4.581869
  17 C      5.055977    7.125807    4.972653
  18 C      4.289983    6.024925    5.277782
  19 C      4.736829    8.580057    4.930568
  20 C      5.980553    9.261102    4.537611
  21 C      3.486664    9.083761    5.174366
  22 C      7.010849    8.369370    4.457573
  23 C      2.284111    9.560143    5.325819

Unit cell:
           periodic     x           y           z      points  spacing
  1. axis:    yes   16.000000    0.000000    0.000000    80     0.2000
  2. axis:    yes    0.000000   16.000000    0.000000    80     0.2000
  3. axis:    yes    0.000000    0.000000   10.000000    48     0.2083

Effective grid spacing dv^(1/3) = 0.2027

                     log10-error:    total        iterations:
           time      wfs    density  energy       fermi  poisson
iter:   1  11:03:37          +inf  -175.078772    3      5      
iter:   2  11:03:38         -2.04  -175.045128    3      2      
iter:   3  11:03:38         -2.27  -175.036694    2      1      
iter:   4  11:03:39         -2.37  -175.023247    2      2      
iter:   5  11:03:39         -2.61  -175.024685    2      2      
iter:   6  11:03:40         -2.64  -175.021897    2      2      
iter:   7  11:03:40         -2.70  -175.022290    2      2      
iter:   8  11:03:41         -2.91  -175.022504    2      1      
iter:   9  11:03:41         -3.08  -175.021309    2      2      
iter:  10  11:03:42         -3.33  -175.021236    2      1      
iter:  11  11:03:42         -3.48  -175.021389    2      1      
iter:  12  11:03:43         -3.73  -175.021195    1      1      
iter:  13  11:03:43         -3.86  -175.021196    2      1      
iter:  14  11:03:44         -3.91  -175.021262    1      1      
iter:  15  11:03:44         -4.05  -175.021222    1      1      

Converged after 15 iterations.

Dipole moment: (0.928260, -1.374762, -0.057782) |e|*Ang

Energy contributions relative to reference atoms: (reference = -24663.074771)

Kinetic:       +104.605058
Potential:     -111.009330
External:        +0.000000
XC:            -171.416034
Entropy (-ST):   -0.325971
Local:           +2.962070
--------------------------
Free energy:   -175.184208
Extrapolated:  -175.021222

Fermi level: -4.59418

 Band  Eigenvalues  Occupancy
    0    -23.47376    2.00000
    1    -23.23714    2.00000
    2    -22.39227    2.00000
    3    -21.12555    2.00000
    4    -20.76478    2.00000
    5    -20.26659    2.00000
    6    -19.87520    2.00000
    7    -19.25770    2.00000
    8    -18.96390    2.00000
    9    -18.55457    2.00000
   10    -17.98445    2.00000
   11    -17.37881    2.00000
   12    -16.81155    2.00000
   13    -16.25969    2.00000
   14    -15.75993    2.00000
   15    -14.97314    2.00000
   16    -14.83271    2.00000
   17    -14.42680    2.00000
   18    -13.83937    2.00000
   19    -13.56181    2.00000
   20    -12.99925    2.00000
   21    -12.48974    2.00000
   22    -11.47081    2.00000
   23    -11.08523    2.00000
   24    -10.87288    2.00000
   25    -10.69653    2.00000
   26    -10.43307    2.00000
   27    -10.30106    2.00000
   28    -10.15989    2.00000
   29     -9.72377    2.00000
   30     -9.42088    2.00000
   31     -9.20710    2.00000
   32     -9.14018    2.00000
   33     -8.47450    2.00000
   34     -8.41064    2.00000
   35     -8.18252    2.00000
   36     -8.13475    2.00000
   37     -7.44761    2.00000
   38     -6.94997    2.00000
   39     -6.66158    2.00000
   40     -6.50189    2.00000
   41     -6.33463    2.00000
   42     -5.91710    2.00000
   43     -5.55052    1.99986
   44     -5.32088    1.99860
   45     -5.14039    1.99155
   46     -4.98053    1.95887
   47     -4.62045    1.13058
   48     -4.56729    0.86632
   49     -4.23439    0.05330
   50     -3.81682    0.00084
   51     -3.56913    0.00007
   52     -2.95798    0.00000
   53     -2.82656    0.00000
   54     -2.13991    0.00000
   55     -1.92747    0.00000
   56     -1.44389    0.00000
   57     -1.15673    0.00000
   58     -0.70218    0.00000
   59     -0.56876    0.00000
   60     -0.07351    0.00000
   61      0.48633    0.00000
   62      0.92381    0.00000
   63      1.04737    0.00000
   64      1.13482    0.00000
   65      1.47940    0.00000
   66      2.55114    0.00000
   67      3.31751    0.00000
   68      3.56738    0.00000
   69      4.04605    0.00000
   70      4.30273    0.00000
   71      4.73676    0.00000
   72      5.07824    0.00000
   73      5.53429    0.00000
   74      5.93741    0.00000
   75      6.18846    0.00000
   76      6.85849    0.00000
   77      7.03453    0.00000
   78      7.23040    0.00000
   79      7.45614    0.00000
   80      7.75168    0.00000
   81      7.96122    0.00000
   82      8.27717    0.00000
   83      8.39118    0.00000
   84      8.95122    0.00000
   85      9.01139    0.00000
   86      9.16574    0.00000
   87      9.21079    0.00000
   88      9.24627    0.00000
   89      9.35110    0.00000
   90      9.45063    0.00000
   91      9.62187    0.00000
   92      9.67879    0.00000
   93      9.82498    0.00000
   94      9.92578    0.00000
   95     10.00912    0.00000
   96     10.08699    0.00000
   97     10.20431    0.00000


Forces in eV/Ang:
  0 C     0.21410   -0.38049   -0.69730
  1 C    -0.37817    0.73358   -0.10551
  2 C     1.13021   -0.46754    1.11557
  3 C    -0.93666   -0.29440   -0.07415
  4 C    -0.33120   -0.42727    0.19324
  5 C    -1.45279    0.16547   -0.64984
  6 C    -0.36657    0.62290    0.31650
  7 C     0.20773   -0.07316   -0.69536
  8 C     0.33162    0.03424    0.02369
  9 C     2.47592    1.34052    0.62249
 10 C    -0.15949   -0.15047    0.58993
 11 C     0.14251   -0.14150   -0.21353
 12 C    -1.30855    0.33614   -1.07624
 13 C    -0.11114   -0.41309    0.67648
 14 C    -1.71323   -0.32773   -0.65139
 15 C    -0.16727   -0.16243    0.04298
 16 C    -0.08061   -0.08974   -0.13723
 17 C    -0.09247   -0.05706   -0.12578
 18 C     0.23048   -0.30565   -0.13236
 19 C     0.21800    0.30220   -0.29999
 20 C     1.07311   -0.02688    0.16692
 21 C     0.16563    0.09522   -0.01656
 22 C     1.07225   -0.49423    1.08394
 23 C    -0.23754    0.05991    0.06115

System changes: positions 

Initializing position-dependent things.

Density initialized from wave functions
           .--------------------------------------.  
          /|                                      |  
         / |                                      |  
        /  |                                      |  
       /   |                                      |  
      /    |                                      |  
     /     |                                      |  
    /      |                                      |  
   /       |                                      |  
  /        |                                      |  
 *         | C C                                  |  
 |         |      C  C C    C  C  C               |  
 |         .--CC--C--C-----C----C-----------------.  
 |        /   C       C      C                   /   
 |       /      C     C    C                    /    
 |      /          C  CC                       /     
 |     /                                      /      
 |    /                                      /       
 |   /                                      /        
 |  /                                      /         
 | /                                      /          
 |/                                      /           
 *--------------------------------------*            

Positions:
   0 C      8.537101    2.334187    4.932909
   1 C     11.695008    7.883804    4.818885
   2 C      9.649538    3.187183    5.067364
   3 C     10.309576    8.173253    4.801185
   4 C     10.177739    4.322206    4.989855
   5 C      8.922186    7.912109    4.768511
   6 C     11.062504    6.679938    4.892115
   7 C      8.828921    6.508643    4.827211
   8 C     10.041768    5.731280    4.911592
   9 C      7.273851    5.888212    4.519760
  10 C      6.755567    2.296879    5.022788
  11 C      4.614482    3.472325    5.506531
  12 C      7.587233    3.270263    4.505014
  13 C      5.485580    2.527370    5.411565
  14 C      7.520137    4.616715    4.407644
  15 C      4.269798    4.754594    5.440802
  16 C      6.441127    7.021507    4.579657
  17 C      5.054645    7.124812    4.971194
  18 C      4.293051    6.020419    5.276084
  19 C      4.739934    8.584051    4.926371
  20 C      5.997212    9.259570    4.539371
  21 C      3.488000    9.085102    5.174448
  22 C      7.023860    8.363697    4.472701
  23 C      2.280845    9.561002    5.326563

Unit cell:
           periodic     x           y           z      points  spacing
  1. axis:    yes   16.000000    0.000000    0.000000    80     0.2000
  2. axis:    yes    0.000000   16.000000    0.000000    80     0.2000
  3. axis:    yes    0.000000    0.000000   10.000000    48     0.2083

Effective grid spacing dv^(1/3) = 0.2027

                     log10-error:    total        iterations:
           time      wfs    density  energy       fermi  poisson
iter:   1  11:03:46          +inf  -175.435130    3      5      
iter:   2  11:03:47         -2.13  -175.414490    3      2      
iter:   3  11:03:47         -2.31  -175.408047    2      1      
iter:   4  11:03:48         -2.40  -175.397266    2      2      
iter:   5  11:03:48         -2.63  -175.398165    2      2      
iter:   6  11:03:49         -2.67  -175.396280    3      2      
iter:   7  11:03:49         -2.76  -175.396753    2      2      
iter:   8  11:03:50         -2.94  -175.396141    2      2      
iter:   9  11:03:50         -3.20  -175.396170    2      1      
iter:  10  11:03:51         -3.46  -175.395907    2      1      
iter:  11  11:03:51         -3.58  -175.395748    2      1      
iter:  12  11:03:52         -3.79  -175.395884    1      1      
iter:  13  11:03:52         -3.87  -175.395812    2      1      
iter:  14  11:03:53         -4.02  -175.395836    1      1      

Converged after 14 iterations.

Dipole moment: (0.927596, -1.337387, -0.058592) |e|*Ang

Energy contributions relative to reference atoms: (reference = -24663.074771)

Kinetic:       +101.801766
Potential:     -109.004868
External:        +0.000000
XC:            -170.982963
Entropy (-ST):   -0.324876
Local:           +2.952667
--------------------------
Free energy:   -175.558274
Extrapolated:  -175.395836

Fermi level: -4.58656

 Band  Eigenvalues  Occupancy
    0    -23.47996    2.00000
    1    -23.12508    2.00000
    2    -22.38610    2.00000
    3    -21.11973    2.00000
    4    -20.73240    2.00000
    5    -20.24218    2.00000
    6    -19.86070    2.00000
    7    -19.24499    2.00000
    8    -18.96073    2.00000
    9    -18.52329    2.00000
   10    -17.98730    2.00000
   11    -17.34663    2.00000
   12    -16.79594    2.00000
   13    -16.24195    2.00000
   14    -15.72028    2.00000
   15    -14.95318    2.00000
   16    -14.82068    2.00000
   17    -14.41955    2.00000
   18    -13.82650    2.00000
   19    -13.57417    2.00000
   20    -12.95304    2.00000
   21    -12.49021    2.00000
   22    -11.46731    2.00000
   23    -11.03344    2.00000
   24    -10.82669    2.00000
   25    -10.66485    2.00000
   26    -10.41660    2.00000
   27    -10.27962    2.00000
   28    -10.16075    2.00000
   29     -9.75807    2.00000
   30     -9.40168    2.00000
   31     -9.31239    2.00000
   32     -9.13686    2.00000
   33     -8.46769    2.00000
   34     -8.39078    2.00000
   35     -8.27305    2.00000
   36     -8.13140    2.00000
   37     -7.43897    2.00000
   38     -6.95774    2.00000
   39     -6.65974    2.00000
   40     -6.50878    2.00000
   41     -6.31070    2.00000
   42     -5.91941    2.00000
   43     -5.54852    1.99987
   44     -5.32886    1.99881
   45     -5.14315    1.99238
   46     -4.99107    1.96559
   47     -4.60846    1.10909
   48     -4.56185    0.87707
   49     -4.23088    0.05548
   50     -3.87787    0.00167
   51     -3.53783    0.00006
   52     -2.96880    0.00000
   53     -2.79751    0.00000
   54     -2.02895    0.00000
   55     -1.91162    0.00000
   56     -1.41754    0.00000
   57     -1.18010    0.00000
   58     -0.71148    0.00000
   59     -0.56775    0.00000
   60      0.01627    0.00000
   61      0.47341    0.00000
   62      0.91889    0.00000
   63      1.02417    0.00000
   64      1.12835    0.00000
   65      1.59038    0.00000
   66      2.68198    0.00000
   67      3.30985    0.00000
   68      3.54807    0.00000
   69      4.00520    0.00000
   70      4.26782    0.00000
   71      4.72845    0.00000
   72      5.00862    0.00000
   73      5.47256    0.00000
   74      5.90330    0.00000
   75      6.21273    0.00000
   76      6.81743    0.00000
   77      7.02081    0.00000
   78      7.24848    0.00000
   79      7.37547    0.00000
   80      7.76357    0.00000
   81      8.03259    0.00000
   82      8.28086    0.00000
   83      8.36813    0.00000
   84      8.98310    0.00000
   85      9.00737    0.00000
   86      9.15995    0.00000
   87      9.22609    0.00000
   88      9.23137    0.00000
   89      9.35680    0.00000
   90      9.45525    0.00000
   91      9.60668    0.00000
   92      9.67788    0.00000
   93      9.81601    0.00000
   94      9.92334    0.00000
   95     10.01005    0.00000
   96     10.06082    0.00000
   97     10.20907    0.00000


Forces in eV/Ang:
  0 C    -0.05009    0.10704   -0.76890
  1 C    -0.56939    0.77443   -0.08856
  2 C     0.59417   -0.67598    0.99575
  3 C    -0.80470   -0.18269   -0.09484
  4 C    -0.25145   -0.11827    0.18977
  5 C    -1.20983    0.25385   -0.61855
  6 C    -0.31284    0.61314    0.26515
  7 C    -0.26411   -0.33599   -0.70778
  8 C     0.27341   -0.01826    0.02189
  9 C     2.36984    0.77610    0.54103
 10 C    -0.10779   -0.37654    0.66861
 11 C     0.08349   -0.02914   -0.17270
 12 C    -0.53212    0.27970   -0.98583
 13 C    -0.19259   -0.41970    0.68942
 14 C    -1.72413    0.06540   -0.59435
 15 C    -0.14246   -0.35715    0.04739
 16 C     0.18685   -0.19792   -0.02210
 17 C    -0.00612    0.03430   -0.20523
 18 C     0.22089   -0.18255   -0.15634
 19 C     0.26292    0.21897   -0.27302
 20 C     0.84671    0.06551    0.25965
 21 C     0.10921    0.17862   -0.04444
 22 C     1.26107   -0.54048    0.99754
 23 C    -0.02007   -0.02812    0.03504

System changes: positions 

Initializing position-dependent things.

Density initialized from wave functions
           .--------------------------------------.  
          /|                                      |  
         / |                                      |  
        /  |                                      |  
       /   |                                      |  
      /    |                                      |  
     /     |                                      |  
    /      |                                      |  
   /       |                                      |  
  /        |                                      |  
 *         | C C                                  |  
 |         |      C  C C    C  C  C               |  
 |         .---C--C--C-----C----C-----------------.  
 |        /   C        C     C                   /   
 |       /      C     C    C                    /    
 |      /          C C C                       /     
 |     /                                      /      
 |    /                                      /       
 |   /                                      /        
 |  /                                      /         
 | /                                      /          
 |/                                      /           
 *--------------------------------------*            

Positions:
   0 C      8.538160    2.332068    4.922175
   1 C     11.688529    7.894610    4.817429
   2 C      9.662692    3.176273    5.083599
   3 C     10.296384    8.169737    4.799912
   4 C     10.174668    4.320286    4.992703
   5 C      8.901119    7.913699    4.758892
   6 C     11.057362    6.689415    4.896391
   7 C      8.830520    6.506918    4.816809
   8 C     10.045607    5.731637    4.911876
   9 C      7.309670    5.903916    4.528150
  10 C      6.756334    2.295807    5.031187
  11 C      4.616072    3.470955    5.503658
  12 C      7.569439    3.270449    4.490708
  13 C      5.484080    2.521358    5.421681
  14 C      7.494405    4.616530    4.398127
  15 C      4.267575    4.750411    5.441436
  16 C      6.440565    7.020506    4.578505
  17 C      5.054177    7.124312    4.968733
  18 C      4.296518    6.017417    5.273827
  19 C      4.743609    8.587498    4.922131
  20 C      6.014181    9.258278    4.542118
  21 C      3.489697    9.087120    5.174129
  22 C      7.039596    8.357365    4.488628
  23 C      2.278873    9.561289    5.327192

Unit cell:
           periodic     x           y           z      points  spacing
  1. axis:    yes   16.000000    0.000000    0.000000    80     0.2000
  2. axis:    yes    0.000000   16.000000    0.000000    80     0.2000
  3. axis:    yes    0.000000    0.000000   10.000000    48     0.2083

Effective grid spacing dv^(1/3) = 0.2027

                     log10-error:    total        iterations:
           time      wfs    density  energy       fermi  poisson
iter:   1  11:03:54          +inf  -175.779776    3      5      
iter:   2  11:03:55         -2.12  -175.756952    3      2      
iter:   3  11:03:55         -2.32  -175.750602    2      1      
iter:   4  11:03:56         -2.41  -175.739511    2      2      
iter:   5  11:03:56         -2.63  -175.739372    2      1      
iter:   6  11:03:57         -2.70  -175.737915    2      2      
iter:   7  11:03:57         -2.82  -175.738803    2      1      
iter:   8  11:03:58         -2.90  -175.737936    2      2      
iter:   9  11:03:58         -3.19  -175.738252    2      1      
iter:  10  11:03:59         -3.37  -175.737789    2      1      
iter:  11  11:03:59         -3.50  -175.737444    2      1      
iter:  12  11:04:00         -3.74  -175.737534    2      1      
iter:  13  11:04:00         -3.87  -175.737462    1      1      
iter:  14  11:04:01         -3.92  -175.737385    2      1      
iter:  15  11:04:01         -4.01  -175.737314    2      1      

Converged after 15 iterations.

Dipole moment: (0.930388, -1.299171, -0.060402) |e|*Ang

Energy contributions relative to reference atoms: (reference = -24663.074771)

Kinetic:        +98.353367
Potential:     -106.468089
External:        +0.000000
XC:            -170.413472
Entropy (-ST):   -0.325374
Local:           +2.953566
--------------------------
Free energy:   -175.900001
Extrapolated:  -175.737314

Fermi level: -4.58020

 Band  Eigenvalues  Occupancy
    0    -23.49379    2.00000
    1    -23.01222    2.00000
    2    -22.37933    2.00000
    3    -21.13066    2.00000
    4    -20.70311    2.00000
    5    -20.22067    2.00000
    6    -19.83768    2.00000
    7    -19.22273    2.00000
    8    -18.95815    2.00000
    9    -18.49303    2.00000
   10    -17.97913    2.00000
   11    -17.31415    2.00000
   12    -16.76550    2.00000
   13    -16.23548    2.00000
   14    -15.68533    2.00000
   15    -14.95327    2.00000
   16    -14.81069    2.00000
   17    -14.41122    2.00000
   18    -13.81211    2.00000
   19    -13.58012    2.00000
   20    -12.89748    2.00000
   21    -12.48103    2.00000
   22    -11.47081    2.00000
   23    -10.98549    2.00000
   24    -10.79568    2.00000
   25    -10.62922    2.00000
   26    -10.39682    2.00000
   27    -10.24717    2.00000
   28    -10.16866    2.00000
   29     -9.80337    2.00000
   30     -9.49706    2.00000
   31     -9.33879    2.00000
   32     -9.12449    2.00000
   33     -8.46959    2.00000
   34     -8.38220    2.00000
   35     -8.34946    2.00000
   36     -8.12488    2.00000
   37     -7.42633    2.00000
   38     -6.96868    2.00000
   39     -6.65149    2.00000
   40     -6.49928    2.00000
   41     -6.27628    2.00000
   42     -5.91224    2.00000
   43     -5.53852    1.99986
   44     -5.34051    1.99900
   45     -5.14449    1.99294
   46     -4.99336    1.96839
   47     -4.59890    1.09321
   48     -4.55738    0.88640
   49     -4.22708    0.05687
   50     -3.93879    0.00327
   51     -3.51247    0.00005
   52     -2.98549    0.00000
   53     -2.78456    0.00000
   54     -1.94762    0.00000
   55     -1.86430    0.00000
   56     -1.39735    0.00000
   57     -1.21555    0.00000
   58     -0.72855    0.00000
   59     -0.56183    0.00000
   60      0.09235    0.00000
   61      0.46045    0.00000
   62      0.88671    0.00000
   63      0.99336    0.00000
   64      1.11476    0.00000
   65      1.65622    0.00000
   66      2.82684    0.00000
   67      3.33643    0.00000
   68      3.52026    0.00000
   69      3.99587    0.00000
   70      4.24246    0.00000
   71      4.69963    0.00000
   72      4.97085    0.00000
   73      5.40771    0.00000
   74      5.85842    0.00000
   75      6.22267    0.00000
   76      6.75421    0.00000
   77      6.99384    0.00000
   78      7.22510    0.00000
   79      7.36264    0.00000
   80      7.79837    0.00000
   81      8.08616    0.00000
   82      8.25914    0.00000
   83      8.37442    0.00000
   84      8.94380    0.00000
   85      9.03677    0.00000
   86      9.13153    0.00000
   87      9.20643    0.00000
   88      9.24380    0.00000
   89      9.36775    0.00000
   90      9.45256    0.00000
   91      9.59815    0.00000
   92      9.66811    0.00000
   93      9.80895    0.00000
   94      9.91608    0.00000
   95     10.00005    0.00000
   96     10.03643    0.00000
   97     10.21806    0.00000


Forces in eV/Ang:
  0 C    -0.34159    0.43602   -0.83084
  1 C    -0.66597    0.81578   -0.07482
  2 C     0.33233   -0.43901    0.86675
  3 C    -0.72613   -0.06056   -0.11787
  4 C    -0.31258   -0.26940    0.22513
  5 C    -1.00515    0.21993   -0.56806
  6 C    -0.29885    0.60091    0.23725
  7 C    -0.55761   -0.44800   -0.66820
  8 C     0.17200    0.01523    0.00577
  9 C     2.01477    0.51954    0.45456
 10 C    -0.03485   -0.45532    0.68481
 11 C     0.14304   -0.16728   -0.12625
 12 C     0.00852    0.22964   -0.87259
 13 C    -0.23466   -0.38565    0.67440
 14 C    -1.61895    0.11730   -0.51402
 15 C    -0.15253   -0.09884    0.00415
 16 C     0.48339   -0.32463    0.08775
 17 C     0.09154    0.07621   -0.27285
 18 C     0.19589   -0.31163   -0.14154
 19 C     0.29523    0.15667   -0.23421
 20 C     0.64804    0.12822    0.30443
 21 C     0.13385    0.22308   -0.08156
 22 C     1.37128   -0.57167    0.93083
 23 C     0.12402   -0.08355    0.01349

System changes: positions 

Initializing position-dependent things.

Density initialized from wave functions
           .--------------------------------------.  
          /|                                      |  
         / |                                      |  
        /  |                                      |  
       /   |                                      |  
      /    |                                      |  
     /     |                                      |  
    /      |                                      |  
   /       |                                      |  
  /        |                                      |  
 *         | C C                                  |  
 |         |      C  C C    C  C  C               |  
 |         .---C--C--C-----C----C-----------------.  
 |        /   C        C    CC                   /   
 |       /      C     C    C                    /    
 |      /          C C C                       /     
 |     /                                      /      
 |    /                                      /       
 |   /                                      /        
 |  /                                      /         
 | /                                      /          
 |/                                      /           
 *--------------------------------------*            

Positions:
   0 C      8.537039    2.331032    4.910130
   1 C     11.680539    7.907529    4.815923
   2 C      9.675621    3.167049    5.100793
   3 C     10.281818    8.167387    4.798153
   4 C     10.170534    4.316259    4.996442
   5 C      8.879088    7.914400    4.748506
   6 C     11.051380    6.699823    4.900973
   7 C      8.829567    6.504141    4.805481
   8 C     10.048509    5.732644    4.911968
   9 C      7.345947    5.918518    4.536563
  10 C      6.758689    2.294322    5.040646
  11 C      4.618291    3.468013    5.501017
  12 C      7.552279    3.271661    4.474992
  13 C      5.482634    2.514621    5.432931
  14 C      7.466426    4.616969    4.388278
  15 C      4.264940    4.748690    5.441608
  16 C      6.443314    7.018234    4.578581
  17 C      5.054740    7.123849    4.965149
  18 C      4.300381    6.012833    5.271330
  19 C      4.747799    8.590722    4.917897
  20 C      6.032005    9.257106    4.545601
  21 C      3.493226    9.089424    5.173134
  22 C      7.058434    8.350105    4.506206
  23 C      2.277437    9.561328    5.327756

Unit cell:
           periodic     x           y           z      points  spacing
  1. axis:    yes   16.000000    0.000000    0.000000    80     0.2000
  2. axis:    yes    0.000000   16.000000    0.000000    80     0.2000
  3. axis:    yes    0.000000    0.000000   10.000000    48     0.2083

Effective grid spacing dv^(1/3) = 0.2027

                     log10-error:    total        iterations:
           time      wfs    density  energy       fermi  poisson
iter:   1  11:04:03          +inf  -176.103246    3      5      
iter:   2  11:04:04         -2.11  -176.080851    2      2      
iter:   3  11:04:04         -2.28  -176.073340    2      1      
iter:   4  11:04:05         -2.37  -176.059569    2      2      
iter:   5  11:04:05         -2.59  -176.058983    2      1      
iter:   6  11:04:06         -2.67  -176.057595    2      2      
iter:   7  11:04:06         -2.81  -176.058713    2      2      
iter:   8  11:04:07         -2.85  -176.057460    2      2      
iter:   9  11:04:07         -3.18  -176.057841    2      1      
iter:  10  11:04:08         -3.35  -176.057428    2      1      
iter:  11  11:04:08         -3.50  -176.057021    2      1      
iter:  12  11:04:09         -3.74  -176.057174    2      1      
iter:  13  11:04:09         -3.85  -176.057072    2      1      
iter:  14  11:04:10         -3.94  -176.056949    2      1      
iter:  15  11:04:10         -4.13  -176.057122    2      1      

Converged after 15 iterations.

Dipole moment: (0.927491, -1.261598, -0.061628) |e|*Ang

Energy contributions relative to reference atoms: (reference = -24663.074771)

Kinetic:        +94.918476
Potential:     -103.931975
External:        +0.000000
XC:            -169.832069
Entropy (-ST):   -0.328432
Local:           +2.952662
--------------------------
Free energy:   -176.221338
Extrapolated:  -176.057122

Fermi level: -4.57498

 Band  Eigenvalues  Occupancy
    0    -23.49996    2.00000
    1    -22.91323    2.00000
    2    -22.36828    2.00000
    3    -21.14647    2.00000
    4    -20.67035    2.00000
    5    -20.19870    2.00000
    6    -19.81111    2.00000
    7    -19.19779    2.00000
    8    -18.95514    2.00000
    9    -18.45752    2.00000
   10    -17.96417    2.00000
   11    -17.28612    2.00000
   12    -16.73646    2.00000
   13    -16.23004    2.00000
   14    -15.63709    2.00000
   15    -14.96470    2.00000
   16    -14.79852    2.00000
   17    -14.39710    2.00000
   18    -13.79497    2.00000
   19    -13.57624    2.00000
   20    -12.83563    2.00000
   21    -12.46343    2.00000
   22    -11.47685    2.00000
   23    -10.93649    2.00000
   24    -10.77263    2.00000
   25    -10.58656    2.00000
   26    -10.37732    2.00000
   27    -10.21344    2.00000
   28    -10.17014    2.00000
   29     -9.84777    2.00000
   30     -9.64123    2.00000
   31     -9.31720    2.00000
   32     -9.10700    2.00000
   33     -8.49136    2.00000
   34     -8.40710    2.00000
   35     -8.36289    2.00000
   36     -8.11731    2.00000
   37     -7.41536    2.00000
   38     -6.97928    2.00000
   39     -6.64078    2.00000
   40     -6.48943    2.00000
   41     -6.25922    2.00000
   42     -5.90098    2.00000
   43     -5.52699    1.99985
   44     -5.35338    1.99917
   45     -5.15383    1.99389
   46     -4.99052    1.96913
   47     -4.58855    1.06772
   48     -4.55546    0.90271
   49     -4.22983    0.06144
   50     -3.99516    0.00605
   51     -3.47658    0.00003
   52     -3.00276    0.00000
   53     -2.76369    0.00000
   54     -1.92403    0.00000
   55     -1.74088    0.00000
   56     -1.35699    0.00000
   57     -1.23819    0.00000
   58     -0.74503    0.00000
   59     -0.55525    0.00000
   60      0.15864    0.00000
   61      0.44657    0.00000
   62      0.83953    0.00000
   63      0.96355    0.00000
   64      1.10132    0.00000
   65      1.67542    0.00000
   66      2.89615    0.00000
   67      3.35856    0.00000
   68      3.52616    0.00000
   69      4.06383    0.00000
   70      4.22172    0.00000
   71      4.64513    0.00000
   72      4.96802    0.00000
   73      5.34824    0.00000
   74      5.82000    0.00000
   75      6.21510    0.00000
   76      6.66831    0.00000
   77      6.95305    0.00000
   78      7.20849    0.00000
   79      7.35567    0.00000
   80      7.84886    0.00000
   81      8.07986    0.00000
   82      8.26047    0.00000
   83      8.39624    0.00000
   84      8.89348    0.00000
   85      9.06155    0.00000
   86      9.10235    0.00000
   87      9.18515    0.00000
   88      9.25624    0.00000
   89      9.38273    0.00000
   90      9.44953    0.00000
   91      9.58089    0.00000
   92      9.65655    0.00000
   93      9.78688    0.00000
   94      9.91461    0.00000
   95      9.97483    0.00000
   96     10.03508    0.00000
   97     10.23000    0.00000


Forces in eV/Ang:
  0 C    -0.56804    0.72473   -0.83891
  1 C    -0.81333    0.83328   -0.05808
  2 C    -0.02764   -0.49050    0.74295
  3 C    -0.64471    0.05329   -0.10143
  4 C    -0.28242   -0.09430    0.23273
  5 C    -0.78879    0.23500   -0.50165
  6 C    -0.31116    0.55598    0.17770
  7 C    -0.68494   -0.53859   -0.61706
  8 C     0.07949   -0.00041   -0.01181
  9 C     1.53251    0.14628    0.33317
 10 C     0.10877   -0.49019    0.64668
 11 C     0.13807   -0.11694   -0.07845
 12 C     0.36468    0.22317   -0.79932
 13 C    -0.24882   -0.34815    0.65929
 14 C    -1.47030    0.19837   -0.43737
 15 C    -0.13169   -0.27031    0.00606
 16 C     0.65595   -0.38022    0.21420
 17 C     0.19717    0.08918   -0.32584
 18 C     0.21831   -0.16610   -0.16910
 19 C     0.38328    0.04531   -0.20254
 20 C     0.56059    0.12499    0.34943
 21 C     0.04813    0.30088   -0.09697
 22 C     1.42267   -0.54971    0.86764
 23 C     0.31862   -0.15874   -0.01407

System changes: positions 

Initializing position-dependent things.

Density initialized from wave functions
           .--------------------------------------.  
          /|                                      |  
         / |                                      |  
        /  |                                      |  
       /   |                                      |  
      /    |                                      |  
     /     |                                      |  
    /      |                                      |  
   /       |                                      |  
  /        |                                      |  
 *         | C C                                  |  
 |         |      C   CC    C  C  C               |  
 |         .---C--C--C-----C----C-----------------.  
 |        /   C        C    CC                   /   
 |       /      C     C    C                    /    
 |      /          C C C                       /     
 |     /                                      /      
 |    /                                      /       
 |   /                                      /        
 |  /                                      /         
 | /                                      /          
 |/                                      /           
 *--------------------------------------*            

Positions:
   0 C      8.533625    2.331723    4.896113
   1 C     11.669074    7.923445    4.814322
   2 C      9.687463    3.155798    5.120104
   3 C     10.264973    8.166117    4.796315
   4 C     10.165746    4.313253    5.001118
   5 C      8.855027    7.915176    4.736825
   6 C     11.043733    6.711703    4.905710
   7 C      8.827584    6.499964    4.792518
   8 C     10.050637    5.733841    4.911809
   9 C      7.382727    5.931748    4.545059
  10 C      6.763808    2.292472    5.051331
  11 C      4.620768    3.465375    5.498489
  12 C      7.533697    3.274805    4.456180
  13 C      5.481073    2.506865    5.446333
  14 C      7.434868    4.617426    4.377373
  15 C      4.262048    4.743873    5.441879
  16 C      6.448683    7.015010    4.580405
  17 C      5.056863    7.123160    4.960147
  18 C      4.305546    6.009656    5.267843
  19 C      4.754056    8.593102    4.913213
  20 C      6.053040    9.255318    4.550308
  21 C      3.496689    9.093103    5.171688
  22 C      7.081633    8.341771    4.526831
  23 C      2.277942    9.560516    5.328120

Unit cell:
           periodic     x           y           z      points  spacing
  1. axis:    yes   16.000000    0.000000    0.000000    80     0.2000
  2. axis:    yes    0.000000   16.000000    0.000000    80     0.2000
  3. axis:    yes    0.000000    0.000000   10.000000    48     0.2083

Effective grid spacing dv^(1/3) = 0.2027

                     log10-error:    total        iterations:
           time      wfs    density  energy       fermi  poisson
iter:   1  11:04:12          +inf  -176.430222    3      5      
iter:   2  11:04:12         -2.02  -176.397186    3      2      
iter:   3  11:04:13         -2.22  -176.387073    2      1      
iter:   4  11:04:13         -2.33  -176.369782    2      2      
iter:   5  11:04:14         -2.53  -176.368034    2      2      
iter:   6  11:04:14         -2.62  -176.366807    3      2      
iter:   7  11:04:15         -2.67  -176.371201    3      2      
iter:   8  11:04:15         -2.60  -176.367402    3      1      
iter:   9  11:04:16         -3.02  -176.365854    2      2      
iter:  10  11:04:16         -3.10  -176.366577    2      1      
iter:  11  11:04:17         -3.07  -176.366157    2      1      
iter:  12  11:04:17         -3.59  -176.365716    2      1      
iter:  13  11:04:18         -3.71  -176.365686    2      1      
iter:  14  11:04:18         -3.77  -176.365610    2      1      
iter:  15  11:04:19         -3.77  -176.365559    2      1      
iter:  16  11:04:19         -4.13  -176.365728    2      1      

Converged after 16 iterations.

Dipole moment: (0.929828, -1.224614, -0.063548) |e|*Ang

Energy contributions relative to reference atoms: (reference = -24663.074771)

Kinetic:        +91.063944
Potential:     -101.045256
External:        +0.000000
XC:            -169.172820
Entropy (-ST):   -0.334494
Local:           +2.955651
--------------------------
Free energy:   -176.532975
Extrapolated:  -176.365728

Fermi level: -4.57393

 Band  Eigenvalues  Occupancy
    0    -23.51111    2.00000
    1    -22.82628    2.00000
    2    -22.36361    2.00000
    3    -21.16998    2.00000
    4    -20.63642    2.00000
    5    -20.17811    2.00000
    6    -19.77643    2.00000
    7    -19.16455    2.00000
    8    -18.95121    2.00000
    9    -18.42167    2.00000
   10    -17.94744    2.00000
   11    -17.26786    2.00000
   12    -16.69590    2.00000
   13    -16.23347    2.00000
   14    -15.59232    2.00000
   15    -14.98810    2.00000
   16    -14.78702    2.00000
   17    -14.38939    2.00000
   18    -13.78332    2.00000
   19    -13.56335    2.00000
   20    -12.77377    2.00000
   21    -12.43852    2.00000
   22    -11.48280    2.00000
   23    -10.89687    2.00000
   24    -10.75423    2.00000
   25    -10.54475    2.00000
   26    -10.37447    2.00000
   27    -10.21104    2.00000
   28    -10.12946    2.00000
   29     -9.92159    2.00000
   30     -9.75910    2.00000
   31     -9.29770    2.00000
   32     -9.08809    2.00000
   33     -8.54449    2.00000
   34     -8.42250    2.00000
   35     -8.35504    2.00000
   36     -8.10879    2.00000
   37     -7.40219    2.00000
   38     -6.99212    2.00000
   39     -6.62444    2.00000
   40     -6.46764    2.00000
   41     -6.24381    2.00000
   42     -5.88472    2.00000
   43     -5.51606    1.99984
   44     -5.37164    1.99931
   45     -5.15975    1.99430
   46     -4.97730    1.96520
   47     -4.58230    1.04181
   48     -4.55837    0.92237
   49     -4.23757    0.06691
   50     -4.04704    0.01025
   51     -3.44532    0.00003
   52     -3.01239    0.00000
   53     -2.75557    0.00000
   54     -1.92514    0.00000
   55     -1.64158    0.00000
   56     -1.28027    0.00000
   57     -1.25724    0.00000
   58     -0.74638    0.00000
   59     -0.54984    0.00000
   60      0.21499    0.00000
   61      0.44489    0.00000
   62      0.79380    0.00000
   63      0.94535    0.00000
   64      1.08129    0.00000
   65      1.67185    0.00000
   66      2.89568    0.00000
   67      3.31833    0.00000
   68      3.53419    0.00000
   69      4.19128    0.00000
   70      4.19992    0.00000
   71      4.58924    0.00000
   72      4.98413    0.00000
   73      5.28775    0.00000
   74      5.80138    0.00000
   75      6.18561    0.00000
   76      6.54949    0.00000
   77      6.90564    0.00000
   78      7.21278    0.00000
   79      7.38133    0.00000
   80      7.92753    0.00000
   81      8.00547    0.00000
   82      8.30013    0.00000
   83      8.43004    0.00000
   84      8.83812    0.00000
   85      9.06277    0.00000
   86      9.07888    0.00000
   87      9.16401    0.00000
   88      9.25848    0.00000
   89      9.39820    0.00000
   90      9.44400    0.00000
   91      9.56462    0.00000
   92      9.64330    0.00000
   93      9.75356    0.00000
   94      9.91544    0.00000
   95      9.94982    0.00000
   96     10.04532    0.00000
   97     10.24561    0.00000


Forces in eV/Ang:
  0 C    -0.78708    0.93673   -0.78552
  1 C    -0.90276    0.78494   -0.05851
  2 C    -0.29211   -0.30756    0.60267
  3 C    -0.58519    0.16450   -0.10158
  4 C    -0.33646   -0.17795    0.25726
  5 C    -0.59792    0.20094   -0.41439
  6 C    -0.30638    0.52675    0.15489
  7 C    -0.68883   -0.54131   -0.52780
  8 C     0.00046    0.01372   -0.03520
  9 C     0.81859   -0.34717    0.14479
 10 C     0.21776   -0.48548    0.62170
 11 C     0.19497   -0.22311   -0.02024
 12 C     0.60990    0.26396   -0.67675
 13 C    -0.14689   -0.31986    0.59709
 14 C    -1.28027    0.36525   -0.35626
 15 C    -0.13478    0.00870   -0.05011
 16 C     0.84430   -0.42018    0.34375
 17 C     0.30779    0.11057   -0.36919
 18 C     0.20407   -0.34090   -0.14294
 19 C     0.39389   -0.00153   -0.16403
 20 C     0.45909    0.04603    0.37153
 21 C     0.19709    0.27284   -0.14492
 22 C     1.43958   -0.50688    0.75239
 23 C     0.37962   -0.17721   -0.02308

System changes: positions 

Initializing position-dependent things.

Density initialized from wave functions
           .--------------------------------------.  
          /|                                      |  
         / |                                      |  
        /  |                                      |  
       /   |                                      |  
      /    |                                      |  
     /     |                                      |  
    /      |                                      |  
   /       |                                      |  
  /        |                                      |  
 *         | C C                                  |  
[...]
   12    -16.69151    2.00000
   13    -16.27630    2.00000
   14    -15.71307    2.00000
   15    -15.31155    2.00000
   16    -14.75992    2.00000
   17    -14.56487    2.00000
   18    -13.90514    2.00000
   19    -13.77715    2.00000
   20    -12.88095    2.00000
   21    -12.06481    2.00000
   22    -11.62604    2.00000
   23    -11.35173    2.00000
   24    -11.08612    2.00000
   25    -10.77791    2.00000
   26    -10.53413    2.00000
   27    -10.22901    2.00000
   28    -10.19756    2.00000
   29     -9.85407    2.00000
   30     -9.80509    2.00000
   31     -9.19751    2.00000
   32     -9.14395    2.00000
   33     -8.94705    2.00000
   34     -8.76859    2.00000
   35     -8.35614    2.00000
   36     -8.31956    2.00000
   37     -7.68573    2.00000
   38     -7.12301    2.00000
   39     -6.85895    2.00000
   40     -6.66990    2.00000
   41     -6.19109    2.00000
   42     -5.99447    2.00000
   43     -5.59143    1.99993
   44     -5.23790    1.99753
   45     -5.01278    1.97679
   46     -4.92852    1.94692
   47     -4.70056    1.57924
   48     -4.45229    0.47734
   49     -4.11334    0.02092
   50     -3.83556    0.00131
   51     -3.22737    0.00000
   52     -3.17472    0.00000
   53     -2.49547    0.00000
   54     -1.90407    0.00000
   55     -1.69082    0.00000
   56     -1.08673    0.00000
   57     -0.79817    0.00000
   58     -0.53092    0.00000
   59     -0.35255    0.00000
   60      0.41836    0.00000
   61      0.91955    0.00000
   62      1.12471    0.00000
   63      1.36281    0.00000
   64      1.65679    0.00000
   65      2.60180    0.00000
   66      2.73937    0.00000
   67      3.11190    0.00000
   68      3.34678    0.00000
   69      4.12512    0.00000
   70      5.05525    0.00000
   71      5.12280    0.00000
   72      5.48018    0.00000
   73      5.66605    0.00000
   74      6.05038    0.00000
   75      6.15517    0.00000
   76      6.68783    0.00000
   77      7.03427    0.00000
   78      7.37382    0.00000
   79      7.65788    0.00000
   80      7.79861    0.00000
   81      8.05015    0.00000
   82      8.16918    0.00000
   83      8.44951    0.00000
   84      8.54268    0.00000
   85      8.83872    0.00000
   86      8.98055    0.00000
   87      9.09931    0.00000
   88      9.19388    0.00000
   89      9.37048    0.00000
   90      9.45113    0.00000
   91      9.56119    0.00000
   92      9.70435    0.00000
   93      9.85247    0.00000
   94      9.92815    0.00000
   95      9.98087    0.00000
   96     10.10765    0.00000
   97     10.20656    0.00000


Forces in eV/Ang:
  0 C     0.01680    0.06434    0.01554
  1 C    -0.08818    0.02496    0.04671
  2 C    -0.12964   -0.04095    0.00091
  3 C    -0.03099    0.13144   -0.04652
  4 C     0.00810   -0.08153   -0.02608
  5 C     0.10079    0.13103    0.09032
  6 C    -0.11671   -0.23277   -0.11985
  7 C    -0.00462    0.08589    0.06487
  8 C    -0.05341   -0.10695    0.00137
  9 C    -0.05673    0.01798    0.08448
 10 C     0.09257    0.04717    0.09266
 11 C     0.02624    0.02856    0.03399
 12 C    -0.03865    0.20767   -0.10240
 13 C    -0.00621   -0.04793   -0.01760
 14 C     0.11556   -0.03929    0.10567
 15 C     0.00561    0.08205   -0.04142
 16 C     0.03685   -0.02621   -0.00931
 17 C     0.15479    0.01322   -0.07560
 18 C     0.06253    0.01434   -0.08528
 19 C     0.05716    0.17140    0.05890
 20 C    -0.03549   -0.29680   -0.11220
 21 C    -0.09267   -0.01419    0.03057
 22 C    -0.03242   -0.06145   -0.01097
 23 C     0.04286   -0.06051    0.05265

System changes: positions 

Initializing position-dependent things.

Density initialized from wave functions
           .--------------------------------------.  
          /|                                      |  
         / |                                      |  
        /  |                                      |  
       /   |                                      |  
      /    |                                      |  
     /     |                                      |  
    /      |                                      |  
   /       |                                      |  
  /        |                                      |  
 *         |  C C     C           C               |  
 |         |       C    C     C C                 |  
 |         .---CC-C--------C----------------------.  
 |        /    CC    C    C CC                   /   
 |       /         C   C                        /    
 |      /            C                         /     
 |     /                                      /      
 |    /                                      /       
 |   /                                      /        
 |  /                                      /         
 | /                                      /          
 |/                                      /           
 *--------------------------------------*            

Positions:
   0 C      8.238512    2.684919    5.156745
   1 C     11.283764    8.274229    5.446676
   2 C      9.372240    3.392009    5.395795
   3 C      9.931111    8.170924    4.978081
   4 C      9.936566    4.498712    5.109113
   5 C      8.648695    7.797878    4.436216
   6 C     10.744994    6.981620    5.125096
   7 C      8.748224    6.384788    4.139480
   8 C      9.981592    5.829612    4.693985
   9 C      7.398050    5.811655    3.908158
  10 C      6.895114    2.289053    5.122587
  11 C      4.839906    3.379812    5.810003
  12 C      7.219663    3.251542    4.084006
  13 C      5.707149    2.438926    5.878348
  14 C      7.054684    4.493827    3.730687
  15 C      4.438358    4.643025    5.606868
  16 C      6.516789    6.886336    4.261721
  17 C      5.225963    6.995435    4.844809
  18 C      4.534743    5.854219    5.223224
  19 C      5.064447    8.499245    5.109607
  20 C      6.383672    9.116501    5.034166
  21 C      3.843920    9.107959    5.253179
  22 C      7.257616    8.167493    4.502349
  23 C      2.689713    9.715297    5.291425

Unit cell:
           periodic     x           y           z      points  spacing
  1. axis:    yes   16.000000    0.000000    0.000000    80     0.2000
  2. axis:    yes    0.000000   16.000000    0.000000    80     0.2000
  3. axis:    yes    0.000000    0.000000   10.000000    48     0.2083

Effective grid spacing dv^(1/3) = 0.2027

                     log10-error:    total        iterations:
           time      wfs    density  energy       fermi  poisson
iter:   1  11:10:56          +inf  -179.672148    3      5      
iter:   2  11:10:57         -2.45  -179.673731    3      1      
iter:   3  11:10:57         -2.63  -179.673405    2      1      
iter:   4  11:10:58         -2.70  -179.671443    2      2      
iter:   5  11:10:58         -2.85  -179.675201    3      2      
iter:   6  11:10:59         -2.95  -179.670028    3      2      
iter:   7  11:11:00         -2.73  -179.672697    3      1      
iter:   8  11:11:00         -3.21  -179.673610    2      1      
iter:   9  11:11:01         -3.44  -179.672204    2      1      
iter:  10  11:11:01         -3.58  -179.673339    2      1      
iter:  11  11:11:02         -3.74  -179.673165    2      1      
iter:  12  11:11:02         -3.97  -179.672823    2      1      
iter:  13  11:11:03         -3.87  -179.673415    2      1      
iter:  14  11:11:03         -4.30  -179.673354    2      1      

Converged after 14 iterations.

Dipole moment: (0.735674, -1.714398, -0.248409) |e|*Ang

Energy contributions relative to reference atoms: (reference = -24663.074771)

Kinetic:       +106.746789
Potential:     -114.588259
External:        +0.000000
XC:            -174.681409
Entropy (-ST):   -0.271100
Local:           +2.985074
--------------------------
Free energy:   -179.808904
Extrapolated:  -179.673354

Fermi level: -4.55845

 Band  Eigenvalues  Occupancy
    0    -23.73573    2.00000
    1    -23.49732    2.00000
    2    -22.70721    2.00000
    3    -21.37766    2.00000
    4    -20.71272    2.00000
    5    -20.53855    2.00000
    6    -20.07730    2.00000
    7    -19.23835    2.00000
    8    -19.14432    2.00000
    9    -18.49314    2.00000
   10    -17.98323    2.00000
   11    -17.44221    2.00000
   12    -16.68790    2.00000
   13    -16.28082    2.00000
   14    -15.72014    2.00000
   15    -15.32360    2.00000
   16    -14.76692    2.00000
   17    -14.56952    2.00000
   18    -13.90765    2.00000
   19    -13.79017    2.00000
   20    -12.88084    2.00000
   21    -12.07234    2.00000
   22    -11.61214    2.00000
   23    -11.34212    2.00000
   24    -11.09662    2.00000
   25    -10.77980    2.00000
   26    -10.53560    2.00000
   27    -10.23707    2.00000
   28    -10.21401    2.00000
   29     -9.88033    2.00000
   30     -9.82793    2.00000
   31     -9.23386    2.00000
   32     -9.14591    2.00000
   33     -8.93102    2.00000
   34     -8.76165    2.00000
   35     -8.35755    2.00000
   36     -8.31795    2.00000
   37     -7.68230    2.00000
   38     -7.12868    2.00000
   39     -6.86042    2.00000
   40     -6.66382    2.00000
   41     -6.19586    2.00000
   42     -5.98742    2.00000
   43     -5.59218    1.99994
   44     -5.24010    1.99781
   45     -5.00750    1.97782
   46     -4.91576    1.94540
   47     -4.68420    1.55720
   48     -4.44754    0.49608
   49     -4.11901    0.02439
   50     -3.82885    0.00136
   51     -3.25237    0.00000
   52     -3.16808    0.00000
   53     -2.49695    0.00000
   54     -1.89476    0.00000
   55     -1.67209    0.00000
   56     -1.07566    0.00000
   57     -0.79068    0.00000
   58     -0.51743    0.00000
   59     -0.33111    0.00000
   60      0.46367    0.00000
   61      0.91867    0.00000
   62      1.15636    0.00000
   63      1.38986    0.00000
   64      1.67550    0.00000
   65      2.63106    0.00000
   66      2.79598    0.00000
   67      3.15508    0.00000
   68      3.40850    0.00000
   69      4.15161    0.00000
   70      5.07831    0.00000
   71      5.12887    0.00000
   72      5.47598    0.00000
   73      5.67281    0.00000
   74      6.08369    0.00000
   75      6.17446    0.00000
   76      6.73985    0.00000
   77      7.06536    0.00000
   78      7.37676    0.00000
   79      7.65531    0.00000
   80      7.80703    0.00000
   81      8.06469    0.00000
   82      8.17361    0.00000
   83      8.48487    0.00000
   84      8.54503    0.00000
   85      8.84101    0.00000
   86      8.98733    0.00000
   87      9.10880    0.00000
   88      9.20889    0.00000
   89      9.37480    0.00000
   90      9.45969    0.00000
   91      9.56188    0.00000
   92      9.71138    0.00000
   93      9.85736    0.00000
   94      9.94502    0.00000
   95     10.00460    0.00000
   96     10.10955    0.00000
   97     10.21688    0.00000


Forces in eV/Ang:
  0 C    -0.02426   -0.01445    0.00856
  1 C    -0.03602   -0.01991    0.00980
  2 C    -0.03318   -0.00902    0.02376
  3 C    -0.00022    0.04681    0.00835
  4 C     0.01516   -0.04622   -0.02876
  5 C     0.03107    0.06969    0.04912
  6 C    -0.08673   -0.09625   -0.04564
  7 C    -0.00330    0.02558    0.01503
  8 C    -0.03103   -0.05106   -0.00919
  9 C    -0.03363    0.01637    0.02417
 10 C     0.04832    0.04220    0.04471
 11 C     0.02406    0.02971    0.02572
 12 C    -0.02856    0.02811   -0.03444
 13 C    -0.02394   -0.03016   -0.00135
 14 C     0.06587    0.01125    0.06448
 15 C     0.01289    0.06026   -0.03811
 16 C     0.02574   -0.00552   -0.02837
 17 C     0.06098    0.01130   -0.05441
 18 C     0.05889   -0.00750   -0.04581
 19 C     0.04050    0.09088    0.02645
 20 C    -0.03460   -0.09422   -0.05239
 21 C    -0.06742   -0.01491    0.02456
 22 C    -0.00700   -0.02182   -0.01988
 23 C     0.02512   -0.04154    0.03215

System changes: positions 

Initializing position-dependent things.

Density initialized from wave functions
           .--------------------------------------.  
          /|                                      |  
         / |                                      |  
        /  |                                      |  
       /   |                                      |  
      /    |                                      |  
     /     |                                      |  
    /      |                                      |  
   /       |                                      |  
  /        |                                      |  
 *         |  C C     C           C               |  
 |         |       C    C     C                   |  
 |         .---CC-C--------C----C-----------------.  
 |        /    CC    C    C CC                   /   
 |       /         C   C                        /    
 |      /            C                         /     
 |     /                                      /      
 |    /                                      /       
 |   /                                      /        
 |  /                                      /         
 | /                                      /          
 |/                                      /           
 *--------------------------------------*            

Positions:
   0 C      8.238927    2.681138    5.147438
   1 C     11.288683    8.269488    5.435024
   2 C      9.369965    3.392548    5.400056
   3 C      9.935587    8.173074    4.975385
   4 C      9.938814    4.494134    5.106788
   5 C      8.650751    7.801694    4.443943
   6 C     10.749625    6.976921    5.116147
   7 C      8.748725    6.387522    4.150539
   8 C      9.982641    5.827523    4.694617
   9 C      7.398911    5.812813    3.921273
  10 C      6.894769    2.289736    5.121584
  11 C      4.840363    3.381497    5.807225
  12 C      7.224503    3.250699    4.080985
  13 C      5.704757    2.437325    5.873859
  14 C      7.060791    4.496603    3.738571
  15 C      4.435459    4.643852    5.603854
  16 C      6.518007    6.885464    4.271887
  17 C      5.225137    6.996447    4.847996
  18 C      4.532849    5.855293    5.222428
  19 C      5.060016    8.501681    5.106988
  20 C      6.377744    9.115915    5.025698
  21 C      3.837027    9.106478    5.247368
  22 C      7.257213    8.167308    4.507730
  23 C      2.684036    9.714677    5.290711

Unit cell:
           periodic     x           y           z      points  spacing
  1. axis:    yes   16.000000    0.000000    0.000000    80     0.2000
  2. axis:    yes    0.000000   16.000000    0.000000    80     0.2000
  3. axis:    yes    0.000000    0.000000   10.000000    48     0.2083

Effective grid spacing dv^(1/3) = 0.2027

                     log10-error:    total        iterations:
           time      wfs    density  energy       fermi  poisson
iter:   1  11:11:05          +inf  -179.669388    3      5      
iter:   2  11:11:05         -2.63  -179.671688    3      1      
iter:   3  11:11:06         -2.83  -179.672125    2      1      
iter:   4  11:11:06         -2.92  -179.670922    2      1      
iter:   5  11:11:07         -3.03  -179.670953    2      1      
iter:   6  11:11:07         -3.22  -179.670272    3      2      
iter:   7  11:11:08         -3.08  -179.672632    3      1      
iter:   8  11:11:08         -3.64  -179.672871    2      1      
iter:   9  11:11:09         -3.67  -179.671552    2      1      
iter:  10  11:11:09         -3.62  -179.673249    2      1      
iter:  11  11:11:10         -3.64  -179.672228    2      1      
iter:  12  11:11:10         -3.92  -179.672013    2      1      
iter:  13  11:11:11         -3.77  -179.672756    2      1      
iter:  14  11:11:11         -4.21  -179.672579    2      1      

Converged after 14 iterations.

Dipole moment: (0.739649, -1.704047, -0.245598) |e|*Ang

Energy contributions relative to reference atoms: (reference = -24663.074771)

Kinetic:       +107.428085
Potential:     -115.092171
External:        +0.000000
XC:            -174.852856
Entropy (-ST):   -0.274808
Local:           +2.981768
--------------------------
Free energy:   -179.809983
Extrapolated:  -179.672579

Fermi level: -4.55401

 Band  Eigenvalues  Occupancy
    0    -23.74085    2.00000
    1    -23.50665    2.00000
    2    -22.71536    2.00000
    3    -21.37869    2.00000
    4    -20.71332    2.00000
    5    -20.53173    2.00000
    6    -20.08027    2.00000
    7    -19.24100    2.00000
    8    -19.14298    2.00000
    9    -18.49545    2.00000
   10    -17.98620    2.00000
   11    -17.44882    2.00000
   12    -16.68141    2.00000
   13    -16.28498    2.00000
   14    -15.72073    2.00000
   15    -15.32940    2.00000
   16    -14.77161    2.00000
   17    -14.57139    2.00000
   18    -13.90600    2.00000
   19    -13.79805    2.00000
   20    -12.88256    2.00000
   21    -12.07666    2.00000
   22    -11.60544    2.00000
   23    -11.33270    2.00000
   24    -11.10037    2.00000
   25    -10.77819    2.00000
   26    -10.53442    2.00000
   27    -10.24214    2.00000
   28    -10.22413    2.00000
   29     -9.89731    2.00000
   30     -9.83900    2.00000
   31     -9.25806    2.00000
   32     -9.14667    2.00000
   33     -8.92311    2.00000
   34     -8.75617    2.00000
   35     -8.35807    2.00000
   36     -8.31717    2.00000
   37     -7.67888    2.00000
   38     -7.12991    2.00000
   39     -6.85940    2.00000
   40     -6.66109    2.00000
   41     -6.19926    2.00000
   42     -5.98197    2.00000
   43     -5.59090    1.99994
   44     -5.24338    1.99797
   45     -5.00545    1.97834
   46     -4.90874    1.94401
   47     -4.67632    1.54522
   48     -4.44592    0.50668
   49     -4.12278    0.02645
   50     -3.82623    0.00138
   51     -3.26449    0.00001
   52     -3.16176    0.00000
   53     -2.49835    0.00000
   54     -1.89268    0.00000
   55     -1.66623    0.00000
   56     -1.07122    0.00000
   57     -0.78961    0.00000
   58     -0.50919    0.00000
   59     -0.32055    0.00000
   60      0.48779    0.00000
   61      0.91941    0.00000
   62      1.17127    0.00000
   63      1.40611    0.00000
   64      1.68323    0.00000
   65      2.64596    0.00000
   66      2.82629    0.00000
   67      3.17736    0.00000
   68      3.44476    0.00000
   69      4.16594    0.00000
   70      5.08314    0.00000
   71      5.13845    0.00000
   72      5.46198    0.00000
   73      5.68025    0.00000
   74      6.09592    0.00000
   75      6.18518    0.00000
   76      6.76418    0.00000
   77      7.08471    0.00000
   78      7.37947    0.00000
   79      7.64763    0.00000
   80      7.80648    0.00000
   81      8.07270    0.00000
   82      8.17258    0.00000
   83      8.49834    0.00000
   84      8.54619    0.00000
   85      8.84249    0.00000
   86      8.98658    0.00000
   87      9.11469    0.00000
   88      9.21440    0.00000
   89      9.37825    0.00000
   90      9.46426    0.00000
   91      9.56090    0.00000
   92      9.71561    0.00000
   93      9.85751    0.00000
   94      9.94998    0.00000
   95     10.02275    0.00000
   96     10.10977    0.00000
   97     10.22170    0.00000


Forces in eV/Ang:
  0 C    -0.00134   -0.00723    0.03428
  1 C    -0.00446   -0.03751    0.03540
  2 C    -0.02011   -0.02301    0.01137
  3 C     0.00398    0.00684    0.01556
  4 C     0.00159   -0.03465   -0.01459
  5 C    -0.00648    0.00118   -0.01365
  6 C    -0.04845   -0.00373    0.02406
  7 C    -0.00857   -0.00128   -0.00152
  8 C    -0.03306   -0.01890   -0.02323
  9 C     0.00552    0.01095   -0.01272
 10 C    -0.00115    0.02124    0.04009
 11 C     0.02527    0.02590    0.01203
 12 C    -0.02141    0.01459   -0.01107
 13 C    -0.01717   -0.01426    0.00481
 14 C     0.00975   -0.02280    0.04857
 15 C     0.01485    0.01129   -0.03068
 16 C     0.00441    0.02667   -0.02250
 17 C     0.02545    0.00969   -0.04832
 18 C     0.05632    0.01390   -0.03610
 19 C     0.01049    0.03365    0.00356
 20 C    -0.01024   -0.00303   -0.01545
 21 C    -0.01037   -0.03529    0.03079
 22 C     0.01887    0.00772   -0.00653
 23 C    -0.00564   -0.02576    0.02927

