
  ___ ___ ___ _ _ _  
 |   |   |_  | | | | 
 | | | | | . | | | | 
 |__ |  _|___|_____|  1.3.0b1
 |___|_|             

User:   esb@s65n62.grendel.cscaa.dk
Date:   Wed Nov  8 16:14:58 2017
Arch:   x86_64
Pid:    42295
Python: 2.7.13
gpaw:   /home/esb/DFT/gpaw_git/gpaw
_gpaw:  /home/esb/DFT/gpaw_git/build/bin.linux-x86_64-2.7/gpaw-python
ase:    /home/esb/DFT/ase_git/ase (version 3.15.0b1)
numpy:  /comm/swstack/core/python/2.7.13/lib/python2.7/site-packages/numpy (version 1.13.3)
scipy:  /comm/swstack/core/python/2.7.13/lib/python2.7/site-packages/scipy (version 0.19.1)
units:  Angstrom and eV
cores:  16
Extra parameters: {'blacs': True}

Input parameters:
  basis: dzp
  gpts: [80 80 48]
  kpts: [1 1 1]
  maxiter: 99
  mixer: {backend: pulay,
          beta: 0.05,
          method: separate,
          nmaxold: 5,
          weight: 75}
  mode: lcao
  nbands: -50
  occupations: {name: fermi-dirac,
                width: 0.1}
  poissonsolver: {eps: 1e-07,
                  name: fd,
                  nn: 3,
                  relax: GS}
  xc: PBE

System changes: positions, numbers, cell, pbc, initial_charges, initial_magmoms 

Initialize ...

C-setup:
  name: Carbon
  id: 4aa54d4b901d75f77cc0ea3eec22967b
  Z: 6
  valence: 4
  core: 2
  charge: 0.0
  file: /home/esb/DFT/gpaw-setups-0.8.7929/C.PBE.gz
  cutoffs: 0.64(comp), 1.14(filt), 1.14(core), lmax=2
  valence states:
                energy  radius
    2s(2.00)   -13.751   0.635
    2p(2.00)    -5.284   0.635
    *s          13.461   0.635
    *p          21.927   0.635
    *d           0.000   0.635

  LCAO basis set for C:
    Name: dzp
    File: /home/esb/DFT/gpaw-setups-0.8.7929/C.dzp.basis.gz
    Number of radial functions: 5
    Number of spherical harmonics: 13
      l=0, rc=5.5469 Bohr: 2s-sz confined orbital
      l=1, rc=6.6719 Bohr: 2p-sz confined orbital
      l=0, rc=3.0312 Bohr: 2s-dz split-valence wave
      l=1, rc=3.7500 Bohr: 2p-dz split-valence wave
      l=2, rc=6.6719 Bohr: d-type Gaussian polarization

Reference energy: -24663.074771

Spin-paired calculation

Occupation numbers:
  Fermi-Dirac: width=0.1000 eV

Convergence criteria:
  Maximum total energy change: 0.0005 eV / electron
  Maximum integral of absolute density change: 0.0001 electrons
  Maximum integral of absolute eigenstate change: 4e-08 eV^2
  Maximum number of iterations: 99

Symmetries present (total): 1

  ( 1  0  0)
  ( 0  1  0)
  ( 0  0  1)

1 k-point (Gamma)
1 k-point in the irreducible part of the Brillouin zone
       k-points in crystal coordinates                weights
   0:     0.00000000    0.00000000    0.00000000          1/1

Wave functions: LCAO
  Diagonalizer: Serial LAPACK
  Atomic Correction: dense with blas
  Datatype: float
  Eigensolver: None 

LCAO using direct dense diagonalizer 

Densities:
  Coarse grid: 80*80*48 grid
  Fine grid: 160*160*96 grid
  Total Charge: 0.000000 

Density mixing:
  Method: separate
  Backend: pulay
  Linear mixing parameter: 0.05
  Mixing with 5 old densities
  Damping of long wave oscillations: 75 

Hamiltonian:
  XC and Coulomb potentials evaluated on a 160*160*96 grid
  Using the PBE Exchange-Correlation functional
  Interpolation: tri-quintic (5. degree polynomial)
  Poisson solver: Gauss-Seidel solver with 6 multi-grid levels
    Coarsest grid: 5 x 5 x 3 points
    Stencil: 6*3+1=19 point O(h^6) finite-difference Laplacian
    Max iterations: 1000
    Tolerance: 1.000000e-07 

Memory estimate:
  Process memory now: 77.59 MiB
  Calculator: 15.59 MiB
    Density: 6.13 MiB
      Arrays: 3.81 MiB
      Localized functions: 0.86 MiB
      Mixer: 1.46 MiB
    Hamiltonian: 5.40 MiB
      Arrays: 2.49 MiB
      XC: 0.00 MiB
      Poisson: 2.85 MiB
      vbar: 0.07 MiB
    Wavefunctions: 4.05 MiB
      C [qnM]: 0.23 MiB
      S, T [2 x qmm]: 1.49 MiB
      P [aqMi]: 0.01 MiB
      TCI: 0.00 MiB
      BasisFunctions: 2.33 MiB
      Eigensolver: 0.00 MiB

Total number of cores used: 16
Domain decomposition: 2 x 4 x 2

Number of atoms: 24
Number of atomic orbitals: 312
Number of bands in calculation: 98
Bands to converge: occupied states only
Number of valence electrons: 96

... initialized

Initializing position-dependent things.

Density initialized from atomic densities
           .--------------------------------------.  
          /|                                      |  
         / |                                      |  
        /  |                                      |  
       /   |                                      |  
      /    |                                      |  
     /     |                                      |  
    /      |                                      |  
   /       |                                      |  
  /        |           C  C        C              |  
 *         |               C   C  C               |  
 |         C      C  C   C       C                |  
 |         .--CCC--C-C---C-C---C-C----------------.  
 |        /         C     C                      /   
 |       /             C                        /    
 |      /                                      /     
 |     /                                      /      
 |    /                                      /       
 |   /                                      /        
 |  /                                      /         
 | /                                      /          
 |/                                      /           
 *--------------------------------------*            

Positions:
   0 C     10.747157    6.005169    5.043671
   1 C     11.269447    7.134263    4.957308
   2 C     11.113106    8.505769    4.934269
   3 C     10.978126    9.956465    4.854680
   4 C      9.289009    3.933811    5.174407
   5 C      9.501709    5.328032    5.187972
   6 C      9.873213    9.080310    5.151590
   7 C      7.622854    9.807095    5.802140
   8 C      6.375922    9.789677    5.940044
   9 C      5.833599    6.079579    5.484298
  10 C      8.244528    3.229307    5.229574
  11 C      7.778894    7.476540    5.450777
  12 C      8.217251    6.019402    5.321390
  13 C      6.313855    7.469667    5.597377
  14 C      6.950910    3.769821    5.309245
  15 C      8.496992    8.748068    5.468537
  16 C      7.010492    5.237664    5.381104
  17 C      3.718805    5.616047    5.533008
  18 C     11.690298    9.451809    5.751752
  19 C      4.564239    9.177128    4.440093
  20 C      4.884440    7.846261    4.745929
  21 C      3.831377    6.956203    5.083859
  22 C      2.550468    6.441692    5.508433
  23 C      4.859544    4.865189    5.630928

Unit cell:
           periodic     x           y           z      points  spacing
  1. axis:    yes   16.000000    0.000000    0.000000    80     0.2000
  2. axis:    yes    0.000000   16.000000    0.000000    80     0.2000
  3. axis:    yes    0.000000    0.000000   10.000000    48     0.2083

Effective grid spacing dv^(1/3) = 0.2027

                     log10-error:    total        iterations:
           time      wfs    density  energy       fermi  poisson
iter:   1  16:15:00          +inf  -172.580127    3      6      
iter:   2  16:15:01         -0.89  -171.655463    3      3      
iter:   3  16:15:01         -0.92  -170.178189    33     4      
iter:   4  16:15:02         -1.11  -170.829905    3      2      
iter:   5  16:15:03         -1.08  -170.384778    3      3      
iter:   6  16:15:03         -1.11  -168.957574    3      3      
iter:   7  16:15:04         -1.41  -168.714184    3      2      
iter:   8  16:15:04         -1.47  -168.412919    3      3      
iter:   9  16:15:05         -1.60  -168.308500    3      3      
iter:  10  16:15:06         -1.79  -168.238549    3      2      
iter:  11  16:15:06         -1.93  -168.227060    3      2      
iter:  12  16:15:07         -2.01  -168.209716    3      2      
iter:  13  16:15:07         -2.12  -168.214483    4      3      
iter:  14  16:15:08         -2.58  -168.214100    3      2      
iter:  15  16:15:09         -2.71  -168.209440    2      1      
iter:  16  16:15:09         -2.78  -168.213031    2      2      
iter:  17  16:15:10         -3.01  -168.221471    2      1      
iter:  18  16:15:10         -3.16  -168.217358    2      1      
iter:  19  16:15:11         -3.30  -168.215959    2      1      
iter:  20  16:15:11         -3.42  -168.215407    2      1      
iter:  21  16:15:12         -3.56  -168.212289    2      1      
iter:  22  16:15:13         -3.90  -168.213325    2      1      
iter:  23  16:15:13         -4.00  -168.213299    2      1      

Converged after 23 iterations.

Dipole moment: (0.841236, -0.745972, -0.246362) |e|*Ang

Energy contributions relative to reference atoms: (reference = -24663.074771)

Kinetic:       +129.887648
Potential:     -127.636495
External:        +0.000000
XC:            -173.261371
Entropy (-ST):   -0.288297
Local:           +2.941068
--------------------------
Free energy:   -168.357447
Extrapolated:  -168.213299

Fermi level: -4.73012

 Band  Eigenvalues  Occupancy
    0    -27.49578    2.00000
    1    -23.62215    2.00000
    2    -22.40547    2.00000
    3    -21.32394    2.00000
    4    -20.72966    2.00000
    5    -20.18969    2.00000
    6    -19.69397    2.00000
    7    -19.30319    2.00000
    8    -18.61255    2.00000
    9    -18.10073    2.00000
   10    -17.56665    2.00000
   11    -16.88686    2.00000
   12    -16.73701    2.00000
   13    -15.95384    2.00000
   14    -15.27189    2.00000
   15    -15.12771    2.00000
   16    -14.31399    2.00000
   17    -13.54629    2.00000
   18    -12.90513    2.00000
   19    -12.72614    2.00000
   20    -12.29840    2.00000
   21    -12.03299    2.00000
   22    -11.69306    2.00000
   23    -11.12982    2.00000
   24    -10.94721    2.00000
   25    -10.65140    2.00000
   26    -10.58281    2.00000
   27    -10.04124    2.00000
   28     -9.82955    2.00000
   29     -9.48754    2.00000
   30     -9.26582    2.00000
   31     -8.92778    2.00000
   32     -8.37258    2.00000
   33     -8.30586    2.00000
   34     -8.00076    2.00000
   35     -7.68276    2.00000
   36     -7.46696    2.00000
   37     -7.12014    2.00000
   38     -6.92774    2.00000
   39     -6.75795    2.00000
   40     -6.56394    2.00000
   41     -6.43620    2.00000
   42     -6.05625    2.00000
   43     -5.75262    1.99993
   44     -5.45097    1.99852
   45     -5.23773    1.98759
   46     -5.01790    1.89347
   47     -4.84082    1.50312
   48     -4.64879    0.61436
   49     -4.07059    0.00273
   50     -3.84412    0.00028
   51     -3.40822    0.00000
   52     -3.25213    0.00000
   53     -2.68801    0.00000
   54     -2.38166    0.00000
   55     -2.20880    0.00000
   56     -2.09663    0.00000
   57     -1.49603    0.00000
   58     -1.00132    0.00000
   59     -0.13805    0.00000
   60     -0.04917    0.00000
   61      0.17735    0.00000
   62      0.45516    0.00000
   63      0.89363    0.00000
   64      1.49082    0.00000
   65      2.12663    0.00000
   66      2.60294    0.00000
   67      2.71672    0.00000
   68      3.38761    0.00000
   69      3.94350    0.00000
   70      4.06424    0.00000
   71      4.59153    0.00000
   72      4.63826    0.00000
   73      5.13358    0.00000
   74      5.52531    0.00000
   75      6.20284    0.00000
   76      6.48855    0.00000
   77      6.80262    0.00000
   78      7.12375    0.00000
   79      7.25535    0.00000
   80      7.44977    0.00000
   81      7.73798    0.00000
   82      7.81495    0.00000
   83      8.20463    0.00000
   84      8.40236    0.00000
   85      8.71902    0.00000
   86      8.92487    0.00000
   87      9.08747    0.00000
   88      9.11939    0.00000
   89      9.30987    0.00000
   90      9.31692    0.00000
   91      9.57467    0.00000
   92      9.59894    0.00000
   93      9.77296    0.00000
   94      9.85748    0.00000
   95      9.96329    0.00000
   96     10.06474    0.00000
   97     10.27271    0.00000


Forces in eV/Ang:
  0 C    -0.93123    0.16257   -0.00051
  1 C     0.19159   -0.98706   -1.32503
  2 C     0.01843   -9.68619    0.29167
  3 C    -4.76617    9.98888   -6.07074
  4 C     0.88895    0.44914   -0.23911
  5 C     0.76858   -0.36403    0.10276
  6 C    -4.85000   -1.11439   -0.36057
  7 C     1.80568   -0.04943   -0.56660
  8 C    -4.05200    1.14978   -0.39951
  9 C     3.73820   -6.50580    1.90704
 10 C    -2.29593   -0.08751    0.29848
 11 C    -0.29046   -1.74474   -0.42836
 12 C    -0.23095    0.57221    0.08622
 13 C    -2.80625   -1.77107   -2.57838
 14 C     0.65937    2.10415    0.17221
 15 C     1.81159    1.10526   -0.23570
 16 C     2.11387   -0.99244   -0.19710
 17 C    -2.44298   -0.75515    0.60131
 18 C     7.72976    0.73412    7.94696
 19 C     1.04975    0.13079    0.76921
 20 C     1.36751    2.14095    2.00826
 21 C    -2.05537    1.84879   -0.59835
 22 C     0.86561    0.08541   -0.52294
 23 C     1.67977    3.44280   -0.63036

System changes: positions 

Initializing position-dependent things.

Density initialized from wave functions
           .--------------------------------------.  
          /|                                      |  
         / |                                      |  
        /  |                                      |  
       /   |                                      |  
      /    |                                      |  
     /     |                                      |  
    /      |                                      |  
   /       |                                      |  
  /        |           C  C        C              |  
 *         |               C   C  C               |  
 |         C      C  C   C       C                |  
 |         .--CCC--C-C---C-C---C-C----------------.  
 |        /         C     C                      /   
 |       /             C                        /    
 |      /                                      /     
 |     /                                      /      
 |    /                                      /       
 |   /                                      /        
 |  /                                      /         
 | /                                      /          
 |/                                      /           
 *--------------------------------------*            

Positions:
   0 C     10.744206    6.005684    5.043670
   1 C     11.270054    7.131135    4.953109
   2 C     11.113164    8.475076    4.935193
   3 C     10.963024    9.988118    4.835444
   4 C      9.291826    3.935235    5.173650
   5 C      9.504145    5.326878    5.188298
   6 C      9.857845    9.076778    5.150448
   7 C      7.628576    9.806938    5.800345
   8 C      6.363082    9.793320    5.938778
   9 C      5.845444    6.058964    5.490340
  10 C      8.237253    3.229030    5.230520
  11 C      7.777974    7.471011    5.449420
  12 C      8.216519    6.021215    5.321663
  13 C      6.304962    7.464055    5.589207
  14 C      6.952999    3.776489    5.309790
  15 C      8.502733    8.751571    5.467790
  16 C      7.017190    5.234520    5.380479
  17 C      3.711064    5.613654    5.534914
  18 C     11.714791    9.454136    5.776934
  19 C      4.567565    9.177542    4.442530
  20 C      4.888773    7.853045    4.752293
  21 C      3.824864    6.962062    5.081963
  22 C      2.553211    6.441962    5.506776
  23 C      4.864866    4.876098    5.628931

Unit cell:
           periodic     x           y           z      points  spacing
  1. axis:    yes   16.000000    0.000000    0.000000    80     0.2000
  2. axis:    yes    0.000000   16.000000    0.000000    80     0.2000
  3. axis:    yes    0.000000    0.000000   10.000000    48     0.2083

Effective grid spacing dv^(1/3) = 0.2027

                     log10-error:    total        iterations:
           time      wfs    density  energy       fermi  poisson
iter:   1  16:15:15          +inf  -170.162653    3      5      
iter:   2  16:15:16         -1.61  -169.753335    3      2      
iter:   3  16:15:16         -2.05  -169.713861    3      2      
iter:   4  16:15:17         -2.20  -169.695580    3      2      
iter:   5  16:15:17         -2.36  -169.685882    3      2      
iter:   6  16:15:18         -2.52  -169.683469    2      2      
iter:   7  16:15:19         -2.67  -169.682110    3      2      
iter:   8  16:15:19         -2.83  -169.682068    2      2      
iter:   9  16:15:20         -2.98  -169.682380    2      2      
iter:  10  16:15:20         -3.18  -169.684944    2      1      
iter:  11  16:15:21         -3.43  -169.682471    2      1      
iter:  12  16:15:22         -3.51  -169.681801    2      1      
iter:  13  16:15:22         -3.61  -169.683325    2      1      
iter:  14  16:15:23         -3.82  -169.681455    2      1      
iter:  15  16:15:23         -3.98  -169.681500    2      1      
iter:  16  16:15:24         -4.05  -169.682059    2      1      

Converged after 16 iterations.

Dipole moment: (0.788861, -0.801964, -0.224851) |e|*Ang

Energy contributions relative to reference atoms: (reference = -24663.074771)

Kinetic:       +119.955207
Potential:     -120.975474
External:        +0.000000
XC:            -171.395407
Entropy (-ST):   -0.291846
Local:           +2.879538
--------------------------
Free energy:   -169.827982
Extrapolated:  -169.682059

Fermi level: -4.75969

 Band  Eigenvalues  Occupancy
    0    -26.41176    2.00000
    1    -23.63801    2.00000
    2    -22.45293    2.00000
    3    -21.33293    2.00000
    4    -20.75185    2.00000
    5    -20.24780    2.00000
    6    -19.73176    2.00000
    7    -19.33187    2.00000
    8    -18.66326    2.00000
    9    -17.91919    2.00000
   10    -17.56353    2.00000
   11    -16.87889    2.00000
   12    -16.64807    2.00000
   13    -15.80292    2.00000
   14    -15.28400    2.00000
   15    -15.13026    2.00000
   16    -14.30923    2.00000
   17    -13.55848    2.00000
   18    -12.76933    2.00000
   19    -12.67246    2.00000
   20    -12.16055    2.00000
   21    -11.92232    2.00000
   22    -11.61723    2.00000
   23    -11.03100    2.00000
   24    -10.88798    2.00000
   25    -10.66888    2.00000
   26    -10.60069    2.00000
   27    -10.07332    2.00000
   28     -9.78095    2.00000
   29     -9.51979    2.00000
   30     -9.32224    2.00000
   31     -8.96456    2.00000
   32     -8.46300    2.00000
   33     -8.33020    2.00000
   34     -8.03637    2.00000
   35     -7.71232    2.00000
   36     -7.50961    2.00000
   37     -7.04775    2.00000
   38     -6.92773    2.00000
   39     -6.77914    2.00000
   40     -6.54952    2.00000
   41     -6.44498    2.00000
   42     -6.07344    2.00000
   43     -5.78458    1.99993
   44     -5.43874    1.99775
   45     -5.26541    1.98735
   46     -5.04343    1.88933
   47     -4.86791    1.49383
   48     -4.68189    0.62951
   49     -4.07482    0.00212
   50     -3.82251    0.00017
   51     -3.48625    0.00001
   52     -3.23992    0.00000
   53     -2.76582    0.00000
   54     -2.40887    0.00000
   55     -2.20255    0.00000
   56     -2.10983    0.00000
   57     -1.46583    0.00000
   58     -1.00042    0.00000
   59     -0.35253    0.00000
   60     -0.04885    0.00000
   61      0.09117    0.00000
   62      0.45076    0.00000
   63      0.91884    0.00000
   64      1.50965    0.00000
   65      2.18705    0.00000
   66      2.55046    0.00000
   67      2.68688    0.00000
   68      3.36548    0.00000
   69      3.93434    0.00000
   70      4.07263    0.00000
   71      4.60430    0.00000
   72      4.64527    0.00000
   73      5.10941    0.00000
   74      5.20342    0.00000
   75      6.17976    0.00000
   76      6.49723    0.00000
   77      6.78989    0.00000
   78      7.01957    0.00000
   79      7.19097    0.00000
   80      7.54712    0.00000
   81      7.76248    0.00000
   82      7.84146    0.00000
   83      8.23030    0.00000
   84      8.36749    0.00000
   85      8.77690    0.00000
   86      8.95267    0.00000
   87      9.06828    0.00000
   88      9.11162    0.00000
   89      9.30631    0.00000
   90      9.37231    0.00000
   91      9.57074    0.00000
   92      9.59473    0.00000
   93      9.76672    0.00000
   94      9.84323    0.00000
   95      9.94793    0.00000
   96     10.05140    0.00000
   97     10.25741    0.00000


Forces in eV/Ang:
  0 C    -0.90439   -0.11394    0.00493
  1 C     0.28477   -1.88021   -1.22429
  2 C    -0.20591   -5.01898    1.23787
  3 C    -2.74155    6.08264   -2.74385
  4 C     0.33988   -0.03909   -0.21119
  5 C     0.69735   -0.26051    0.10580
  6 C    -2.34276   -0.71145   -0.71465
  7 C     0.44731    0.05523   -0.38305
  8 C    -2.72267    1.12701   -0.54422
  9 C     3.23290   -5.85283    1.77590
 10 C    -1.56465    0.23334    0.24546
 11 C    -0.40476   -1.36585   -0.41529
 12 C    -0.07098    0.45407    0.07711
 13 C    -2.62193   -1.94252   -2.60028
 14 C     0.53130    1.86764    0.17374
 15 C     0.93058    0.54588   -0.07700
 16 C     2.22971   -0.96609   -0.11535
 17 C    -1.99718   -0.57889    0.50036
 18 C     4.15364    1.09268    3.70125
 19 C     0.97169    0.38122    0.72572
 20 C     1.34017    1.65781    2.17231
 21 C    -1.69705    1.67644   -0.55381
 22 C     0.55941    0.13710   -0.48556
 23 C     1.48864    3.39173   -0.62594

System changes: positions 

Initializing position-dependent things.

Density initialized from wave functions
           .--------------------------------------.  
          /|                                      |  
         / |                                      |  
        /  |                                      |  
       /   |                                      |  
      /    |                                      |  
     /     |                                      |  
    /      |                                      |  
   /       |                                      |  
  /        |           C  C        C              |  
 *         |               C   C  C               |  
 |         C      C  C   C       C                |  
 |         .--CCC--C-C---C--C--C-C----------------.  
 |        /         C     C                      /   
 |       /             C                        /    
 |      /                                      /     
 |     /                                      /      
 |    /                                      /       
 |   /                                      /        
 |  /                                      /         
 | /                                      /          
 |/                                      /           
 *--------------------------------------*            

Positions:
   0 C     10.738657    6.003873    5.043722
   1 C     11.272205    7.115830    4.945853
   2 C     11.110985    8.462230    4.946693
   3 C     10.953922   10.010638    4.831501
   4 C      9.291770    3.933051    5.172440
   5 C      9.508222    5.325660    5.188971
   6 C      9.853154    9.073930    5.144572
   7 C      7.625977    9.807699    5.798678
   8 C      6.351337    9.800277    5.934800
   9 C      5.863653    6.024958    5.500925
  10 C      8.230374    3.231764    5.231844
  11 C      7.774989    7.463975    5.446875
  12 C      8.216711    6.023585    5.322109
  13 C      6.289299    7.451227    5.572859
  14 C      6.955813    3.787228    5.310883
  15 C      8.505052    8.752762    5.467939
  16 C      7.031593    5.228583    5.380083
  17 C      3.700345    5.610734    5.537642
  18 C     11.726560    9.462393    5.783214
  19 C      4.573331    9.180921    4.446896
  20 C      4.897045    7.861493    4.766529
  21 C      3.815675    6.971860    5.078676
  22 C      2.555493    6.443025    5.503888
  23 C      4.873416    4.897105    5.625034

Unit cell:
           periodic     x           y           z      points  spacing
  1. axis:    yes   16.000000    0.000000    0.000000    80     0.2000
  2. axis:    yes    0.000000   16.000000    0.000000    80     0.2000
  3. axis:    yes    0.000000    0.000000   10.000000    48     0.2083

Effective grid spacing dv^(1/3) = 0.2027

                     log10-error:    total        iterations:
           time      wfs    density  energy       fermi  poisson
iter:   1  16:15:26          +inf  -171.056601    3      5      
iter:   2  16:15:26         -1.64  -170.752182    3      2      
iter:   3  16:15:27         -2.12  -170.731814    2      2      
iter:   4  16:15:27         -2.26  -170.720584    2      2      
iter:   5  16:15:28         -2.43  -170.714924    2      2      
iter:   6  16:15:29         -2.59  -170.713975    2      2      
iter:   7  16:15:29         -2.75  -170.712619    2      2      
iter:   8  16:15:30         -2.90  -170.712432    2      2      
iter:   9  16:15:30         -3.07  -170.711951    2      1      
iter:  10  16:15:31         -3.23  -170.712546    2      1      
iter:  11  16:15:32         -3.45  -170.713157    2      1      
iter:  12  16:15:32         -3.61  -170.712793    2      1      
iter:  13  16:15:33         -3.67  -170.713298    2      1      
iter:  14  16:15:33         -3.86  -170.713101    2      1      
iter:  15  16:15:34         -4.03  -170.712750    2      1      

Converged after 15 iterations.

Dipole moment: (0.768656, -0.819444, -0.202119) |e|*Ang

Energy contributions relative to reference atoms: (reference = -24663.074771)

Kinetic:       +117.501880
Potential:     -119.773143
External:        +0.000000
XC:            -171.187023
Entropy (-ST):   -0.286695
Local:           +2.888885
--------------------------
Free energy:   -170.856097
Extrapolated:  -170.712750

Fermi level: -4.76628

 Band  Eigenvalues  Occupancy
    0    -25.93998    2.00000
    1    -23.63292    2.00000
    2    -22.50776    2.00000
    3    -21.32476    2.00000
    4    -20.76984    2.00000
    5    -20.26489    2.00000
    6    -19.77291    2.00000
    7    -19.35761    2.00000
    8    -18.68144    2.00000
    9    -17.85234    2.00000
   10    -17.57200    2.00000
   11    -16.85287    2.00000
   12    -16.60461    2.00000
   13    -15.71270    2.00000
   14    -15.29740    2.00000
   15    -15.13287    2.00000
   16    -14.31923    2.00000
   17    -13.57705    2.00000
   18    -12.81251    2.00000
   19    -12.62487    2.00000
   20    -12.13470    2.00000
   21    -11.89145    2.00000
   22    -11.54259    2.00000
   23    -10.92507    2.00000
   24    -10.83429    2.00000
   25    -10.70717    2.00000
   26    -10.61675    2.00000
   27    -10.10774    2.00000
   28     -9.79452    2.00000
   29     -9.57990    2.00000
   30     -9.37444    2.00000
   31     -8.98214    2.00000
   32     -8.61330    2.00000
   33     -8.36630    2.00000
   34     -8.05361    2.00000
   35     -7.73048    2.00000
   36     -7.57473    2.00000
   37     -7.04058    2.00000
   38     -6.93248    2.00000
   39     -6.79786    2.00000
   40     -6.54196    2.00000
   41     -6.43992    2.00000
   42     -6.08263    2.00000
   43     -5.80714    1.99994
   44     -5.44207    1.99768
   45     -5.30708    1.99108
   46     -5.06703    1.90583
   47     -4.86954    1.47484
   48     -4.68833    0.62886
   49     -4.05839    0.00168
   50     -3.76239    0.00009
   51     -3.49815    0.00001
   52     -3.19648    0.00000
   53     -2.78350    0.00000
   54     -2.38286    0.00000
   55     -2.18986    0.00000
   56     -2.10575    0.00000
   57     -1.44727    0.00000
   58     -0.97334    0.00000
   59     -0.48811    0.00000
   60     -0.04932    0.00000
   61      0.05707    0.00000
   62      0.50659    0.00000
   63      0.99780    0.00000
   64      1.60138    0.00000
   65      2.29914    0.00000
   66      2.50276    0.00000
   67      2.71188    0.00000
   68      3.30888    0.00000
   69      3.98114    0.00000
   70      4.13329    0.00000
   71      4.61796    0.00000
   72      4.74577    0.00000
   73      5.11157    0.00000
   74      5.19670    0.00000
   75      6.24160    0.00000
   76      6.54737    0.00000
   77      6.79474    0.00000
   78      6.92880    0.00000
   79      7.15069    0.00000
   80      7.60501    0.00000
   81      7.81873    0.00000
   82      7.95033    0.00000
   83      8.27554    0.00000
   84      8.37568    0.00000
   85      8.78876    0.00000
   86      8.99128    0.00000
   87      9.06152    0.00000
   88      9.10416    0.00000
   89      9.32512    0.00000
   90      9.41683    0.00000
   91      9.57387    0.00000
   92      9.62014    0.00000
   93      9.78863    0.00000
   94      9.83342    0.00000
   95      9.96792    0.00000
   96     10.02712    0.00000
   97     10.28492    0.00000


Forces in eV/Ang:
  0 C    -0.91988   -0.57100    0.01529
  1 C     0.57539   -1.09600   -1.18786
  2 C    -0.17790   -3.80688    1.60716
  3 C    -2.15340    4.75522   -1.79286
  4 C     0.22716   -0.09861   -0.20784
  5 C     0.33076   -0.42992    0.13194
  6 C    -1.47471   -0.55185   -0.77972
  7 C    -0.09844   -0.01692   -0.30465
  8 C    -2.03928    1.09790   -0.67745
  9 C     2.45710   -4.62495    1.54901
 10 C    -1.19474    0.27640    0.22252
 11 C    -0.58018   -0.91892   -0.38469
 12 C     0.28062    0.27497    0.06400
 13 C    -2.29651   -2.17899   -2.58398
 14 C     0.40901    1.41968    0.16765
 15 C     0.34744    0.29002   -0.01484
 16 C     2.24868   -0.90761    0.00348
 17 C    -1.34423   -0.29925    0.35198
 18 C     2.96999    1.03744    2.32222
 19 C     0.92179    0.61292    0.76571
 20 C     1.30433    1.17105    2.30159
 21 C    -1.25802    1.36941   -0.44312
 22 C     0.17745    0.21252   -0.45071
 23 C     1.14757    3.12190   -0.59692

System changes: positions 

Initializing position-dependent things.

Density initialized from wave functions
           .--------------------------------------.  
          /|                                      |  
         / |                                      |  
        /  |                                      |  
       /   |                                      |  
      /    |                                      |  
     /     |                                      |  
    /      |                                      |  
   /       |                                      |  
  /        |           C  C         C             |  
 *         |               C   C  C               |  
 |         C      C  C   C       C                |  
 |         .--CCC--C-C---C--C--C-C----------------.  
 |        /         C     C                      /   
 |       /             C                        /    
 |      /                                      /     
 |     /                                      /      
 |    /                                      /       
 |   /                                      /        
 |  /                                      /         
 | /                                      /          
 |/                                      /           
 *--------------------------------------*            

Positions:
   0 C     10.730311    5.995615    5.043928
   1 C     11.279139    7.107127    4.935550
   2 C     11.108848    8.447437    4.965895
   3 C     10.943257   10.035712    4.829742
   4 C      9.291656    3.930422    5.170653
   5 C      9.509201    5.321226    5.190307
   6 C      9.851456    9.070899    5.136130
   7 C      7.618380    9.807497    5.796842
   8 C      6.340129    9.810030    5.927566
   9 C      5.880627    5.990981    5.513474
  10 C      8.223516    3.235431    5.233594
  11 C      7.768519    7.458963    5.443574
  12 C      8.221468    6.024847    5.322599
  13 C      6.270609    7.429776    5.549424
  14 C      6.958543    3.797200    5.312379
  15 C      8.502724    8.752480    5.468580
  16 C      7.052437    5.220713    5.380943
  17 C      3.692689    5.609921    5.539805
  18 C     11.737116    9.472592    5.784951
  19 C      4.581220    9.188368    4.453915
  20 C      4.908625    7.868289    4.788540
  21 C      3.807485    6.982262    5.075333
  22 C      2.554311    6.445479    5.500080
  23 C      4.881581    4.923953    5.619773

Unit cell:
           periodic     x           y           z      points  spacing
  1. axis:    yes   16.000000    0.000000    0.000000    80     0.2000
  2. axis:    yes    0.000000   16.000000    0.000000    80     0.2000
  3. axis:    yes    0.000000    0.000000   10.000000    48     0.2083

Effective grid spacing dv^(1/3) = 0.2027

                     log10-error:    total        iterations:
           time      wfs    density  energy       fermi  poisson
iter:   1  16:15:36          +inf  -172.051701    3      5      
iter:   2  16:15:36         -1.65  -171.747124    3      2      
iter:   3  16:15:37         -2.02  -171.704333    2      2      
iter:   4  16:15:38         -2.23  -171.690258    2      2      
iter:   5  16:15:38         -2.39  -171.683134    2      2      
iter:   6  16:15:39         -2.56  -171.684399    2      2      
iter:   7  16:15:39         -2.68  -171.681408    2      2      
iter:   8  16:15:40         -2.86  -171.680887    2      2      
iter:   9  16:15:40         -3.04  -171.680184    2      1      
iter:  10  16:15:41         -3.14  -171.681148    2      2      
iter:  11  16:15:42         -3.44  -171.681407    2      1      
iter:  12  16:15:42         -3.55  -171.681091    2      1      
iter:  13  16:15:43         -3.70  -171.681308    2      1      
iter:  14  16:15:43         -3.81  -171.681360    2      1      
iter:  15  16:15:44         -3.95  -171.681225    2      1      
iter:  16  16:15:44         -4.16  -171.681184    2      1      

Converged after 16 iterations.

Dipole moment: (0.741310, -0.824896, -0.178539) |e|*Ang

Energy contributions relative to reference atoms: (reference = -24663.074771)

Kinetic:       +115.810355
Potential:     -119.089157
External:        +0.000000
XC:            -171.161513
Entropy (-ST):   -0.279052
Local:           +2.898657
--------------------------
Free energy:   -171.820710
Extrapolated:  -171.681184

Fermi level: -4.76086

 Band  Eigenvalues  Occupancy
    0    -25.50737    2.00000
    1    -23.62252    2.00000
    2    -22.57419    2.00000
    3    -21.34013    2.00000
    4    -20.77623    2.00000
    5    -20.26740    2.00000
    6    -19.81728    2.00000
    7    -19.39043    2.00000
    8    -18.73187    2.00000
    9    -17.79052    2.00000
   10    -17.59360    2.00000
   11    -16.84865    2.00000
   12    -16.57551    2.00000
   13    -15.63005    2.00000
   14    -15.30798    2.00000
   15    -15.12834    2.00000
   16    -14.33688    2.00000
   17    -13.58539    2.00000
   18    -12.89569    2.00000
   19    -12.60451    2.00000
   20    -12.16176    2.00000
   21    -11.87897    2.00000
   22    -11.45349    2.00000
   23    -10.85655    2.00000
   24    -10.76501    2.00000
   25    -10.74299    2.00000
   26    -10.63680    2.00000
   27    -10.15123    2.00000
   28     -9.85765    2.00000
   29     -9.63848    2.00000
   30     -9.42526    2.00000
   31     -8.99447    2.00000
   32     -8.79166    2.00000
   33     -8.38332    2.00000
   34     -8.06426    2.00000
   35     -7.74715    2.00000
   36     -7.62720    2.00000
   37     -7.03118    2.00000
   38     -6.92116    2.00000
   39     -6.80663    2.00000
   40     -6.53230    2.00000
   41     -6.41617    2.00000
   42     -6.10119    2.00000
   43     -5.83776    1.99996
   44     -5.46179    1.99819
   45     -5.38406    1.99608
   46     -5.08322    1.92343
   47     -4.85986    1.45816
   48     -4.68144    0.62253
   49     -4.04808    0.00160
   50     -3.69254    0.00005
   51     -3.49998    0.00001
   52     -3.14810    0.00000
   53     -2.79270    0.00000
   54     -2.37548    0.00000
   55     -2.19566    0.00000
   56     -2.13964    0.00000
   57     -1.41566    0.00000
   58     -0.95035    0.00000
   59     -0.63866    0.00000
   60     -0.13297    0.00000
   61      0.08155    0.00000
   62      0.55479    0.00000
   63      1.07295    0.00000
   64      1.68489    0.00000
   65      2.36801    0.00000
   66      2.46044    0.00000
   67      2.76233    0.00000
   68      3.25098    0.00000
   69      4.05512    0.00000
   70      4.20843    0.00000
   71      4.64047    0.00000
   72      4.84463    0.00000
   73      5.11394    0.00000
   74      5.24241    0.00000
   75      6.33803    0.00000
   76      6.60252    0.00000
   77      6.82292    0.00000
   78      6.86310    0.00000
   79      7.13956    0.00000
   80      7.66358    0.00000
   81      7.88843    0.00000
   82      8.04173    0.00000
   83      8.31765    0.00000
   84      8.44498    0.00000
   85      8.77591    0.00000
   86      9.01840    0.00000
   87      9.06134    0.00000
   88      9.10112    0.00000
   89      9.36133    0.00000
   90      9.45231    0.00000
   91      9.57877    0.00000
   92      9.61301    0.00000
   93      9.80994    0.00000
   94      9.83199    0.00000
   95     10.00862    0.00000
   96     10.02450    0.00000
   97     10.29950    0.00000


Forces in eV/Ang:
  0 C    -0.25522    0.20941   -0.10244
  1 C     0.31772   -1.90320   -1.07013
  2 C    -0.14184   -2.45527    1.79616
  3 C    -1.71392    3.63914   -1.13595
  4 C     0.12921   -0.28902   -0.21116
  5 C     0.11137   -0.51079    0.14390
  6 C    -0.96892   -0.41472   -0.69163
  7 C    -0.35275   -0.10168   -0.27061
  8 C    -1.68186    1.05730   -0.84284
  9 C     2.10014   -3.37298    1.21682
 10 C    -0.79511    0.28009    0.19852
 11 C    -0.63191   -0.59596   -0.37778
 12 C     0.39643    0.20063    0.07938
 13 C    -1.85255   -2.25400   -2.42847
 14 C     0.22375    0.82889    0.13858
 15 C    -0.00823    0.13657   -0.01243
 16 C     2.00237   -0.68785    0.18417
 17 C    -0.92169    0.04131    0.20848
 18 C     2.00216    0.92373    1.32495
 19 C     0.95671    0.62470    0.88384
 20 C     1.17408    0.92089    2.26373
 21 C    -0.95138    1.04569   -0.29817
 22 C    -0.02778    0.25445   -0.45025
 23 C     0.77899    2.52120   -0.52528

System changes: positions 

Initializing position-dependent things.

Density initialized from wave functions
           .--------------------------------------.  
          /|                                      |  
         / |                                      |  
        /  |                                      |  
       /   |                                      |  
      /    |                                      |  
     /     |                                      |  
    /      |                                      |  
   /       |                                      |  
  /        |           C  C         C             |  
 *         |               C   C  C               |  
 |         C      C  C   C       C                |  
 |         .-C-CC--C--C--C-C---C-C----------------.  
 |        /         C     C                      /   
 |       /             C                        /    
 |      /                                      /     
 |     /                                      /      
 |    /                                      /       
 |   /                                      /        
 |  /                                      /         
 | /                                      /          
 |/                                      /           
 *--------------------------------------*            

Positions:
   0 C     10.728670    5.996815    5.042695
   1 C     11.283419    7.087030    4.924674
   2 C     11.107102    8.436729    4.988501
   3 C     10.931709   10.060329    4.828492
   4 C      9.291434    3.925915    5.168462
   5 C      9.508448    5.315171    5.191968
   6 C      9.849929    9.068067    5.128013
   7 C      7.609594    9.806179    5.794658
   8 C      6.327909    9.821066    5.917531
   9 C      5.898423    5.963153    5.524753
  10 C      8.218488    3.239170    5.235482
  11 C      7.760804    7.455599    5.439707
  12 C      8.227560    6.025939    5.323401
  13 C      6.253230    7.404406    5.523844
  14 C      6.959907    3.802859    5.313785
  15 C      8.498155    8.751660    5.468984
  16 C      7.073640    5.214027    5.383818
  17 C      3.686956    5.612344    5.541020
  18 C     11.745710    9.482671    5.784303
  19 C      4.591126    9.196408    4.463599
  20 C      4.920723    7.874886    4.813392
  21 C      3.800241    6.991340    5.072914
  22 C      2.551615    6.448649    5.495492
  23 C      4.887577    4.948657    5.614420

Unit cell:
           periodic     x           y           z      points  spacing
  1. axis:    yes   16.000000    0.000000    0.000000    80     0.2000
  2. axis:    yes    0.000000   16.000000    0.000000    80     0.2000
  3. axis:    yes    0.000000    0.000000   10.000000    48     0.2083

Effective grid spacing dv^(1/3) = 0.2027

                     log10-error:    total        iterations:
           time      wfs    density  energy       fermi  poisson
iter:   1  16:15:46          +inf  -172.768637    3      5      
iter:   2  16:15:47         -1.73  -172.556437    3      2      
iter:   3  16:15:48         -2.01  -172.503204    3      2      
iter:   4  16:15:48         -2.24  -172.491127    2      2      
iter:   5  16:15:49         -2.38  -172.483351    2      2      
iter:   6  16:15:49         -2.56  -172.485932    3      2      
iter:   7  16:15:50         -2.68  -172.482198    2      2      
iter:   8  16:15:51         -2.84  -172.478996    2      1      
iter:   9  16:15:51         -3.03  -172.479766    2      1      
iter:  10  16:15:52         -3.14  -172.481661    2      2      
iter:  11  16:15:52         -3.38  -172.481438    2      1      
iter:  12  16:15:53         -3.47  -172.481948    2      1      
iter:  13  16:15:53         -3.59  -172.481980    2      1      
iter:  14  16:15:54         -3.62  -172.481644    2      1      
iter:  15  16:15:54         -3.96  -172.481864    2      1      
iter:  16  16:15:55         -4.05  -172.481937    2      1      

Converged after 16 iterations.

Dipole moment: (0.692944, -0.825579, -0.149772) |e|*Ang

Energy contributions relative to reference atoms: (reference = -24663.074771)

Kinetic:       +115.876496
Potential:     -119.691342
External:        +0.000000
XC:            -171.439720
Entropy (-ST):   -0.268787
Local:           +2.907024
--------------------------
Free energy:   -172.616331
Extrapolated:  -172.481937

Fermi level: -4.75919

 Band  Eigenvalues  Occupancy
    0    -25.13538    2.00000
    1    -23.64016    2.00000
    2    -22.63982    2.00000
    3    -21.36710    2.00000
    4    -20.78206    2.00000
    5    -20.28057    2.00000
    6    -19.87070    2.00000
    7    -19.41243    2.00000
    8    -18.73655    2.00000
    9    -17.74998    2.00000
   10    -17.61363    2.00000
   11    -16.82835    2.00000
   12    -16.55271    2.00000
   13    -15.56127    2.00000
   14    -15.34348    2.00000
   15    -15.12764    2.00000
   16    -14.35627    2.00000
   17    -13.57894    2.00000
   18    -12.97272    2.00000
   19    -12.59800    2.00000
   20    -12.18683    2.00000
   21    -11.87443    2.00000
   22    -11.37281    2.00000
   23    -10.86796    2.00000
   24    -10.78403    2.00000
   25    -10.67303    2.00000
   26    -10.63389    2.00000
   27    -10.19147    2.00000
   28     -9.93031    2.00000
   29     -9.65350    2.00000
   30     -9.47464    2.00000
   31     -9.01521    2.00000
   32     -8.94923    2.00000
   33     -8.39729    2.00000
   34     -8.09330    2.00000
   35     -7.79546    2.00000
   36     -7.64844    2.00000
   37     -7.03858    2.00000
   38     -6.92875    2.00000
   39     -6.84527    2.00000
   40     -6.53298    2.00000
   41     -6.40256    2.00000
   42     -6.11482    2.00000
   43     -5.86892    1.99997
   44     -5.49964    1.99878
   45     -5.46888    1.99835
   46     -5.10211    1.93721
   47     -4.86150    1.47113
   48     -4.67276    0.59287
   49     -4.04966    0.00166
   50     -3.63695    0.00003
   51     -3.47530    0.00001
   52     -3.10916    0.00000
   53     -2.77340    0.00000
   54     -2.30961    0.00000
   55     -2.21024    0.00000
   56     -2.09628    0.00000
   57     -1.37487    0.00000
   58     -0.93472    0.00000
   59     -0.75934    0.00000
   60     -0.22785    0.00000
   61      0.10190    0.00000
   62      0.58577    0.00000
   63      1.15533    0.00000
   64      1.78157    0.00000
   65      2.38914    0.00000
   66      2.41252    0.00000
   67      2.81224    0.00000
   68      3.20023    0.00000
   69      4.13544    0.00000
   70      4.27752    0.00000
   71      4.65985    0.00000
   72      4.92734    0.00000
   73      5.17419    0.00000
   74      5.29575    0.00000
   75      6.44794    0.00000
   76      6.61799    0.00000
   77      6.73730    0.00000
   78      6.92411    0.00000
   79      7.14866    0.00000
   80      7.68401    0.00000
   81      7.89094    0.00000
   82      8.08720    0.00000
   83      8.36398    0.00000
   84      8.50899    0.00000
   85      8.76075    0.00000
   86      9.01456    0.00000
   87      9.05031    0.00000
   88      9.09167    0.00000
   89      9.39888    0.00000
   90      9.46773    0.00000
   91      9.56968    0.00000
   92      9.59573    0.00000
   93      9.78839    0.00000
   94      9.85727    0.00000
   95     10.00195    0.00000
   96     10.05507    0.00000
   97     10.30815    0.00000


Forces in eV/Ang:
  0 C    -0.79333   -0.88606    0.00630
  1 C     0.84543   -0.36623   -1.10825
  2 C    -0.08463   -1.99299    1.92668
  3 C    -1.41391    2.85741   -0.71551
  4 C     0.23907   -0.24203   -0.23378
  5 C     0.17746   -0.46843    0.11896
  6 C    -0.49086   -0.33926   -0.58615
  7 C    -0.68800   -0.12843   -0.20543
  8 C    -1.32506    1.00243   -1.03659
  9 C     1.73601   -2.33974    0.89259
 10 C    -0.64248    0.16189    0.20967
 11 C    -0.56860   -0.31289   -0.37903
 12 C     0.54636    0.09046    0.08355
 13 C    -1.39877   -2.11673   -2.17832
 14 C     0.13771    0.36670    0.08641
 15 C    -0.29429   -0.05130   -0.03077
 16 C     1.67176   -0.59277    0.33810
 17 C    -0.53914    0.21756    0.10489
 18 C     1.24936    0.74674    0.63211
 19 C     1.05994    0.65704    1.05991
 20 C     0.95246    0.73949    2.08483
 21 C    -0.67979    0.87373   -0.19151
 22 C    -0.18542    0.31398   -0.45881
 23 C     0.39630    1.87609   -0.43454

System changes: positions 

Initializing position-dependent things.

Density initialized from wave functions
           .--------------------------------------.  
          /|                                      |  
         / |                                      |  
        /  |                                      |  
       /   |                                      |  
      /    |                                      |  
     /     |                                      |  
    /      |                                      |  
   /       |                                      |  
  /        |           C  C         C             |  
 *         |               C   C  C               |  
 |         C      C  C   C       C                |  
 |         .-C-CC--C--C--C-C---C-C----------------.  
 |        /         C     C                      /   
 |       /             C                        /    
 |      /                                      /     
 |     /                                      /      
 |    /                                      /       
 |   /                                      /        
 |  /                                      /         
 | /                                      /          
 |/                                      /           
 *--------------------------------------*            

Positions:
   0 C     10.721182    5.987796    5.042429
   1 C     11.293110    7.079353    4.911905
   2 C     11.105830    8.424594    5.013947
   3 C     10.919529   10.084615    4.827636
   4 C      9.292972    3.921695    5.165718
   5 C      9.509322    5.309220    5.193488
   6 C      9.849994    9.065119    5.120468
   7 C      7.598114    9.804507    5.792622
   8 C      6.315653    9.832954    5.904446
   9 C      5.916714    5.940111    5.534385
  10 C      8.213287    3.241769    5.237814
  11 C      7.753366    7.453649    5.435248
  12 C      8.235053    6.026480    5.324401
  13 C      6.237921    7.378109    5.497881
  14 C      6.960807    3.805185    5.314789
  15 C      8.491778    8.749591    5.468973
  16 C      7.093580    5.207491    5.388480
  17 C      3.682870    5.616314    5.541640
  18 C     11.751767    9.491957    5.781522
  19 C      4.603635    9.205029    4.476437
  20 C      4.931920    7.881819    4.838895
  21 C      3.793820    7.000453    5.071112
  22 C      2.547977    6.452660    5.490110
  23 C      4.890952    4.969766    5.609356

Unit cell:
           periodic     x           y           z      points  spacing
  1. axis:    yes   16.000000    0.000000    0.000000    80     0.2000
  2. axis:    yes    0.000000   16.000000    0.000000    80     0.2000
  3. axis:    yes    0.000000    0.000000   10.000000    48     0.2083

Effective grid spacing dv^(1/3) = 0.2027

                     log10-error:    total        iterations:
           time      wfs    density  energy       fermi  poisson
iter:   1  16:15:57          +inf  -173.390557    3      5      
iter:   2  16:15:58         -1.79  -173.222005    3      2      
iter:   3  16:15:58         -2.02  -173.158170    3      2      
iter:   4  16:15:59         -2.33  -173.152518    2      1      
iter:   5  16:15:59         -2.41  -173.144928    2      2      
iter:   6  16:16:00         -2.60  -173.150932    3      2      
iter:   7  16:16:01         -2.63  -173.144280    3      2      
iter:   8  16:16:01         -2.81  -173.144754    2      2      
iter:   9  16:16:02         -3.01  -173.143734    2      1      
iter:  10  16:16:02         -3.18  -173.143074    2      1      
iter:  11  16:16:03         -3.34  -173.143408    2      1      
iter:  12  16:16:03         -3.46  -173.143425    2      1      
iter:  13  16:16:04         -3.63  -173.143580    2      1      
iter:  14  16:16:05         -3.82  -173.143784    2      1      
iter:  15  16:16:05         -3.88  -173.143871    2      1      
iter:  16  16:16:06         -3.99  -173.143861    1      1      
iter:  17  16:16:06         -4.15  -173.143850    2      1      

Converged after 17 iterations.

Dipole moment: (0.646971, -0.828330, -0.123925) |e|*Ang

Energy contributions relative to reference atoms: (reference = -24663.074771)

Kinetic:       +114.985694
Potential:     -119.447139
External:        +0.000000
XC:            -171.459493
Entropy (-ST):   -0.257360
Local:           +2.905768
--------------------------
Free energy:   -173.272530
Extrapolated:  -173.143850

Fermi level: -4.75049

 Band  Eigenvalues  Occupancy
    0    -24.80377    2.00000
    1    -23.65589    2.00000
    2    -22.70752    2.00000
    3    -21.41047    2.00000
    4    -20.78079    2.00000
    5    -20.27506    2.00000
    6    -19.92134    2.00000
    7    -19.42613    2.00000
    8    -18.76937    2.00000
    9    -17.72542    2.00000
   10    -17.62301    2.00000
   11    -16.84320    2.00000
   12    -16.53471    2.00000
   13    -15.51529    2.00000
   14    -15.37026    2.00000
   15    -15.11833    2.00000
   16    -14.36499    2.00000
   17    -13.57193    2.00000
   18    -13.07116    2.00000
   19    -12.59626    2.00000
   20    -12.23474    2.00000
   21    -11.89646    2.00000
   22    -11.31781    2.00000
   23    -10.90925    2.00000
   24    -10.81045    2.00000
   25    -10.70653    2.00000
   26    -10.52204    2.00000
   27    -10.22012    2.00000
   28     -9.99606    2.00000
   29     -9.66639    2.00000
   30     -9.51977    2.00000
   31     -9.09783    2.00000
   32     -9.01749    2.00000
   33     -8.39798    2.00000
   34     -8.12186    2.00000
   35     -7.84486    2.00000
   36     -7.64143    2.00000
   37     -7.03469    2.00000
   38     -6.94882    2.00000
   39     -6.84496    2.00000
   40     -6.49407    2.00000
   41     -6.39185    2.00000
   42     -6.12911    2.00000
   43     -5.90756    1.99998
   44     -5.57904    1.99950
   45     -5.49927    1.99888
   46     -5.11005    1.94658
   47     -4.86134    1.50368
   48     -4.65337    0.54929
   49     -4.06351    0.00208
   50     -3.59645    0.00002
   51     -3.46747    0.00001
   52     -3.07618    0.00000
   53     -2.77438    0.00000
   54     -2.30245    0.00000
   55     -2.22915    0.00000
   56     -2.13938    0.00000
   57     -1.34411    0.00000
   58     -0.95929    0.00000
   59     -0.81016    0.00000
   60     -0.30002    0.00000
   61      0.10398    0.00000
   62      0.60404    0.00000
   63      1.20591    0.00000
   64      1.81269    0.00000
   65      2.36010    0.00000
   66      2.39479    0.00000
   67      2.84488    0.00000
   68      3.17264    0.00000
   69      4.18635    0.00000
   70      4.32608    0.00000
   71      4.67983    0.00000
   72      5.00740    0.00000
   73      5.21864    0.00000
   74      5.34196    0.00000
   75      6.51733    0.00000
   76      6.62780    0.00000
   77      6.67825    0.00000
   78      6.95859    0.00000
   79      7.17455    0.00000
   80      7.70616    0.00000
   81      7.90521    0.00000
   82      8.12140    0.00000
   83      8.42880    0.00000
   84      8.57399    0.00000
   85      8.75600    0.00000
   86      9.00777    0.00000
   87      9.03394    0.00000
   88      9.10765    0.00000
   89      9.43013    0.00000
   90      9.48633    0.00000
   91      9.53065    0.00000
   92      9.59427    0.00000
   93      9.79512    0.00000
   94      9.87359    0.00000
   95     10.00094    0.00000
   96     10.06749    0.00000
   97     10.30544    0.00000


Forces in eV/Ang:
  0 C    -0.00691    0.13384   -0.14210
  1 C     0.41613   -1.26268   -0.94251
  2 C    -0.03735   -1.30021    1.87748
  3 C    -1.18789    2.16722   -0.43477
  4 C     0.15929   -0.40893   -0.23676
  5 C     0.01125   -0.53664    0.11523
  6 C    -0.26022   -0.22886   -0.40725
  7 C    -0.82617   -0.17744   -0.18683
  8 C    -1.15504    0.91482   -1.19973
  9 C     1.35288   -1.50369    0.64269
 10 C    -0.29377    0.14576    0.20617
 11 C    -0.46134   -0.16698   -0.39950
 12 C     0.53398    0.06486    0.09858
 13 C    -0.85041   -1.84528   -1.80794
 14 C     0.00951    0.01398    0.05350
 15 C    -0.43191   -0.11496   -0.05584
 16 C     1.41045   -0.52679    0.41374
 17 C    -0.24017    0.34331    0.01043
 18 C     0.63638    0.67790    0.17720
 19 C     1.16472    0.73712    1.20591
 20 C     0.64004    0.51857    1.84705
 21 C    -0.44520    0.74059   -0.08408
 22 C    -0.29956    0.35952   -0.44975
 23 C     0.07071    1.33359   -0.34388

System changes: positions 

Initializing position-dependent things.

Density initialized from wave functions
           .--------------------------------------.  
          /|                                      |  
         / |                                      |  
        /  |                                      |  
       /   |                                      |  
      /    |                                      |  
     /     |                                      |  
    /      |                                      |  
   /       |                                      |  
  /        |           C  C         C             |  
 *         |               C   C  C               |  
 |         C      C  C   C       C                |  
 |         .-C-CC--C--C--C-C---C-C----------------.  
 |        /         C     C                      /   
 |       /             C                        /    
 |      /                                      /     
 |     /                                      /      
 |    /                                      /       
 |   /                                      /        
 |  /                                      /         
 | /                                      /          
 |/                                      /           
 *--------------------------------------*            

Positions:
   0 C     10.719769    5.986924    5.040652
   1 C     11.300413    7.063054    4.898237
   2 C     11.105027    8.412018    5.042701
   3 C     10.905317   10.110259    4.826229
   4 C      9.294643    3.915412    5.162336
   5 C      9.509185    5.301495    5.195181
   6 C      9.850147    9.062372    5.113901
   7 C      7.583971    9.802037    5.790245
   8 C      6.301339    9.846173    5.886956
   9 C      5.934991    5.920028    5.543423
  10 C      8.209956    3.244271    5.240706
  11 C      7.746241    7.452168    5.429570
  12 C      8.243469    6.027036    5.325775
  13 C      6.225732    7.350704    5.471416
  14 C      6.960784    3.804847    5.315578
  15 C      8.483854    8.746967    5.468459
  16 C      7.114302    5.199936    5.394644
  17 C      3.680515    5.621713    5.541572
  18 C     11.755811    9.502101    5.777731
  19 C      4.620172    9.216160    4.493694
  20 C      4.941398    7.888329    4.866125
  21 C      3.788174    7.010658    5.069988
  22 C      2.542901    6.457963    5.483701
  23 C      4.891602    4.989076    5.604354

Unit cell:
           periodic     x           y           z      points  spacing
  1. axis:    yes   16.000000    0.000000    0.000000    80     0.2000
  2. axis:    yes    0.000000   16.000000    0.000000    80     0.2000
  3. axis:    yes    0.000000    0.000000   10.000000    48     0.2083

Effective grid spacing dv^(1/3) = 0.2027

                     log10-error:    total        iterations:
           time      wfs    density  energy       fermi  poisson
iter:   1  16:16:08          +inf  -173.957777    3      5      
iter:   2  16:16:09         -1.84  -173.820587    2      2      
iter:   3  16:16:09         -2.02  -173.746398    3      2      
iter:   4  16:16:10         -2.33  -173.745248    2      1      
iter:   5  16:16:11         -2.40  -173.736640    2      2      
iter:   6  16:16:11         -2.58  -173.740038    3      2      
iter:   7  16:16:12         -2.56  -173.737090    2      2      
iter:   8  16:16:12         -2.89  -173.735581    2      2      
iter:   9  16:16:13         -2.88  -173.735074    2      1      
iter:  10  16:16:13         -3.25  -173.735090    2      1      
iter:  11  16:16:14         -3.31  -173.735012    2      1      
iter:  12  16:16:15         -3.59  -173.735043    2      1      
iter:  13  16:16:15         -3.71  -173.735592    2      1      
iter:  14  16:16:16         -3.74  -173.735257    2      1      
iter:  15  16:16:16         -3.94  -173.735251    2      1      
iter:  16  16:16:17         -4.02  -173.735300    2      1      

Converged after 16 iterations.

Dipole moment: (0.584106, -0.829470, -0.092275) |e|*Ang

Energy contributions relative to reference atoms: (reference = -24663.074771)

Kinetic:       +114.798855
Potential:     -119.754247
External:        +0.000000
XC:            -171.570614
Entropy (-ST):   -0.236914
Local:           +2.909164
--------------------------
Free energy:   -173.853757
Extrapolated:  -173.735300

Fermi level: -4.74632

 Band  Eigenvalues  Occupancy
    0    -24.46599    2.00000
    1    -23.67291    2.00000
    2    -22.76664    2.00000
    3    -21.45301    2.00000
    4    -20.77784    2.00000
    5    -20.28142    2.00000
    6    -19.97568    2.00000
    7    -19.43802    2.00000
    8    -18.77448    2.00000
    9    -17.73500    2.00000
   10    -17.61244    2.00000
   11    -16.84663    2.00000
   12    -16.50901    2.00000
   13    -15.48785    2.00000
   14    -15.39639    2.00000
   15    -15.11341    2.00000
   16    -14.36869    2.00000
   17    -13.55506    2.00000
   18    -13.15493    2.00000
   19    -12.59326    2.00000
   20    -12.27168    2.00000
   21    -11.91517    2.00000
   22    -11.28290    2.00000
   23    -10.96529    2.00000
   24    -10.84970    2.00000
   25    -10.73126    2.00000
   26    -10.42923    2.00000
   27    -10.21567    2.00000
   28    -10.03132    2.00000
   29     -9.66459    2.00000
   30     -9.55608    2.00000
   31     -9.20460    2.00000
   32     -9.03745    2.00000
   33     -8.39615    2.00000
   34     -8.17146    2.00000
   35     -7.89798    2.00000
   36     -7.62415    2.00000
   37     -7.08813    2.00000
   38     -6.97892    2.00000
   39     -6.85267    2.00000
   40     -6.45140    2.00000
   41     -6.39107    2.00000
   42     -6.14194    2.00000
   43     -5.95095    1.99999
   44     -5.66214    1.99979
   45     -5.52544    1.99917
   46     -5.12353    1.95503
   47     -4.87721    1.57465
   48     -4.62793    0.46870
   49     -4.08404    0.00266
   50     -3.57080    0.00002
   51     -3.43688    0.00000
   52     -3.05043    0.00000
   53     -2.74938    0.00000
   54     -2.26987    0.00000
   55     -2.24908    0.00000
   56     -2.10852    0.00000
   57     -1.33339    0.00000
   58     -1.00454    0.00000
   59     -0.78555    0.00000
   60     -0.36156    0.00000
   61      0.09911    0.00000
   62      0.61261    0.00000
   63      1.27332    0.00000
   64      1.83505    0.00000
   65      2.30643    0.00000
   66      2.39652    0.00000
   67      2.85152    0.00000
   68      3.16234    0.00000
   69      4.22290    0.00000
   70      4.33921    0.00000
   71      4.68298    0.00000
   72      5.07422    0.00000
   73      5.26442    0.00000
   74      5.40168    0.00000
   75      6.45740    0.00000
   76      6.64160    0.00000
   77      6.68000    0.00000
   78      6.98012    0.00000
   79      7.20905    0.00000
   80      7.71872    0.00000
   81      7.84712    0.00000
   82      8.13010    0.00000
   83      8.47474    0.00000
   84      8.61282    0.00000
   85      8.75944    0.00000
   86      9.00432    0.00000
   87      9.01159    0.00000
   88      9.10881    0.00000
   89      9.43264    0.00000
   90      9.48399    0.00000
   91      9.51148    0.00000
   92      9.59499    0.00000
   93      9.78724    0.00000
   94      9.88104    0.00000
   95      9.99794    0.00000
   96     10.07253    0.00000
   97     10.29827    0.00000


Forces in eV/Ang:
  0 C    -0.27944   -0.45545   -0.08130
  1 C     0.68518   -0.39553   -0.91028
  2 C    -0.01346   -0.92869    1.76156
  3 C    -0.99599    1.54079   -0.21746
  4 C     0.25540   -0.38658   -0.25059
  5 C     0.14138   -0.43103    0.06086
  6 C     0.03216   -0.18001   -0.19687
  7 C    -0.95682   -0.22824   -0.18358
  8 C    -1.04154    0.78498   -1.40220
  9 C     0.96403   -0.92347    0.38496
 10 C    -0.16001    0.05345    0.22441
 11 C    -0.30163   -0.04774   -0.39982
 12 C     0.56711   -0.02470    0.10908
 13 C    -0.38681   -1.49750   -1.41506
 14 C    -0.04487   -0.28273    0.01510
 15 C    -0.56452   -0.18049   -0.06544
 16 C     1.01371   -0.43183    0.51521
 17 C    -0.07900    0.45374   -0.08367
 18 C     0.05333    0.52606   -0.17833
 19 C     1.28379    0.81254    1.40683
 20 C     0.37194    0.40317    1.54673
 21 C    -0.30472    0.60372    0.04250
 22 C    -0.26252    0.37945   -0.40793
 23 C    -0.08924    0.85090   -0.24475

System changes: positions 

Initializing position-dependent things.

Density initialized from wave functions
           .--------------------------------------.  
          /|                                      |  
         / |                                      |  
        /  |                                      |  
       /   |                                      |  
      /    |                                      |  
     /     |                                      |  
    /      |                                      |  
   /       |                                      |  
  /        |          C   C         C             |  
 *         |               C   C  C               |  
 |         C      C  C   C       C                |  
 |         .-C-CC--C--C--C-C---C-C----------------.  
 |        /         C     C                      /   
 |       /             C                        /    
 |      /                                      /     
 |     /                                      /      
 |    /                                      /       
 |   /                                      /        
 |  /                                      /         
 | /                                      /          
 |/                                      /           
 *--------------------------------------*            

Positions:
   0 C     10.715823    5.981192    5.039010
   1 C     11.311312    7.050893    4.882135
   2 C     11.104329    8.398029    5.074864
   3 C     10.888629   10.137101    4.824299
   4 C      9.298147    3.908122    5.158042
   5 C      9.511215    5.293680    5.196462
   6 C      9.851483    9.059248    5.109071
   7 C      7.566786    9.798361    5.787060
   8 C      6.283313    9.860517    5.863220
   9 C      5.953466    5.900085    5.551658
  10 C      8.206917    3.246064    5.244529
  11 C      7.740100    7.450749    5.422578
  12 C      8.253313    6.026934    5.327628
  13 C      6.216400    7.322610    5.444515
  14 C      6.960306    3.801685    5.316091
  15 C      8.473975    8.743786    5.467578
  16 C      7.134316    5.191836    5.403142
  17 C      3.678182    5.629130    5.540535
  18 C     11.756580    9.512574    5.772777
  19 C      4.642029    9.230427    4.517355
  20 C      4.949425    7.895737    4.894983
  21 C      3.782084    7.021919    5.070124
  22 C      2.538228    6.464488    5.476463
  23 C      4.891338    5.007182    5.599503

Unit cell:
           periodic     x           y           z      points  spacing
  1. axis:    yes   16.000000    0.000000    0.000000    80     0.2000
  2. axis:    yes    0.000000   16.000000    0.000000    80     0.2000
  3. axis:    yes    0.000000    0.000000   10.000000    48     0.2083

Effective grid spacing dv^(1/3) = 0.2027

                     log10-error:    total        iterations:
           time      wfs    density  energy       fermi  poisson
iter:   1  16:16:19          +inf  -174.511813    2      5      
iter:   2  16:16:19         -1.83  -174.379603    2      2      
iter:   3  16:16:20         -2.01  -174.291572    3      2      
iter:   4  16:16:21         -2.32  -174.292846    3      2      
iter:   5  16:16:21         -2.40  -174.283656    2      2      
iter:   6  16:16:22         -2.60  -174.282764    2      2      
iter:   7  16:16:22         -2.84  -174.283483    2      1      
iter:   8  16:16:23         -2.93  -174.282594    2      2      
iter:   9  16:16:23         -3.19  -174.282088    2      1      
iter:  10  16:16:24         -3.30  -174.281769    2      1      
iter:  11  16:16:25         -3.60  -174.281942    2      1      
iter:  12  16:16:25         -3.68  -174.282099    2      1      
iter:  13  16:16:26         -3.76  -174.282119    1      1      
iter:  14  16:16:26         -4.00  -174.282115    2      1      

Converged after 14 iterations.

Dipole moment: (0.515037, -0.827375, -0.056411) |e|*Ang

Energy contributions relative to reference atoms: (reference = -24663.074771)

Kinetic:       +113.738099
Potential:     -119.333331
External:        +0.000000
XC:            -171.485767
Entropy (-ST):   -0.212693
Local:           +2.905231
--------------------------
Free energy:   -174.388462
Extrapolated:  -174.282115

Fermi level: -4.73811

 Band  Eigenvalues  Occupancy
    0    -24.14044    2.00000
    1    -23.70136    2.00000
    2    -22.82466    2.00000
    3    -21.49825    2.00000
    4    -20.77896    2.00000
    5    -20.28062    2.00000
    6    -20.01917    2.00000
    7    -19.44154    2.00000
    8    -18.78643    2.00000
    9    -17.76087    2.00000
   10    -17.58561    2.00000
   11    -16.86055    2.00000
   12    -16.47710    2.00000
   13    -15.50234    2.00000
   14    -15.37994    2.00000
   15    -15.10696    2.00000
   16    -14.36435    2.00000
   17    -13.53288    2.00000
   18    -13.24447    2.00000
   19    -12.59308    2.00000
   20    -12.31164    2.00000
   21    -11.94554    2.00000
   22    -11.27137    2.00000
   23    -11.01838    2.00000
   24    -10.90355    2.00000
   25    -10.74948    2.00000
   26    -10.38751    2.00000
   27    -10.19148    2.00000
   28    -10.01455    2.00000
   29     -9.67888    2.00000
   30     -9.56820    2.00000
   31     -9.30244    2.00000
   32     -9.05711    2.00000
   33     -8.39824    2.00000
   34     -8.24024    2.00000
   35     -7.93591    2.00000
   36     -7.59341    2.00000
   37     -7.19933    2.00000
   38     -6.97239    2.00000
   39     -6.84605    2.00000
   40     -6.41377    2.00000
   41     -6.35880    2.00000
   42     -6.14942    2.00000
   43     -6.00091    1.99999
   44     -5.73289    1.99990
   45     -5.54429    1.99937
   46     -5.12843    1.96044
   47     -4.89436    1.65342
   48     -4.59417    0.38328
   49     -4.10542    0.00357
   50     -3.55565    0.00001
   51     -3.40453    0.00000
   52     -3.02353    0.00000
   53     -2.74270    0.00000
   54     -2.28822    0.00000
   55     -2.24747    0.00000
   56     -2.12019    0.00000
   57     -1.38396    0.00000
   58     -0.98623    0.00000
   59     -0.72103    0.00000
   60     -0.40789    0.00000
   61      0.08430    0.00000
   62      0.61274    0.00000
   63      1.31890    0.00000
   64      1.83475    0.00000
   65      2.24755    0.00000
   66      2.40289    0.00000
   67      2.84631    0.00000
   68      3.17335    0.00000
   69      4.23596    0.00000
   70      4.31662    0.00000
   71      4.67605    0.00000
   72      5.11775    0.00000
   73      5.28858    0.00000
   74      5.47879    0.00000
   75      6.33507    0.00000
   76      6.59626    0.00000
   77      6.76382    0.00000
   78      6.96273    0.00000
   79      7.25215    0.00000
   80      7.72485    0.00000
   81      7.80609    0.00000
   82      8.10826    0.00000
   83      8.47388    0.00000
   84      8.66654    0.00000
   85      8.76524    0.00000
   86      8.99886    0.00000
   87      9.03040    0.00000
   88      9.11483    0.00000
   89      9.41946    0.00000
   90      9.45427    0.00000
   91      9.52341    0.00000
   92      9.60102    0.00000
   93      9.78876    0.00000
   94      9.87798    0.00000
   95      9.99994    0.00000
   96     10.07547    0.00000
   97     10.28241    0.00000


Forces in eV/Ang:
  0 C     0.09815   -0.09809   -0.15234
  1 C     0.51299   -0.46874   -0.74666
  2 C     0.03582   -0.54063    1.54885
  3 C    -0.83115    0.96649   -0.06586
  4 C     0.27042   -0.42957   -0.24494
  5 C     0.10003   -0.43641    0.02895
  6 C     0.19932   -0.08591    0.03071
  7 C    -1.16540   -0.26703   -0.21948
  8 C    -0.86056    0.57192   -1.61742
  9 C     0.56019   -0.38108    0.18915
 10 C     0.07512    0.02672    0.22546
 11 C    -0.14911   -0.00687   -0.38913
 12 C     0.48497   -0.10289    0.11217
 13 C     0.05031   -1.08435   -1.01365
 14 C    -0.13578   -0.51312   -0.01128
 15 C    -0.56283   -0.20888   -0.06600
 16 C     0.75812   -0.40684    0.55952
 17 C     0.11638    0.47797   -0.16586
 18 C    -0.46229    0.43847   -0.40739
 19 C     1.44540    0.94781    1.59103
 20 C     0.11581    0.25783    1.26310
 21 C    -0.12158    0.51958    0.15736
 22 C    -0.31379    0.41946   -0.37104
 23 C    -0.27406    0.43743   -0.16913

System changes: positions 

Initializing position-dependent things.

Density initialized from wave functions
           .--------------------------------------.  
          /|                                      |  
         / |                                      |  
        /  |                                      |  
       /   |                                      |  
      /    |                                      |  
     /     |                                      |  
    /      |                                      |  
   /       |                                      |  
  /        |          C   C         C             |  
 *         |               C   C  C               |  
 |         C      C  C   C       C                |  
 |         .-C-CC--C--C--C-C---C-C----------------.  
 |        /         C     C                      /   
 |       /             C                        /    
 |      /                                      /     
 |     /                                      /      
 |    /                                      /       
 |   /                                      /        
 |  /                                      /         
 | /                                      /          
 |/                                      /           
 *--------------------------------------*            

Positions:
   0 C     10.715098    5.978344    5.036635
   1 C     11.320968    7.038702    4.867075
   2 C     11.104189    8.384164    5.105126
   3 C     10.871672   10.161652    4.821739
   4 C      9.302383    3.900512    5.153636
   5 C      9.513374    5.285619    5.197382
   6 C      9.853000    9.056728    5.106746
   7 C      7.547199    9.794185    5.783091
   8 C      6.265519    9.872908    5.836136
   9 C      5.969002    5.882925    5.558629
  10 C      8.205527    3.247543    5.248584
  11 C      7.735652    7.448886    5.415419
  12 C      8.262168    6.026055    5.329572
  13 C      6.210795    7.298438    5.420865
  14 C      6.959084    3.796845    5.316377
  15 C      8.464830    8.740647    5.466617
  16 C      7.152611    5.183303    5.412193
  17 C      3.676965    5.636441    5.538780
  18 C     11.754217    9.522572    5.768238
  19 C      4.666839    9.246809    4.544114
  20 C      4.955143    7.902541    4.921788
  21 C      3.777130    7.033349    5.071373
  22 C      2.533286    6.471672    5.469333
  23 C      4.889751    5.022381    5.595171

Unit cell:
           periodic     x           y           z      points  spacing
  1. axis:    yes   16.000000    0.000000    0.000000    80     0.2000
  2. axis:    yes    0.000000   16.000000    0.000000    80     0.2000
  3. axis:    yes    0.000000    0.000000   10.000000    48     0.2083

Effective grid spacing dv^(1/3) = 0.2027

                     log10-error:    total        iterations:
           time      wfs    density  energy       fermi  poisson
iter:   1  16:16:28          +inf  -174.931435    2      5      
iter:   2  16:16:29         -1.88  -174.828460    2      2      
iter:   3  16:16:29         -2.05  -174.749377    3      2      
iter:   4  16:16:30         -2.38  -174.751905    2      1      
iter:   5  16:16:31         -2.45  -174.744956    2      2      
iter:   6  16:16:31         -2.63  -174.742650    3      2      
iter:   7  16:16:32         -2.57  -174.744260    2      2      
iter:   8  16:16:32         -2.95  -174.742164    2      2      
iter:   9  16:16:33         -2.92  -174.743655    2      1      
iter:  10  16:16:33         -3.29  -174.743862    2      1      
iter:  11  16:16:34         -3.36  -174.742714    2      1      
iter:  12  16:16:35         -3.45  -174.743095    2      1      
iter:  13  16:16:35         -3.65  -174.743178    2      1      
iter:  14  16:16:36         -3.98  -174.743058    2      1      
iter:  15  16:16:36         -4.10  -174.742993    2      1      

Converged after 15 iterations.

Dipole moment: (0.449833, -0.820233, -0.019590) |e|*Ang

Energy contributions relative to reference atoms: (reference = -24663.074771)

Kinetic:       +112.578094
Potential:     -118.770573
External:        +0.000000
XC:            -171.359358
Entropy (-ST):   -0.185817
Local:           +2.901752
--------------------------
Free energy:   -174.835901
Extrapolated:  -174.742993

Fermi level: -4.73100

 Band  Eigenvalues  Occupancy
    0    -23.85429    2.00000
    1    -23.71755    2.00000
    2    -22.86815    2.00000
    3    -21.53245    2.00000
    4    -20.77969    2.00000
    5    -20.28053    2.00000
    6    -20.05112    2.00000
    7    -19.44614    2.00000
    8    -18.79269    2.00000
    9    -17.79477    2.00000
   10    -17.56967    2.00000
   11    -16.87003    2.00000
   12    -16.44275    2.00000
   13    -15.52484    2.00000
   14    -15.35590    2.00000
   15    -15.10755    2.00000
   16    -14.35878    2.00000
   17    -13.50742    2.00000
   18    -13.31129    2.00000
   19    -12.59059    2.00000
   20    -12.33571    2.00000
   21    -11.97040    2.00000
   22    -11.28085    2.00000
   23    -11.05106    2.00000
   24    -10.95263    2.00000
   25    -10.76101    2.00000
   26    -10.37762    2.00000
   27    -10.19610    2.00000
   28     -9.94058    2.00000
   29     -9.70312    2.00000
   30     -9.54238    2.00000
   31     -9.37289    2.00000
   32     -9.07248    2.00000
   33     -8.41964    2.00000
   34     -8.31098    2.00000
   35     -7.96190    2.00000
   36     -7.55662    2.00000
   37     -7.32572    2.00000
   38     -6.96745    2.00000
   39     -6.85063    2.00000
   40     -6.42414    2.00000
   41     -6.29188    2.00000
   42     -6.15138    2.00000
   43     -6.04854    2.00000
   44     -5.78849    1.99995
   45     -5.55250    1.99946
   46     -5.13101    1.96403
   47     -4.91687    1.73030
   48     -4.55815    0.30158
   49     -4.12524    0.00467
   50     -3.55159    0.00002
   51     -3.36338    0.00000
   52     -2.99599    0.00000
   53     -2.73547    0.00000
   54     -2.30832    0.00000
   55     -2.23828    0.00000
   56     -2.10887    0.00000
   57     -1.45253    0.00000
   58     -0.93727    0.00000
   59     -0.65376    0.00000
   60     -0.39693    0.00000
   61      0.06982    0.00000
   62      0.60771    0.00000
   63      1.35460    0.00000
   64      1.83571    0.00000
   65      2.19303    0.00000
   66      2.41322    0.00000
   67      2.83425    0.00000
   68      3.19803    0.00000
   69      4.22659    0.00000
   70      4.27443    0.00000
   71      4.64981    0.00000
   72      5.10192    0.00000
   73      5.31863    0.00000
   74      5.54091    0.00000
   75      6.20800    0.00000
   76      6.51969    0.00000
   77      6.83224    0.00000
   78      6.92639    0.00000
   79      7.28680    0.00000
   80      7.70208    0.00000
   81      7.75589    0.00000
   82      8.05411    0.00000
   83      8.44217    0.00000
   84      8.71728    0.00000
   85      8.77501    0.00000
   86      9.00098    0.00000
   87      9.06803    0.00000
   88      9.10917    0.00000
   89      9.40638    0.00000
   90      9.44453    0.00000
   91      9.51303    0.00000
   92      9.60934    0.00000
   93      9.78366    0.00000
   94      9.86991    0.00000
   95      9.99842    0.00000
   96     10.08219    0.00000
   97     10.26683    0.00000


Forces in eV/Ang:
  0 C     0.10382   -0.22402   -0.16383
  1 C     0.51109   -0.10328   -0.61215
  2 C     0.05561   -0.21049    1.29159
  3 C    -0.70214    0.44973    0.06625
  4 C     0.33643   -0.44590   -0.25561
  5 C     0.18283   -0.37658   -0.02063
  6 C     0.33336   -0.02934    0.22190
  7 C    -1.15734   -0.35248   -0.30453
  8 C    -0.90371    0.33510   -1.80757
  9 C     0.25822    0.00527   -0.01889
 10 C     0.22684   -0.00126    0.20752
 11 C    -0.00042    0.02482   -0.39482
 12 C     0.46421   -0.18781    0.09513
 13 C     0.33443   -0.70584   -0.61447
 14 C    -0.15809   -0.69213   -0.02308
 15 C    -0.57032   -0.19090   -0.05145
 16 C     0.41343   -0.33332    0.58184
 17 C     0.16659    0.53874   -0.23309
 18 C    -0.85305    0.31803   -0.55000
 19 C     1.59874    1.08888    1.77250
 20 C    -0.02557    0.12913    1.03344
 21 C    -0.00913    0.44781    0.23922
 22 C    -0.27551    0.40484   -0.35296
 23 C    -0.37104    0.13334   -0.09775

System changes: positions 

Initializing position-dependent things.

Density initialized from wave functions
           .--------------------------------------.  
          /|                                      |  
         / |                                      |  
        /  |                                      |  
       /   |                                      |  
      /    |                                      |  
     /     |                                      |  
    /      |                                      |  
   /       |                                      |  
[...]

Dipole moment: (-0.299822, -0.365492, 0.005589) |e|*Ang

Energy contributions relative to reference atoms: (reference = -24663.074771)

Kinetic:       +113.063961
Potential:     -120.530319
External:        +0.000000
XC:            -175.036308
Entropy (-ST):   -0.259210
Local:           +2.916444
--------------------------
Free energy:   -179.845431
Extrapolated:  -179.715827

Fermi level: -4.61199

 Band  Eigenvalues  Occupancy
    0    -24.11313    2.00000
    1    -23.56600    2.00000
    2    -22.67725    2.00000
    3    -21.62924    2.00000
    4    -20.99024    2.00000
    5    -20.47601    2.00000
    6    -20.10748    2.00000
    7    -19.58487    2.00000
    8    -18.90516    2.00000
    9    -18.50018    2.00000
   10    -17.50873    2.00000
   11    -17.35792    2.00000
   12    -16.50915    2.00000
   13    -16.24897    2.00000
   14    -15.19567    2.00000
   15    -15.13963    2.00000
   16    -14.34438    2.00000
   17    -13.85310    2.00000
   18    -13.13934    2.00000
   19    -12.76244    2.00000
   20    -12.51347    2.00000
   21    -12.03607    2.00000
   22    -11.41308    2.00000
   23    -11.23271    2.00000
   24    -11.17431    2.00000
   25    -10.98380    2.00000
   26    -10.62562    2.00000
   27    -10.23410    2.00000
   28    -10.09228    2.00000
   29     -9.97133    2.00000
   30     -9.87059    2.00000
   31     -9.68810    2.00000
   32     -9.30679    2.00000
   33     -9.20265    2.00000
   34     -8.63836    2.00000
   35     -8.04893    2.00000
   36     -7.80948    2.00000
   37     -7.41685    2.00000
   38     -7.27624    2.00000
   39     -7.03791    2.00000
   40     -6.73267    2.00000
   41     -6.50270    2.00000
   42     -6.20743    2.00000
   43     -6.11396    2.00000
   44     -5.72253    1.99997
   45     -5.08169    1.98192
   46     -4.86381    1.85081
   47     -4.79420    1.72164
   48     -4.48170    0.42735
   49     -4.12109    0.01465
   50     -3.98187    0.00366
   51     -2.82821    0.00000
   52     -2.73935    0.00000
   53     -2.32255    0.00000
   54     -1.97944    0.00000
   55     -1.85766    0.00000
   56     -1.58676    0.00000
   57     -1.10954    0.00000
   58     -0.91826    0.00000
   59     -0.23473    0.00000
   60     -0.07793    0.00000
   61      1.08087    0.00000
   62      1.24015    0.00000
   63      1.79235    0.00000
   64      2.64598    0.00000
   65      2.84029    0.00000
   66      3.00708    0.00000
   67      3.59442    0.00000
   68      4.00378    0.00000
   69      4.20512    0.00000
   70      4.31214    0.00000
   71      4.70405    0.00000
   72      5.02106    0.00000
   73      5.41554    0.00000
   74      5.82892    0.00000
   75      6.04797    0.00000
   76      6.19703    0.00000
   77      6.79571    0.00000
   78      7.03830    0.00000
   79      7.34883    0.00000
   80      7.59521    0.00000
   81      8.09870    0.00000
   82      8.27931    0.00000
   83      8.30937    0.00000
   84      8.53287    0.00000
   85      8.63920    0.00000
   86      8.68652    0.00000
   87      8.97106    0.00000
   88      9.12175    0.00000
   89      9.28097    0.00000
   90      9.48734    0.00000
   91      9.52141    0.00000
   92      9.63010    0.00000
   93      9.75829    0.00000
   94      9.94298    0.00000
   95      9.99080    0.00000
   96     10.00732    0.00000
   97     10.19960    0.00000


Forces in eV/Ang:
  0 C     0.05247   -0.04551    0.07376
  1 C    -0.02067    0.00822    0.02865
  2 C    -0.03231   -0.04246    0.00366
  3 C     0.00111    0.01845   -0.04280
  4 C     0.02504    0.05168    0.02957
  5 C     0.02769    0.00304    0.01649
  6 C    -0.00670   -0.02005    0.02865
  7 C    -0.05013    0.02986    0.00609
  8 C    -0.03652   -0.03332    0.01295
  9 C    -0.02357    0.04258   -0.08788
 10 C    -0.00760   -0.01350   -0.02131
 11 C     0.04420   -0.02992   -0.04042
 12 C     0.01498   -0.03515   -0.02025
 13 C     0.04016    0.01702    0.00853
 14 C     0.02919    0.05069   -0.02257
 15 C     0.00971    0.00950   -0.03198
 16 C    -0.01887    0.02009   -0.01732
 17 C     0.01865    0.02697    0.00363
 18 C    -0.07306   -0.04454   -0.02520
 19 C     0.03744    0.03034    0.06737
 20 C     0.00812    0.00884   -0.00631
 21 C     0.02153   -0.00643   -0.00263
 22 C    -0.01824   -0.01942    0.02454
 23 C     0.01123   -0.00702   -0.00772

System changes: positions 

Initializing position-dependent things.

Density initialized from wave functions
           .--------------------------------------.  
          /|                                      |  
         / |                                      |  
        /  |                                      |  
       /   |                                      |  
      /    |                                      |  
     /     |                                      |  
    /      |                                      |  
   /       |                                      |  
  /        |          C   C        C              |  
 *         |       C       C  C  C                |  
 |         C   C  C  C  C                         |  
 |         .-C--C--C-C---C-----C-C----------------.  
 |        /          C     CC                    /   
 |       /              C                       /    
 |      /                                      /     
 |     /                                      /      
 |    /                                      /       
 |   /                                      /        
 |  /                                      /         
 | /                                      /          
 |/                                      /           
 *--------------------------------------*            

Positions:
   0 C     10.709748    6.069581    4.916958
   1 C     11.445066    7.079907    4.921194
   2 C     11.072006    8.377990    5.305230
   3 C     10.421024   10.205992    4.833151
   4 C      9.704111    3.799146    5.121189
   5 C      9.584972    5.237229    5.094613
   6 C      9.771503    8.908057    5.126548
   7 C      7.601034    9.777169    5.372723
   8 C      6.309398    9.787195    5.326426
   9 C      5.932061    5.667975    5.485417
  10 C      8.514507    3.288444    5.307862
  11 C      7.700098    7.259310    5.313300
  12 C      8.258613    5.847073    5.300344
  13 C      6.217020    7.112445    5.369230
  14 C      7.217516    3.479095    5.498544
  15 C      8.367162    8.576536    5.312708
  16 C      7.147177    4.922799    5.468284
  17 C      3.493436    5.882053    5.394009
  18 C     11.327390    9.707717    5.857197
  19 C      5.024104    9.459793    5.308709
  20 C      5.057708    8.009728    5.326209
  21 C      3.770361    7.380763    5.317955
  22 C      2.492137    6.899997    5.225378
  23 C      4.614177    5.236020    5.529886

Unit cell:
           periodic     x           y           z      points  spacing
  1. axis:    yes   16.000000    0.000000    0.000000    80     0.2000
  2. axis:    yes    0.000000   16.000000    0.000000    80     0.2000
  3. axis:    yes    0.000000    0.000000   10.000000    48     0.2083

Effective grid spacing dv^(1/3) = 0.2027

                     log10-error:    total        iterations:
           time      wfs    density  energy       fermi  poisson
iter:   1  16:21:55          +inf  -179.722624    3      4      
iter:   2  16:21:56         -2.86  -179.719774    2      1      
iter:   3  16:21:56         -3.13  -179.718413    2      1      
iter:   4  16:21:57         -3.28  -179.718494    2      1      
iter:   5  16:21:57         -3.40  -179.716731    2      1      
iter:   6  16:21:58         -3.17  -179.717325    2      1      
iter:   7  16:21:58         -3.57  -179.719133    2      1      
iter:   8  16:21:59         -3.35  -179.718214    2      1      
iter:   9  16:21:59         -4.12  -179.718039    2      1      

Converged after 9 iterations.

Dipole moment: (-0.294367, -0.365381, 0.003611) |e|*Ang

Energy contributions relative to reference atoms: (reference = -24663.074771)

Kinetic:       +113.039756
Potential:     -120.515394
External:        +0.000000
XC:            -175.034449
Entropy (-ST):   -0.257888
Local:           +2.920993
--------------------------
Free energy:   -179.846983
Extrapolated:  -179.718039

Fermi level: -4.61160

 Band  Eigenvalues  Occupancy
    0    -24.10771    2.00000
    1    -23.57470    2.00000
    2    -22.67273    2.00000
    3    -21.62645    2.00000
    4    -20.98807    2.00000
    5    -20.47874    2.00000
    6    -20.10836    2.00000
    7    -19.58076    2.00000
    8    -18.90480    2.00000
    9    -18.49799    2.00000
   10    -17.51193    2.00000
   11    -17.35749    2.00000
   12    -16.51066    2.00000
   13    -16.25125    2.00000
   14    -15.19921    2.00000
   15    -15.14257    2.00000
   16    -14.34352    2.00000
   17    -13.85472    2.00000
   18    -13.13978    2.00000
   19    -12.76723    2.00000
   20    -12.51195    2.00000
   21    -12.03749    2.00000
   22    -11.41122    2.00000
   23    -11.22908    2.00000
   24    -11.17553    2.00000
   25    -10.98339    2.00000
   26    -10.63005    2.00000
   27    -10.23352    2.00000
   28    -10.08549    2.00000
   29     -9.97063    2.00000
   30     -9.87371    2.00000
   31     -9.69018    2.00000
   32     -9.30723    2.00000
   33     -9.20373    2.00000
   34     -8.63765    2.00000
   35     -8.04902    2.00000
   36     -7.80691    2.00000
   37     -7.41580    2.00000
   38     -7.27470    2.00000
   39     -7.03651    2.00000
   40     -6.73208    2.00000
   41     -6.49737    2.00000
   42     -6.20594    2.00000
   43     -6.11439    2.00000
   44     -5.72664    1.99997
   45     -5.08484    1.98254
   46     -4.86565    1.85385
   47     -4.79352    1.72094
   48     -4.48037    0.42419
   49     -4.12484    0.01526
   50     -3.96919    0.00324
   51     -2.83313    0.00000
   52     -2.73920    0.00000
   53     -2.32295    0.00000
   54     -1.98535    0.00000
   55     -1.86280    0.00000
   56     -1.58777    0.00000
   57     -1.11034    0.00000
   58     -0.92089    0.00000
   59     -0.23071    0.00000
   60     -0.07722    0.00000
   61      1.07005    0.00000
   62      1.24256    0.00000
   63      1.79572    0.00000
   64      2.64826    0.00000
   65      2.83189    0.00000
   66      3.01252    0.00000
   67      3.60200    0.00000
   68      3.99521    0.00000
   69      4.20706    0.00000
   70      4.32079    0.00000
   71      4.70126    0.00000
   72      5.03194    0.00000
   73      5.41707    0.00000
   74      5.84193    0.00000
   75      6.04662    0.00000
   76      6.18857    0.00000
   77      6.79294    0.00000
   78      7.04437    0.00000
   79      7.34823    0.00000
   80      7.59519    0.00000
   81      8.10261    0.00000
   82      8.27631    0.00000
   83      8.30693    0.00000
   84      8.53122    0.00000
   85      8.64095    0.00000
   86      8.69046    0.00000
   87      8.97172    0.00000
   88      9.11382    0.00000
   89      9.28214    0.00000
   90      9.48763    0.00000
   91      9.51941    0.00000
   92      9.63059    0.00000
   93      9.75818    0.00000
   94      9.94596    0.00000
   95      9.98956    0.00000
   96     10.00050    0.00000
   97     10.20185    0.00000


Forces in eV/Ang:
  0 C     0.01067   -0.05279    0.08411
  1 C     0.00717   -0.01294    0.01626
  2 C    -0.00248   -0.02523   -0.00245
  3 C     0.02228    0.01264   -0.03760
  4 C    -0.04074    0.02827    0.03946
  5 C    -0.00080    0.00792    0.00822
  6 C     0.00887    0.00718    0.01683
  7 C    -0.04906    0.00571   -0.00292
  8 C    -0.02919   -0.02790    0.01969
  9 C    -0.01080    0.02402   -0.02874
 10 C     0.00849    0.01547   -0.02327
 11 C     0.05281   -0.04576   -0.00228
 12 C     0.02266   -0.01095   -0.03568
 13 C     0.03692   -0.00828   -0.01712
 14 C     0.04992    0.05573   -0.00827
 15 C    -0.05585    0.01885   -0.01375
 16 C     0.00699    0.01422   -0.06570
 17 C     0.03628    0.05447   -0.00300
 18 C    -0.07425   -0.02477   -0.01754
 19 C     0.06737    0.05301    0.06280
 20 C    -0.00033    0.01758    0.00068
 21 C     0.02169   -0.04488   -0.01375
 22 C    -0.03170   -0.00998    0.03793
 23 C    -0.00008   -0.03185   -0.02221

System changes: positions 

Initializing position-dependent things.

Density initialized from wave functions
           .--------------------------------------.  
          /|                                      |  
         / |                                      |  
        /  |                                      |  
       /   |                                      |  
      /    |                                      |  
     /     |                                      |  
    /      |                                      |  
   /       |                                      |  
  /        |          C   C        C              |  
 *         |       C       C  C  C                |  
 |         C   C  C  C  C                         |  
 |         .-C--C--C-C---C-----C-C----------------.  
 |        /          C     CC                    /   
 |       /              C                       /    
 |      /                                      /     
 |     /                                      /      
 |    /                                      /       
 |   /                                      /        
 |  /                                      /         
 | /                                      /          
 |/                                      /           
 *--------------------------------------*            

Positions:
   0 C     10.712957    6.067380    4.919997
   1 C     11.445246    7.079915    4.923792
   2 C     11.070246    8.376713    5.306207
   3 C     10.418840   10.205482    4.831769
   4 C      9.705574    3.799407    5.122814
   5 C      9.587076    5.236975    5.097008
   6 C      9.770343    8.906517    5.125739
   7 C      7.600508    9.777549    5.372180
   8 C      6.308831    9.786553    5.327116
   9 C      5.932440    5.669122    5.480534
  10 C      8.516093    3.288063    5.307049
  11 C      7.700903    7.258866    5.310385
  12 C      8.259807    5.846655    5.300338
  13 C      6.217842    7.113127    5.366945
  14 C      7.219414    3.480397    5.496928
  15 C      8.366560    8.576226    5.309651
  16 C      7.147518    4.923380    5.467410
  17 C      3.493055    5.883064    5.394172
  18 C     11.323880    9.706766    5.856984
  19 C      5.023486    9.460859    5.314478
  20 C      5.057898    8.010648    5.327459
  21 C      3.770079    7.381673    5.319897
  22 C      2.492329    6.900655    5.225484
  23 C      4.614460    5.237944    5.529455

Unit cell:
           periodic     x           y           z      points  spacing
  1. axis:    yes   16.000000    0.000000    0.000000    80     0.2000
  2. axis:    yes    0.000000   16.000000    0.000000    80     0.2000
  3. axis:    yes    0.000000    0.000000   10.000000    48     0.2083

Effective grid spacing dv^(1/3) = 0.2027

                     log10-error:    total        iterations:
           time      wfs    density  energy       fermi  poisson
iter:   1  16:22:01          +inf  -179.719909    2      4      
iter:   2  16:22:02         -3.26  -179.719551    2      1      
iter:   3  16:22:02         -3.37  -179.719424    2      1      
iter:   4  16:22:03         -3.51  -179.719245    2      1      
iter:   5  16:22:03         -3.67  -179.718768    2      1      
iter:   6  16:22:04         -3.91  -179.719397    2      1      
iter:   7  16:22:04         -4.12  -179.719645    2      1      

Converged after 7 iterations.

Dipole moment: (-0.290306, -0.369883, 0.001516) |e|*Ang

Energy contributions relative to reference atoms: (reference = -24663.074771)

Kinetic:       +113.266418
Potential:     -120.694486
External:        +0.000000
XC:            -175.092650
Entropy (-ST):   -0.257203
Local:           +2.929674
--------------------------
Free energy:   -179.848247
Extrapolated:  -179.719645

Fermi level: -4.61007

 Band  Eigenvalues  Occupancy
    0    -24.11092    2.00000
    1    -23.57713    2.00000
    2    -22.67342    2.00000
    3    -21.62703    2.00000
    4    -20.98877    2.00000
    5    -20.47852    2.00000
    6    -20.11130    2.00000
    7    -19.57858    2.00000
    8    -18.90690    2.00000
    9    -18.49703    2.00000
   10    -17.51292    2.00000
   11    -17.35860    2.00000
   12    -16.51144    2.00000
   13    -16.25369    2.00000
   14    -15.20205    2.00000
   15    -15.13993    2.00000
   16    -14.34428    2.00000
   17    -13.85610    2.00000
   18    -13.13897    2.00000
   19    -12.76882    2.00000
   20    -12.51314    2.00000
   21    -12.03961    2.00000
   22    -11.40883    2.00000
   23    -11.22773    2.00000
   24    -11.17765    2.00000
   25    -10.98438    2.00000
   26    -10.63223    2.00000
   27    -10.23523    2.00000
   28    -10.08268    2.00000
   29     -9.97333    2.00000
   30     -9.87743    2.00000
   31     -9.69182    2.00000
   32     -9.30796    2.00000
   33     -9.20098    2.00000
   34     -8.63806    2.00000
   35     -8.04742    2.00000
   36     -7.80708    2.00000
   37     -7.41417    2.00000
   38     -7.27238    2.00000
   39     -7.03898    2.00000
   40     -6.73195    2.00000
   41     -6.49548    2.00000
   42     -6.20619    2.00000
   43     -6.11630    2.00000
   44     -5.72775    1.99997
   45     -5.08572    1.98295
   46     -4.86564    1.85590
   47     -4.79159    1.71996
   48     -4.47833    0.42248
   49     -4.12598    0.01568
   50     -3.96177    0.00305
   51     -2.83651    0.00000
   52     -2.73631    0.00000
   53     -2.32578    0.00000
   54     -1.99114    0.00000
   55     -1.86348    0.00000
   56     -1.58281    0.00000
   57     -1.10703    0.00000
   58     -0.91950    0.00000
   59     -0.22852    0.00000
   60     -0.07714    0.00000
   61      1.07057    0.00000
   62      1.24386    0.00000
   63      1.79847    0.00000
   64      2.64949    0.00000
   65      2.83189    0.00000
   66      3.01488    0.00000
   67      3.61228    0.00000
   68      3.99649    0.00000
   69      4.21326    0.00000
   70      4.32913    0.00000
   71      4.70344    0.00000
   72      5.03898    0.00000
   73      5.42262    0.00000
   74      5.85388    0.00000
   75      6.04617    0.00000
   76      6.18618    0.00000
   77      6.79429    0.00000
   78      7.05458    0.00000
   79      7.35276    0.00000
   80      7.59587    0.00000
   81      8.10767    0.00000
   82      8.27823    0.00000
   83      8.30831    0.00000
   84      8.53303    0.00000
   85      8.64156    0.00000
   86      8.69226    0.00000
   87      8.97272    0.00000
   88      9.11158    0.00000
   89      9.28423    0.00000
   90      9.48831    0.00000
   91      9.51862    0.00000
   92      9.63396    0.00000
   93      9.75892    0.00000
   94      9.94962    0.00000
   95      9.98868    0.00000
   96      9.99793    0.00000
   97     10.20706    0.00000


Forces in eV/Ang:
  0 C     0.00645   -0.02400    0.07971
  1 C     0.01418   -0.05386    0.01138
  2 C     0.01123   -0.00175   -0.00104
  3 C     0.03462   -0.00313   -0.02638
  4 C    -0.04391    0.01044    0.03790
  5 C    -0.01555    0.00342    0.00803
  6 C     0.01737    0.03397   -0.00284
  7 C    -0.02737   -0.00829   -0.00938
  8 C    -0.00400   -0.00671    0.02145
  9 C    -0.01529    0.01052    0.00639
 10 C    -0.00980    0.02067   -0.01530
 11 C     0.04129   -0.03488    0.02112
 12 C     0.02602    0.00902   -0.04343
 13 C     0.02425   -0.00854   -0.03021
 14 C     0.05587    0.04223   -0.00200
 15 C    -0.07344    0.02052    0.00069
 16 C     0.02278    0.01757   -0.08998
 17 C     0.05563    0.03825   -0.00644
 18 C    -0.07181   -0.00234   -0.00798
 19 C     0.03300    0.03705    0.07178
 20 C    -0.01026    0.01838    0.00124
 21 C     0.04714   -0.03301   -0.01851
 22 C    -0.06538   -0.00083    0.04016
 23 C    -0.00414   -0.03444   -0.02996

