
  ___ ___ ___ _ _ _  
 |   |   |_  | | | | 
 | | | | | . | | | | 
 |__ |  _|___|_____|  1.3.0b1
 |___|_|             

User:   esb@s65n33.grendel.cscaa.dk
Date:   Thu Nov  9 10:43:02 2017
Arch:   x86_64
Pid:    74894
Python: 2.7.13
gpaw:   /home/esb/DFT/gpaw_git/gpaw
_gpaw:  /home/esb/DFT/gpaw_git/build/bin.linux-x86_64-2.7/gpaw-python
ase:    /home/esb/DFT/ase_git/ase (version 3.15.0b1)
numpy:  /comm/swstack/core/python/2.7.13/lib/python2.7/site-packages/numpy (version 1.13.3)
scipy:  /comm/swstack/core/python/2.7.13/lib/python2.7/site-packages/scipy (version 0.19.1)
units:  Angstrom and eV
cores:  16
Extra parameters: {'blacs': True}

Input parameters:
  basis: dzp
  gpts: [80 80 48]
  kpts: [1 1 1]
  maxiter: 99
  mixer: {backend: pulay,
          beta: 0.05,
          method: separate,
          nmaxold: 5,
          weight: 75}
  mode: lcao
  nbands: -50
  occupations: {name: fermi-dirac,
                width: 0.1}
  poissonsolver: {eps: 1e-07,
                  name: fd,
                  nn: 3,
                  relax: GS}
  xc: PBE

System changes: positions, numbers, cell, pbc, initial_charges, initial_magmoms 

Initialize ...

C-setup:
  name: Carbon
  id: 4aa54d4b901d75f77cc0ea3eec22967b
  Z: 6
  valence: 4
  core: 2
  charge: 0.0
  file: /home/esb/DFT/gpaw-setups-0.8.7929/C.PBE.gz
  cutoffs: 0.64(comp), 1.14(filt), 1.14(core), lmax=2
  valence states:
                energy  radius
    2s(2.00)   -13.751   0.635
    2p(2.00)    -5.284   0.635
    *s          13.461   0.635
    *p          21.927   0.635
    *d           0.000   0.635

  LCAO basis set for C:
    Name: dzp
    File: /home/esb/DFT/gpaw-setups-0.8.7929/C.dzp.basis.gz
    Number of radial functions: 5
    Number of spherical harmonics: 13
      l=0, rc=5.5469 Bohr: 2s-sz confined orbital
      l=1, rc=6.6719 Bohr: 2p-sz confined orbital
      l=0, rc=3.0312 Bohr: 2s-dz split-valence wave
      l=1, rc=3.7500 Bohr: 2p-dz split-valence wave
      l=2, rc=6.6719 Bohr: d-type Gaussian polarization

Reference energy: -24663.074771

Spin-paired calculation

Occupation numbers:
  Fermi-Dirac: width=0.1000 eV

Convergence criteria:
  Maximum total energy change: 0.0005 eV / electron
  Maximum integral of absolute density change: 0.0001 electrons
  Maximum integral of absolute eigenstate change: 4e-08 eV^2
  Maximum number of iterations: 99

Symmetries present (total): 1

  ( 1  0  0)
  ( 0  1  0)
  ( 0  0  1)

1 k-point (Gamma)
1 k-point in the irreducible part of the Brillouin zone
       k-points in crystal coordinates                weights
   0:     0.00000000    0.00000000    0.00000000          1/1

Wave functions: LCAO
  Diagonalizer: Serial LAPACK
  Atomic Correction: dense with blas
  Datatype: float
  Eigensolver: None 

LCAO using direct dense diagonalizer 

Densities:
  Coarse grid: 80*80*48 grid
  Fine grid: 160*160*96 grid
  Total Charge: 0.000000 

Density mixing:
  Method: separate
  Backend: pulay
  Linear mixing parameter: 0.05
  Mixing with 5 old densities
  Damping of long wave oscillations: 75 

Hamiltonian:
  XC and Coulomb potentials evaluated on a 160*160*96 grid
  Using the PBE Exchange-Correlation functional
  Interpolation: tri-quintic (5. degree polynomial)
  Poisson solver: Gauss-Seidel solver with 6 multi-grid levels
    Coarsest grid: 5 x 5 x 3 points
    Stencil: 6*3+1=19 point O(h^6) finite-difference Laplacian
    Max iterations: 1000
    Tolerance: 1.000000e-07 

Memory estimate:
  Process memory now: 77.55 MiB
  Calculator: 15.59 MiB
    Density: 6.13 MiB
      Arrays: 3.81 MiB
      Localized functions: 0.86 MiB
      Mixer: 1.46 MiB
    Hamiltonian: 5.40 MiB
      Arrays: 2.49 MiB
      XC: 0.00 MiB
      Poisson: 2.85 MiB
      vbar: 0.07 MiB
    Wavefunctions: 4.05 MiB
      C [qnM]: 0.23 MiB
      S, T [2 x qmm]: 1.49 MiB
      P [aqMi]: 0.01 MiB
      TCI: 0.00 MiB
      BasisFunctions: 2.33 MiB
      Eigensolver: 0.00 MiB

Total number of cores used: 16
Domain decomposition: 2 x 4 x 2

Number of atoms: 24
Number of atomic orbitals: 312
Number of bands in calculation: 98
Bands to converge: occupied states only
Number of valence electrons: 96

... initialized

Initializing position-dependent things.

Density initialized from atomic densities
           .--------------------------------------.  
          /|                                      |  
         / |                                      |  
        /  |                                      |  
       /   |                                      |  
      /    |                                      |  
     /     |                                      |  
    /      |                                      |  
   /       |                                      |  
  /        |        C                             |  
 *         |   C  C      C  C CC   C              |  
 |         | C     C   C C   C                    |  
 |         .----C----C---C--CC---CC---------------.  
 |        /             C                        /   
 |       /           C                          /    
 |      /                                      /     
 |     /                                      /      
 |    /                                      /       
 |   /                                      /        
 |  /                                      /         
 | /                                      /          
 |/                                      /           
 *--------------------------------------*            

Positions:
   0 C      5.183862   10.704639    5.069115
   1 C      4.391942   10.011012    4.869007
   2 C      8.385241   10.649667    4.660461
   3 C      7.168617    9.859991    4.774223
   4 C      7.665108    8.451221    4.991007
   5 C      9.435229    9.924971    4.778218
   6 C      9.160730    8.535773    4.974009
   7 C     11.800996    5.108547    5.343198
   8 C     11.985390    6.396024    5.180474
   9 C      9.500400    6.078773    5.277858
  10 C     12.027032    7.964486    5.495532
  11 C     10.270527    8.070006    5.554155
  12 C     10.076360    3.837206    5.949045
  13 C     10.374948    4.866626    5.403511
  14 C      2.986778    8.283723    4.912047
  15 C      5.611449    6.916000    5.629533
  16 C      8.418039    3.469673    5.611555
  17 C      4.664396    6.401180    5.257773
  18 C      8.096512    6.039501    5.309670
  19 C      7.156822    7.164778    5.170795
  20 C      7.109542    4.046571    4.928735
  21 C      3.452831    9.469923    4.733607
  22 C      4.404252    7.285013    4.440119
  23 C      7.002796    5.080962    5.446294

Unit cell:
           periodic     x           y           z      points  spacing
  1. axis:    yes   16.000000    0.000000    0.000000    80     0.2000
  2. axis:    yes    0.000000   16.000000    0.000000    80     0.2000
  3. axis:    yes    0.000000    0.000000   10.000000    48     0.2083

Effective grid spacing dv^(1/3) = 0.2027

                     log10-error:    total        iterations:
           time      wfs    density  energy       fermi  poisson
iter:   1  10:43:04          +inf  -159.419169    3      6      
iter:   2  10:43:05         -0.83  -156.729816    3      3      
iter:   3  10:43:05         -0.88  -153.637019    3      3      
iter:   4  10:43:06         -0.98  -151.875285    4      3      
iter:   5  10:43:06         -1.09  -151.206711    31     3      
iter:   6  10:43:07         -1.19  -150.687502    34     4      
iter:   7  10:43:07         -1.48  -150.631189    3      3      
iter:   8  10:43:08         -1.56  -150.503937    3      3      
iter:   9  10:43:09         -1.76  -150.475912    3      2      
iter:  10  10:43:09         -1.88  -150.454267    3      3      
iter:  11  10:43:10         -2.15  -150.450408    3      2      
iter:  12  10:43:10         -2.28  -150.445467    3      2      
iter:  13  10:43:11         -2.50  -150.441323    3      2      
iter:  14  10:43:11         -2.62  -150.438536    3      2      
iter:  15  10:43:12         -2.80  -150.437430    2      2      
iter:  16  10:43:12         -3.04  -150.441283    2      1      
iter:  17  10:43:13         -3.13  -150.447741    2      1      
iter:  18  10:43:13         -3.29  -150.442212    2      1      
iter:  19  10:43:14         -3.36  -150.437907    2      1      
iter:  20  10:43:14         -3.50  -150.437583    2      1      
iter:  21  10:43:15         -3.58  -150.432545    2      1      
iter:  22  10:43:15         -3.85  -150.434823    2      1      
iter:  23  10:43:16         -4.00  -150.436939    2      1      

Converged after 23 iterations.

Dipole moment: (-0.383667, -0.133665, -0.061919) |e|*Ang

Energy contributions relative to reference atoms: (reference = -24663.074771)

Kinetic:       +191.857875
Potential:     -172.297149
External:        +0.000000
XC:            -172.758868
Entropy (-ST):   -0.354312
Local:           +2.938358
--------------------------
Free energy:   -150.614095
Extrapolated:  -150.436939

Fermi level: -4.73858

 Band  Eigenvalues  Occupancy
    0    -24.47470    2.00000
    1    -22.89999    2.00000
    2    -22.41591    2.00000
    3    -21.56750    2.00000
    4    -21.39865    2.00000
    5    -20.40100    2.00000
    6    -19.66729    2.00000
    7    -18.89634    2.00000
    8    -18.56912    2.00000
    9    -18.21360    2.00000
   10    -17.32805    2.00000
   11    -16.51058    2.00000
   12    -16.10414    2.00000
   13    -15.65456    2.00000
   14    -15.22785    2.00000
   15    -14.86053    2.00000
   16    -14.56503    2.00000
   17    -13.66714    2.00000
   18    -12.68621    2.00000
   19    -12.31698    2.00000
   20    -11.90368    2.00000
   21    -11.42820    2.00000
   22    -11.36775    2.00000
   23    -11.15197    2.00000
   24    -10.78388    2.00000
   25    -10.33168    2.00000
   26    -10.22113    2.00000
   27    -10.04735    2.00000
   28     -9.95335    2.00000
   29     -9.76898    2.00000
   30     -9.61771    2.00000
   31     -9.02368    2.00000
   32     -8.76394    2.00000
   33     -8.10347    2.00000
   34     -7.91012    2.00000
   35     -7.84864    2.00000
   36     -7.37871    2.00000
   37     -7.35972    2.00000
   38     -6.81499    2.00000
   39     -6.61927    2.00000
   40     -6.36647    2.00000
   41     -6.17337    2.00000
   42     -6.13725    2.00000
   43     -5.68715    1.99985
   44     -5.58418    1.99957
   45     -5.30325    1.99297
   46     -5.08254    1.93784
   47     -4.78003    1.20435
   48     -4.68454    0.73619
   49     -4.45065    0.10637
   50     -4.27166    0.01858
   51     -4.10245    0.00345
   52     -3.95858    0.00082
   53     -3.25880    0.00000
   54     -2.90422    0.00000
   55     -2.75392    0.00000
   56     -2.31620    0.00000
   57     -1.82633    0.00000
   58     -1.67335    0.00000
   59     -1.29249    0.00000
   60     -0.95945    0.00000
   61     -0.76813    0.00000
   62     -0.14866    0.00000
   63     -0.14137    0.00000
   64      0.46446    0.00000
   65      1.13671    0.00000
   66      1.22477    0.00000
   67      1.52027    0.00000
   68      1.78846    0.00000
   69      2.54930    0.00000
   70      2.67519    0.00000
   71      3.80096    0.00000
   72      4.14161    0.00000
   73      4.44408    0.00000
   74      4.70230    0.00000
   75      5.19081    0.00000
   76      5.79051    0.00000
   77      6.41164    0.00000
   78      6.54295    0.00000
   79      6.93077    0.00000
   80      7.34766    0.00000
   81      7.64608    0.00000
   82      7.88922    0.00000
   83      8.03041    0.00000
   84      8.32431    0.00000
   85      8.38508    0.00000
   86      8.58312    0.00000
   87      8.78994    0.00000
   88      8.79994    0.00000
   89      9.12200    0.00000
   90      9.19939    0.00000
   91      9.29194    0.00000
   92      9.57730    0.00000
   93      9.67240    0.00000
   94      9.77377    0.00000
   95      9.92608    0.00000
   96     10.10020    0.00000
   97     10.16993    0.00000


Forces in eV/Ang:
  0 C    26.46062   16.89704    4.62855
  1 C     1.85184   -1.38327   -1.89518
  2 C    -1.82801   -0.19059    0.23106
  3 C    -0.80599    1.10091    0.72813
  4 C    -0.90964    0.65635   -0.27476
  5 C    -0.20972    2.50025   -0.92127
  6 C     0.64040    1.93313   -0.33061
  7 C     1.13903    2.48772   -0.85371
  8 C     0.35177    4.14682    1.34041
  9 C    -0.94143   -0.16585    0.56136
 10 C    -3.68475   -3.97747   -0.65093
 11 C     3.65485   -6.37819   -0.60699
 12 C    -8.33614  -13.85647    5.20971
 13 C     3.10735   12.59959   -5.46060
 14 C     1.31400   -2.25210   -1.73440
 15 C    19.58820    6.92204    5.07974
 16 C    -0.02157    0.98715   -0.70850
 17 C   -11.93319  -13.35528    0.36932
 18 C    -2.23941    3.03415    0.85440
 19 C    -1.51582    2.07896    2.29480
 20 C     4.26785  -16.29598   -4.33889
 21 C   -23.79115  -15.43209   -2.69762
 22 C    -7.42495    7.08934   -6.37659
 23 C     1.29933   10.79463    5.60492

System changes: positions 

Initializing position-dependent things.

Density initialized from wave functions
           .--------------------------------------.  
          /|                                      |  
         / |                                      |  
        /  |                                      |  
       /   |                                      |  
      /    |                                      |  
     /     |                                      |  
    /      |                                      |  
   /       |                                      |  
  /        |        C                             |  
 *         |   C  C      C  C CC   C              |  
 |         | C     C   C C   C                    |  
 |         .----C----C---C--CC---CC---------------.  
 |        /             C                        /   
 |       /           C                          /    
 |      /                                      /     
 |     /                                      /      
 |    /                                      /       
 |   /                                      /        
 |  /                                      /         
 | /                                      /          
 |/                                      /           
 *--------------------------------------*            

Positions:
   0 C      5.217215   10.725936    5.074949
   1 C      4.394276   10.009268    4.866619
   2 C      8.382937   10.649427    4.660752
   3 C      7.167601    9.861379    4.775141
   4 C      7.663961    8.452048    4.990660
   5 C      9.434965    9.928123    4.777057
   6 C      9.161538    8.538209    4.973592
   7 C     11.802432    5.111683    5.342122
   8 C     11.985834    6.401250    5.182164
   9 C      9.499214    6.078564    5.278565
  10 C     12.022387    7.959473    5.494712
  11 C     10.275133    8.061967    5.553390
  12 C     10.065853    3.819741    5.955611
  13 C     10.378865    4.882507    5.396628
  14 C      2.988435    8.280885    4.909861
  15 C      5.636138    6.924725    5.635936
  16 C      8.418012    3.470917    5.610662
  17 C      4.649355    6.384346    5.258239
  18 C      8.093689    6.043325    5.310747
  19 C      7.154911    7.167398    5.173688
  20 C      7.114921    4.026031    4.923266
  21 C      3.422844    9.450472    4.730207
  22 C      4.394893    7.293949    4.432081
  23 C      7.004434    5.094568    5.453359

Unit cell:
           periodic     x           y           z      points  spacing
  1. axis:    yes   16.000000    0.000000    0.000000    80     0.2000
  2. axis:    yes    0.000000   16.000000    0.000000    80     0.2000
  3. axis:    yes    0.000000    0.000000   10.000000    48     0.2083

Effective grid spacing dv^(1/3) = 0.2027

                     log10-error:    total        iterations:
           time      wfs    density  energy       fermi  poisson
iter:   1  10:43:18          +inf  -154.891952    3      5      
iter:   2  10:43:18         -1.72  -154.747564    3      2      
iter:   3  10:43:19         -1.91  -154.697006    3      2      
iter:   4  10:43:19         -2.11  -154.681134    3      2      
iter:   5  10:43:20         -2.22  -154.671300    3      2      
iter:   6  10:43:20         -2.38  -154.666717    3      2      
iter:   7  10:43:21         -2.58  -154.663531    3      2      
iter:   8  10:43:21         -2.79  -154.665003    2      1      
iter:   9  10:43:22         -2.87  -154.660869    3      2      
iter:  10  10:43:23         -3.11  -154.660648    2      1      
iter:  11  10:43:23         -3.21  -154.659613    2      1      
iter:  12  10:43:24         -3.37  -154.656309    2      1      
iter:  13  10:43:24         -3.56  -154.658956    2      1      
iter:  14  10:43:25         -3.67  -154.658940    2      1      
iter:  15  10:43:25         -3.85  -154.656359    2      1      
iter:  16  10:43:26         -3.93  -154.660585    2      1      
iter:  17  10:43:26         -4.16  -154.659192    2      1      

Converged after 17 iterations.

Dipole moment: (-0.378635, -0.127855, -0.070351) |e|*Ang

Energy contributions relative to reference atoms: (reference = -24663.074771)

Kinetic:       +165.170798
Potential:     -153.701623
External:        +0.000000
XC:            -168.809734
Entropy (-ST):   -0.339256
Local:           +2.850995
--------------------------
Free energy:   -154.828820
Extrapolated:  -154.659192

Fermi level: -4.76182

 Band  Eigenvalues  Occupancy
    0    -23.99186    2.00000
    1    -22.86910    2.00000
    2    -22.35564    2.00000
    3    -21.47642    2.00000
    4    -21.27190    2.00000
    5    -20.37305    2.00000
    6    -19.64074    2.00000
    7    -18.88183    2.00000
    8    -18.54810    2.00000
    9    -18.21442    2.00000
   10    -17.32470    2.00000
   11    -16.55747    2.00000
   12    -15.94534    2.00000
   13    -15.67302    2.00000
   14    -15.18516    2.00000
   15    -14.84667    2.00000
   16    -14.51829    2.00000
   17    -13.64278    2.00000
   18    -12.68973    2.00000
   19    -12.29747    2.00000
   20    -11.90058    2.00000
   21    -11.41127    2.00000
   22    -11.25967    2.00000
   23    -11.05974    2.00000
   24    -10.74291    2.00000
   25    -10.33631    2.00000
   26    -10.12970    2.00000
   27     -9.91588    2.00000
   28     -9.89364    2.00000
   29     -9.75961    2.00000
   30     -9.41218    2.00000
   31     -8.96429    2.00000
   32     -8.73052    2.00000
   33     -8.08575    2.00000
   34     -7.89145    2.00000
   35     -7.81273    2.00000
   36     -7.36433    2.00000
   37     -7.32171    2.00000
   38     -6.82320    2.00000
   39     -6.63113    2.00000
   40     -6.35673    2.00000
   41     -6.17971    2.00000
   42     -6.15985    2.00000
   43     -5.75952    1.99991
   44     -5.58752    1.99948
   45     -5.35407    1.99466
   46     -5.10654    1.93830
   47     -4.82282    1.29590
   48     -4.68973    0.65441
   49     -4.46488    0.09766
   50     -4.27962    0.01597
   51     -4.09123    0.00244
   52     -4.02464    0.00126
   53     -3.31305    0.00000
   54     -2.90313    0.00000
   55     -2.75834    0.00000
   56     -2.30106    0.00000
   57     -1.84547    0.00000
   58     -1.70354    0.00000
   59     -1.29543    0.00000
   60     -0.98123    0.00000
   61     -0.84088    0.00000
   62     -0.23620    0.00000
   63     -0.12562    0.00000
   64      0.40302    0.00000
   65      1.18125    0.00000
   66      1.25036    0.00000
   67      1.52689    0.00000
   68      1.81017    0.00000
   69      2.51904    0.00000
   70      2.60232    0.00000
   71      3.84426    0.00000
   72      4.19270    0.00000
   73      4.22274    0.00000
   74      4.66599    0.00000
   75      5.17422    0.00000
   76      5.78632    0.00000
   77      6.22267    0.00000
   78      6.60513    0.00000
   79      6.91902    0.00000
   80      7.36099    0.00000
   81      7.64913    0.00000
   82      7.90131    0.00000
   83      7.99897    0.00000
   84      8.33558    0.00000
   85      8.37632    0.00000
   86      8.58095    0.00000
   87      8.77505    0.00000
   88      8.82238    0.00000
   89      9.15331    0.00000
   90      9.16166    0.00000
   91      9.23680    0.00000
   92      9.53530    0.00000
   93      9.63320    0.00000
   94      9.73223    0.00000
   95      9.89341    0.00000
   96     10.07059    0.00000
   97     10.12153    0.00000


Forces in eV/Ang:
  0 C    20.35876   11.46522    3.07866
  1 C     2.13455    0.37110   -1.28265
  2 C    -1.71590   -0.22175    0.25186
  3 C    -0.93662    1.18638    0.77744
  4 C    -0.75637    0.77372   -0.28815
  5 C    -0.29372    2.45045   -0.92580
  6 C     0.92043    1.88893   -0.21070
  7 C     1.08081    2.43934   -0.84437
  8 C     0.34036    4.23303    1.34695
  9 C    -0.87289   -0.02315    0.54861
 10 C    -3.70790   -3.98875   -0.64842
 11 C     3.36677   -6.28216   -0.77268
 12 C    -7.47453  -10.70913    3.46739
 13 C     2.09598    9.20856   -3.68829
 14 C     0.77387   -3.92142   -1.54984
 15 C    14.22253    4.12346    2.89363
 16 C    -0.02434    1.34112   -0.90994
 17 C    -7.44130   -9.33592    1.05793
 18 C    -1.97105    2.99295    0.78201
 19 C    -1.52359    2.17898    2.29548
 20 C     4.06867  -12.79465   -2.32523
 21 C   -17.39748  -10.03096   -2.00908
 22 C    -6.69444    5.48126   -4.82156
 23 C     1.48304    7.03702    3.80910

System changes: positions 

Initializing position-dependent things.

Density initialized from wave functions
           .--------------------------------------.  
          /|                                      |  
         / |                                      |  
        /  |                                      |  
       /   |                                      |  
      /    |                                      |  
     /     |                                      |  
    /      |                                      |  
   /       |                                      |  
  /        |         C                            |  
 *         |   C  C      C  C CC   C              |  
 |         | C     C   C C   C                    |  
 |         .----C----C--C---CC---CC---------------.  
 |        /             C                        /   
 |       /           C                          /    
 |      /                                      /     
 |     /                                      /      
 |    /                                      /       
 |   /                                      /        
 |  /                                      /         
 | /                                      /          
 |/                                      /           
 *--------------------------------------*            

Positions:
   0 C      5.256523   10.733229    5.076228
   1 C      4.405260   10.023863    4.865839
   2 C      8.376632   10.648272    4.661954
   3 C      7.162732    9.866950    4.778742
   4 C      7.661954    8.456141    4.989362
   5 C      9.433118    9.937947    4.773171
   6 C      9.167450    8.545739    4.973608
   7 C     11.806495    5.121472    5.338679
   8 C     11.987165    6.419503    5.187816
   9 C      9.496092    6.079530    5.280753
  10 C     12.006788    7.942794    5.492033
  11 C     10.286998    8.036545    5.548943
  12 C     10.041165    3.798599    5.957076
  13 C     10.380061    4.895592    5.394468
  14 C      2.987636    8.252152    4.904786
  15 C      5.655395    6.921062    5.631712
  16 C      8.417890    3.479130    5.605378
  17 C      4.651811    6.375405    5.267763
  18 C      8.087485    6.055470    5.313461
  19 C      7.148515    7.177208    5.183243
  20 C      7.130367    3.998846    4.928572
  21 C      3.398026    9.448918    4.726971
  22 C      4.372476    7.304791    4.423590
  23 C      7.011970    5.095892    5.455847

Unit cell:
           periodic     x           y           z      points  spacing
  1. axis:    yes   16.000000    0.000000    0.000000    80     0.2000
  2. axis:    yes    0.000000   16.000000    0.000000    80     0.2000
  3. axis:    yes    0.000000    0.000000   10.000000    48     0.2083

Effective grid spacing dv^(1/3) = 0.2027

                     log10-error:    total        iterations:
           time      wfs    density  energy       fermi  poisson
iter:   1  10:43:28          +inf  -158.382865    3      5      
iter:   2  10:43:28         -1.68  -158.170280    3      2      
iter:   3  10:43:29         -1.90  -158.114717    3      2      
iter:   4  10:43:29         -2.04  -158.082649    3      2      
iter:   5  10:43:30         -2.22  -158.073938    3      2      
iter:   6  10:43:31         -2.38  -158.070882    2      2      
iter:   7  10:43:31         -2.55  -158.069309    2      2      
iter:   8  10:43:32         -2.73  -158.068017    2      2      
iter:   9  10:43:32         -2.85  -158.067264    2      2      
iter:  10  10:43:33         -3.11  -158.067884    2      1      
iter:  11  10:43:33         -3.23  -158.066468    2      1      
iter:  12  10:43:34         -3.44  -158.066000    2      1      
iter:  13  10:43:34         -3.50  -158.065368    2      1      
iter:  14  10:43:35         -3.71  -158.065978    2      1      
iter:  15  10:43:35         -3.88  -158.066822    2      1      
iter:  16  10:43:36         -3.94  -158.066522    2      1      
iter:  17  10:43:36         -4.03  -158.066375    2      1      

Converged after 17 iterations.

Dipole moment: (-0.456924, -0.098913, -0.067890) |e|*Ang

Energy contributions relative to reference atoms: (reference = -24663.074771)

Kinetic:       +143.690777
Potential:     -138.361275
External:        +0.000000
XC:            -166.064644
Entropy (-ST):   -0.325022
Local:           +2.831278
--------------------------
Free energy:   -158.228886
Extrapolated:  -158.066375

Fermi level: -4.73786

 Band  Eigenvalues  Occupancy
    0    -23.66699    2.00000
    1    -22.77814    2.00000
    2    -22.27819    2.00000
    3    -21.31868    2.00000
    4    -21.11790    2.00000
    5    -20.37985    2.00000
    6    -19.55320    2.00000
    7    -18.84323    2.00000
    8    -18.54082    2.00000
    9    -18.20674    2.00000
   10    -17.30652    2.00000
   11    -16.66088    2.00000
   12    -15.91047    2.00000
   13    -15.69332    2.00000
   14    -15.12130    2.00000
   15    -14.84611    2.00000
   16    -14.47832    2.00000
   17    -13.61852    2.00000
   18    -12.69647    2.00000
   19    -12.25220    2.00000
   20    -11.93622    2.00000
   21    -11.39682    2.00000
   22    -11.19045    2.00000
   23    -11.03073    2.00000
   24    -10.68409    2.00000
   25    -10.38321    2.00000
   26    -10.05576    2.00000
   27     -9.85800    2.00000
   28     -9.85053    2.00000
   29     -9.73711    2.00000
   30     -9.25242    2.00000
   31     -8.89783    2.00000
   32     -8.78156    2.00000
   33     -8.09001    2.00000
   34     -7.93269    2.00000
   35     -7.82690    2.00000
   36     -7.36757    2.00000
   37     -7.34038    2.00000
   38     -6.80597    2.00000
   39     -6.61164    2.00000
   40     -6.40468    2.00000
   41     -6.18046    2.00000
   42     -6.17763    2.00000
   43     -5.84098    1.99997
   44     -5.53180    1.99929
   45     -5.35543    1.99585
   46     -5.09047    1.94284
   47     -4.81237    1.35624
   48     -4.65335    0.60094
   49     -4.42760    0.08600
   50     -4.24434    0.01428
   51     -4.09026    0.00308
   52     -4.02038    0.00153
   53     -3.29828    0.00000
   54     -2.84589    0.00000
   55     -2.70195    0.00000
   56     -2.25368    0.00000
   57     -1.81537    0.00000
   58     -1.70123    0.00000
   59     -1.32477    0.00000
   60     -1.05028    0.00000
   61     -0.85984    0.00000
   62     -0.27292    0.00000
   63     -0.10843    0.00000
   64      0.41338    0.00000
   65      1.32952    0.00000
   66      1.33754    0.00000
   67      1.64727    0.00000
   68      1.98452    0.00000
   69      2.64600    0.00000
   70      2.66718    0.00000
   71      3.93307    0.00000
   72      3.97392    0.00000
   73      4.53758    0.00000
   74      4.80250    0.00000
   75      5.16427    0.00000
   76      5.81185    0.00000
   77      6.10971    0.00000
   78      6.76534    0.00000
   79      7.07303    0.00000
   80      7.36407    0.00000
   81      7.67890    0.00000
   82      7.85945    0.00000
   83      8.01357    0.00000
   84      8.34988    0.00000
   85      8.41231    0.00000
   86      8.54915    0.00000
   87      8.76200    0.00000
   88      8.85050    0.00000
   89      9.09826    0.00000
   90      9.15922    0.00000
   91      9.26264    0.00000
   92      9.49828    0.00000
   93      9.56341    0.00000
   94      9.75406    0.00000
   95      9.86948    0.00000
   96     10.03182    0.00000
   97     10.10346    0.00000


Forces in eV/Ang:
  0 C    18.29728    8.98237    2.41288
  1 C    -0.90602   -0.57335   -1.35987
  2 C    -1.68702   -0.10740    0.26601
  3 C    -1.09529    1.31334    0.76866
  4 C    -0.51795    0.93779   -0.20886
  5 C    -0.31891    2.20371   -0.89219
  6 C     1.37536    1.78282    0.05306
  7 C     0.83903    2.50194   -0.80234
  8 C     0.20374    3.96120    1.35533
  9 C    -0.76087    0.23999    0.55213
 10 C    -3.83248   -3.87119   -0.66102
 11 C     2.77207   -6.05792   -1.11850
 12 C    -7.20910   -8.33975    1.89246
 13 C     1.59172    6.65738   -2.24926
 14 C     1.41709   -2.61137   -1.74871
 15 C    12.79548    3.33089    2.31830
 16 C     0.45143    1.69318   -0.93260
 17 C    -6.59776   -6.95756    0.22176
 18 C    -1.81110    2.72196    0.73029
 19 C    -1.43555    2.07974    2.26196
 20 C     4.06291  -10.82182   -1.03990
 21 C   -12.75915   -7.98042   -1.14462
 22 C    -6.35543    3.77446   -3.30789
 23 C     1.50180    5.13565    2.67496

System changes: positions 

Initializing position-dependent things.

Density initialized from wave functions
           .--------------------------------------.  
          /|                                      |  
         / |                                      |  
        /  |                                      |  
       /   |                                      |  
      /    |                                      |  
     /     |                                      |  
    /      |                                      |  
   /       |                                      |  
  /        |         C                            |  
 *         |   C  C      C  C CC   C              |  
 |         | C     C   C C   C                    |  
 |         .----C----C--C---CC---CC---------------.  
 |        /             C                        /   
 |       /           C                          /    
 |      /                                      /     
 |     /                                      /      
 |    /                                      /       
 |   /                                      /        
 |  /                                      /         
 | /                                      /          
 |/                                      /           
 *--------------------------------------*            

Positions:
   0 C      5.296410   10.736225    5.076568
   1 C      4.394601   10.027920    4.863066
   2 C      8.370190   10.647972    4.663220
   3 C      7.157017    9.873264    4.782207
   4 C      7.661217    8.461140    4.988631
   5 C      9.431274    9.946289    4.769486
   6 C      9.175924    8.552723    4.975170
   7 C     11.809065    5.131921    5.335465
   8 C     11.987590    6.435873    5.193576
   9 C      9.493550    6.081994    5.283020
  10 C     11.990203    7.926768    5.489230
  11 C     10.295552    8.012162    5.542437
  12 C     10.016000    3.786213    5.951750
  13 C     10.380165    4.899146    5.398076
  14 C      2.992570    8.236131    4.897837
  15 C      5.677661    6.918477    5.628619
  16 C      8.421075    3.489042    5.600353
  17 C      4.649523    6.373357    5.269964
  18 C      8.081686    6.065971    5.316020
  19 C      7.142675    7.186203    5.192672
  20 C      7.146420    3.976759    4.938094
  21 C      3.389986    9.448799    4.728067
  22 C      4.350427    7.307716    4.421826
  23 C      7.019288    5.092926    5.454742

Unit cell:
           periodic     x           y           z      points  spacing
  1. axis:    yes   16.000000    0.000000    0.000000    80     0.2000
  2. axis:    yes    0.000000   16.000000    0.000000    80     0.2000
  3. axis:    yes    0.000000    0.000000   10.000000    48     0.2083

Effective grid spacing dv^(1/3) = 0.2027

                     log10-error:    total        iterations:
           time      wfs    density  energy       fermi  poisson
iter:   1  10:43:38          +inf  -160.752510    3      5      
iter:   2  10:43:39         -1.68  -160.558985    3      2      
iter:   3  10:43:39         -1.98  -160.529027    3      2      
iter:   4  10:43:40         -2.10  -160.507662    3      2      
iter:   5  10:43:40         -2.32  -160.500658    3      2      
iter:   6  10:43:41         -2.48  -160.499341    2      2      
iter:   7  10:43:41         -2.59  -160.498201    2      2      
iter:   8  10:43:42         -2.79  -160.497969    2      2      
iter:   9  10:43:42         -2.91  -160.497444    2      2      
iter:  10  10:43:43         -3.20  -160.497260    2      1      
iter:  11  10:43:43         -3.32  -160.496667    2      1      
iter:  12  10:43:44         -3.50  -160.497026    2      1      
iter:  13  10:43:44         -3.58  -160.496797    2      1      
iter:  14  10:43:45         -3.78  -160.497088    2      1      
iter:  15  10:43:45         -3.90  -160.497240    2      1      
iter:  16  10:43:46         -3.98  -160.497189    2      1      
iter:  17  10:43:47         -4.08  -160.497483    2      1      

Converged after 17 iterations.

Dipole moment: (-0.541960, -0.080003, -0.064681) |e|*Ang

Energy contributions relative to reference atoms: (reference = -24663.074771)

Kinetic:       +130.700452
Potential:     -129.068736
External:        +0.000000
XC:            -164.810173
Entropy (-ST):   -0.315860
Local:           +2.838904
--------------------------
Free energy:   -160.655413
Extrapolated:  -160.497483

Fermi level: -4.69890

 Band  Eigenvalues  Occupancy
    0    -23.43211    2.00000
    1    -22.67137    2.00000
    2    -22.21102    2.00000
    3    -21.21498    2.00000
    4    -21.11714    2.00000
    5    -20.38815    2.00000
    6    -19.49820    2.00000
    7    -18.82818    2.00000
    8    -18.46478    2.00000
    9    -18.18110    2.00000
   10    -17.30270    2.00000
   11    -16.75373    2.00000
   12    -15.95038    2.00000
   13    -15.70680    2.00000
   14    -15.15498    2.00000
   15    -14.84856    2.00000
   16    -14.45091    2.00000
   17    -13.58131    2.00000
   18    -12.70768    2.00000
   19    -12.20107    2.00000
   20    -11.96160    2.00000
   21    -11.39138    2.00000
   22    -11.15400    2.00000
   23    -11.02022    2.00000
   24    -10.65464    2.00000
   25    -10.41571    2.00000
   26     -9.99597    2.00000
   27     -9.88850    2.00000
   28     -9.81518    2.00000
   29     -9.70630    2.00000
   30     -9.21806    2.00000
   31     -8.90002    2.00000
   32     -8.79284    2.00000
   33     -8.14104    2.00000
   34     -7.97967    2.00000
   35     -7.84594    2.00000
   36     -7.40857    2.00000
   37     -7.34135    2.00000
   38     -6.79336    2.00000
   39     -6.58220    2.00000
   40     -6.41358    2.00000
   41     -6.17530    2.00000
   42     -6.16911    2.00000
   43     -5.87014    1.99998
   44     -5.47936    1.99918
   45     -5.33178    1.99644
   46     -5.05469    1.94458
   47     -4.78347    1.39931
   48     -4.60478    0.56131
   49     -4.38007    0.07921
   50     -4.19745    0.01319
   51     -4.09688    0.00485
   52     -4.00535    0.00194
   53     -3.25790    0.00000
   54     -2.75294    0.00000
   55     -2.63136    0.00000
   56     -2.13874    0.00000
   57     -1.79596    0.00000
   58     -1.67244    0.00000
   59     -1.33860    0.00000
   60     -1.11232    0.00000
   61     -0.78912    0.00000
   62     -0.29732    0.00000
   63     -0.05888    0.00000
   64      0.48843    0.00000
   65      1.42783    0.00000
   66      1.43536    0.00000
   67      1.81569    0.00000
   68      2.18724    0.00000
   69      2.72242    0.00000
   70      2.80192    0.00000
   71      3.74654    0.00000
   72      4.11469    0.00000
   73      4.77788    0.00000
   74      5.05886    0.00000
   75      5.25598    0.00000
   76      5.84066    0.00000
   77      6.11468    0.00000
   78      6.92159    0.00000
   79      7.20175    0.00000
   80      7.39793    0.00000
   81      7.73753    0.00000
   82      7.84400    0.00000
   83      8.06168    0.00000
   84      8.32923    0.00000
   85      8.50092    0.00000
   86      8.55586    0.00000
   87      8.77073    0.00000
   88      8.86826    0.00000
   89      9.06003    0.00000
   90      9.14786    0.00000
   91      9.33650    0.00000
   92      9.44968    0.00000
   93      9.58220    0.00000
   94      9.78407    0.00000
   95      9.89376    0.00000
   96     10.00305    0.00000
   97     10.10495    0.00000


Forces in eV/Ang:
  0 C    14.22636    5.10516    1.28624
  1 C     3.08425    2.93692   -0.33241
  2 C    -1.53192   -0.05644    0.27284
  3 C    -1.32460    1.33096    0.74924
  4 C    -0.31430    1.02362   -0.13267
  5 C    -0.38574    2.07198   -0.87201
  6 C     1.46211    1.71244    0.18560
  7 C     0.59690    2.44984   -0.72896
  8 C     0.12123    3.59992    1.32640
  9 C    -0.68879    0.40586    0.57481
 10 C    -3.90102   -3.68419   -0.62595
 11 C     2.41350   -5.87544   -1.31718
 12 C    -7.49389   -7.56242    1.08106
 13 C     1.58384    5.81708   -1.64647
 14 C     1.65378   -2.18405   -1.90479
 15 C    10.91412    2.25507    1.68743
 16 C     1.05945    1.92034   -0.81251
 17 C    -5.04083   -5.41982    0.34375
 18 C    -1.60414    2.43796    0.67001
 19 C    -1.25701    2.02427    2.14757
 20 C     4.06856   -9.84950   -0.39809
 21 C   -12.68857   -8.10315   -1.02051
 22 C    -6.34642    3.16201   -2.65238
 23 C     1.39164    4.39073    2.10914

System changes: positions 

Initializing position-dependent things.

Density initialized from wave functions
           .--------------------------------------.  
          /|                                      |  
         / |                                      |  
        /  |                                      |  
       /   |                                      |  
      /    |                                      |  
     /     |                                      |  
    /      |                                      |  
   /       |                                      |  
  /        |         C                            |  
 *         |   C  C      C  C CC   C              |  
 |         | C     C   C C   C                    |  
 |         .----C----C--C---CC---CC---------------.  
 |        /             C   C                    /   
 |       /           C                          /    
 |      /                                      /     
 |     /                                      /      
 |    /                                      /       
 |   /                                      /        
 |  /                                      /         
 | /                                      /          
 |/                                      /           
 *--------------------------------------*            

Positions:
   0 C      5.335038   10.726462    5.073030
   1 C      4.399647   10.048577    4.863923
   2 C      8.362467   10.647980    4.664881
   3 C      7.148444    9.881532    4.786532
   4 C      7.661258    8.468034    4.988161
   5 C      9.428632    9.956370    4.764821
   6 C      9.187281    8.561447    4.977897
   7 C     11.811049    5.145376    5.331685
   8 C     11.987630    6.454947    5.200920
   9 C      9.490588    6.086039    5.286119
  10 C     11.968178    7.906985    5.485753
  11 C     10.304846    7.981363    5.532933
  12 C      9.980465    3.770728    5.942230
  13 C     10.381558    4.903057    5.404100
  14 C      3.001567    8.221113    4.887514
  15 C      5.704306    6.913335    5.624356
  16 C      8.428806    3.502837    5.594760
  17 C      4.648195    6.374020    5.271821
  18 C      8.074911    6.078017    5.319112
  19 C      7.136094    7.197401    5.204323
  20 C      7.167685    3.948844    4.951542
  21 C      3.372631    9.440617    4.729622
  22 C      4.320790    7.309711    4.421535
  23 C      7.027949    5.089877    5.452417

Unit cell:
           periodic     x           y           z      points  spacing
  1. axis:    yes   16.000000    0.000000    0.000000    80     0.2000
  2. axis:    yes    0.000000   16.000000    0.000000    80     0.2000
  3. axis:    yes    0.000000    0.000000   10.000000    48     0.2083

Effective grid spacing dv^(1/3) = 0.2027

                     log10-error:    total        iterations:
           time      wfs    density  energy       fermi  poisson
iter:   1  10:43:48          +inf  -163.585191    3      5      
iter:   2  10:43:49         -1.64  -163.369869    3      2      
iter:   3  10:43:49         -1.87  -163.321420    2      2      
iter:   4  10:43:50         -2.01  -163.284672    2      2      
iter:   5  10:43:50         -2.26  -163.278824    2      2      
iter:   6  10:43:51         -2.36  -163.272668    2      2      
iter:   7  10:43:52         -2.58  -163.272449    2      2      
iter:   8  10:43:52         -2.78  -163.272478    2      2      
iter:   9  10:43:53         -2.91  -163.271733    2      2      
iter:  10  10:43:53         -3.16  -163.270962    2      1      
iter:  11  10:43:54         -3.27  -163.271007    2      1      
iter:  12  10:43:54         -3.42  -163.271847    2      1      
iter:  13  10:43:55         -3.52  -163.271746    2      1      
iter:  14  10:43:55         -3.74  -163.272084    2      1      
iter:  15  10:43:56         -3.88  -163.272206    2      1      
iter:  16  10:43:56         -3.93  -163.272086    2      1      
iter:  17  10:43:57         -4.02  -163.272125    2      1      

Converged after 17 iterations.

Dipole moment: (-0.621066, -0.050607, -0.054206) |e|*Ang

Energy contributions relative to reference atoms: (reference = -24663.074771)

Kinetic:       +118.693564
Potential:     -120.476706
External:        +0.000000
XC:            -164.196049
Entropy (-ST):   -0.288222
Local:           +2.851177
--------------------------
Free energy:   -163.416236
Extrapolated:  -163.272125

Fermi level: -4.65288

 Band  Eigenvalues  Occupancy
    0    -23.19813    2.00000
    1    -22.53245    2.00000
    2    -22.13006    2.00000
    3    -21.10821    2.00000
    4    -21.00556    2.00000
    5    -20.39425    2.00000
    6    -19.46102    2.00000
    7    -18.83834    2.00000
    8    -18.51439    2.00000
    9    -18.16184    2.00000
   10    -17.30487    2.00000
   11    -16.86905    2.00000
   12    -15.95458    2.00000
   13    -15.72229    2.00000
   14    -15.16191    2.00000
   15    -14.86165    2.00000
   16    -14.42083    2.00000
   17    -13.54237    2.00000
   18    -12.73503    2.00000
   19    -12.14968    2.00000
   20    -12.00303    2.00000
   21    -11.40799    2.00000
   22    -11.13397    2.00000
   23    -11.02615    2.00000
   24    -10.62126    2.00000
   25    -10.44520    2.00000
   26     -9.99242    2.00000
   27     -9.90356    2.00000
   28     -9.77132    2.00000
   29     -9.64425    2.00000
   30     -9.18151    2.00000
   31     -8.94078    2.00000
   32     -8.75537    2.00000
   33     -8.19684    2.00000
   34     -8.02531    2.00000
   35     -7.87199    2.00000
   36     -7.46581    2.00000
   37     -7.34508    2.00000
   38     -6.78860    2.00000
   39     -6.55479    2.00000
   40     -6.41447    2.00000
   41     -6.18731    2.00000
   42     -6.16435    2.00000
   43     -5.96111    2.00000
   44     -5.46583    1.99941
   45     -5.30781    1.99714
   46     -5.01018    1.94539
   47     -4.76229    1.49830
   48     -4.53971    0.48770
   49     -4.29487    0.05423
   50     -4.13263    0.01095
   51     -4.04935    0.00477
   52     -3.96725    0.00210
   53     -3.19425    0.00000
   54     -2.66484    0.00000
   55     -2.54177    0.00000
   56     -2.03627    0.00000
   57     -1.78170    0.00000
   58     -1.62765    0.00000
   59     -1.26499    0.00000
   60     -1.12810    0.00000
   61     -0.66311    0.00000
   62     -0.27670    0.00000
   63      0.05445    0.00000
   64      0.61026    0.00000
   65      1.51660    0.00000
   66      1.55232    0.00000
   67      2.03808    0.00000
   68      2.43965    0.00000
   69      2.93932    0.00000
   70      3.04863    0.00000
   71      3.63543    0.00000
   72      4.27927    0.00000
   73      4.99139    0.00000
   74      5.35385    0.00000
   75      5.55453    0.00000
   76      5.89239    0.00000
   77      6.18326    0.00000
   78      7.10059    0.00000
   79      7.29093    0.00000
   80      7.46259    0.00000
   81      7.80560    0.00000
   82      7.86020    0.00000
   83      8.14459    0.00000
   84      8.31871    0.00000
   85      8.53983    0.00000
   86      8.60962    0.00000
   87      8.77448    0.00000
   88      8.85997    0.00000
   89      9.09970    0.00000
   90      9.17093    0.00000
   91      9.41501    0.00000
   92      9.45976    0.00000
   93      9.65145    0.00000
   94      9.83412    0.00000
   95      9.92230    0.00000
   96      9.97948    0.00000
   97     10.07467    0.00000


Forces in eV/Ang:
  0 C    13.53100    3.79867    0.94634
  1 C     0.31008    1.84843   -0.51496
  2 C    -1.45578    0.03056    0.24624
  3 C    -1.43131    1.43119    0.76775
  4 C    -0.13287    1.09238   -0.03058
  5 C    -0.39915    1.85233   -0.81382
  6 C     1.42658    1.66976    0.27074
  7 C     0.32423    2.28884   -0.62717
  8 C     0.07134    3.04525    1.21627
  9 C    -0.58637    0.59641    0.63120
 10 C    -3.98186   -3.29510   -0.55199
 11 C     1.99510   -5.58216   -1.49473
 12 C    -7.89807   -6.60695    0.08601
 13 C     1.54805    4.87238   -0.96352
 14 C     1.75803   -2.20547   -1.93805
 15 C     9.01365    1.19713    1.23142
 16 C     1.96115    2.08020   -0.55756
 17 C    -3.51866   -3.93833    0.40877
 18 C    -1.29148    2.11899    0.57272
 19 C    -0.94781    1.99343    1.98978
 20 C     3.93000   -8.53819    0.30087
 21 C    -9.08703   -5.84193   -0.55714
 22 C    -6.43259    2.59343   -2.06953
 23 C     1.25888    3.40869    1.46248

System changes: positions 

Initializing position-dependent things.

Density initialized from wave functions
           .--------------------------------------.  
          /|                                      |  
         / |                                      |  
        /  |                                      |  
       /   |                                      |  
      /    |                                      |  
     /     |                                      |  
    /      |                                      |  
   /       |                                      |  
  /        |         C                            |  
 *         |   C  C      C  C CC   C              |  
 |         | C     C   C C   C                    |  
 |         .----C----C--C---CC---CC---------------.  
 |        /             C   C                    /   
 |       /           C                          /    
 |      /                                      /     
 |     /                                      /      
 |    /                                      /       
 |   /                                      /        
 |  /                                      /         
 | /                                      /          
 |/                                      /           
 *--------------------------------------*            

Positions:
   0 C      5.371086   10.716329    5.069588
   1 C      4.395925   10.063215    4.864040
   2 C      8.356168   10.648425    4.666122
   3 C      7.140439    9.889110    4.790383
   4 C      7.662057    8.474170    4.988358
   5 C      9.426301    9.964174    4.761069
   6 C      9.195909    8.569001    4.980342
   7 C     11.811287    5.156017    5.329017
   8 C     11.987525    6.468106    5.206594
   9 C      9.488437    6.090333    5.289235
  10 C     11.948524    7.892145    5.483242
  11 C     10.311370    7.955905    5.524083
  12 C      9.944844    3.755959    5.931601
  13 C     10.384691    4.908309    5.409636
  14 C      3.009801    8.207731    4.878236
  15 C      5.722347    6.905600    5.620643
  16 C      8.441190    3.515134    5.591917
  17 C      4.651697    6.376611    5.274789
  18 C      8.070600    6.086773    5.321313
  19 C      7.132360    7.207034    5.213458
  20 C      7.185693    3.926031    4.963746
  21 C      3.364445    9.437688    4.731663
  22 C      4.292738    7.312257    4.421053
  23 C      7.034313    5.088076    5.449847

Unit cell:
           periodic     x           y           z      points  spacing
  1. axis:    yes   16.000000    0.000000    0.000000    80     0.2000
  2. axis:    yes    0.000000   16.000000    0.000000    80     0.2000
  3. axis:    yes    0.000000    0.000000   10.000000    48     0.2083

Effective grid spacing dv^(1/3) = 0.2027

                     log10-error:    total        iterations:
           time      wfs    density  energy       fermi  poisson
iter:   1  10:43:59          +inf  -165.628930    3      5      
iter:   2  10:43:59         -1.72  -165.493292    2      2      
iter:   3  10:44:00         -1.96  -165.463136    2      2      
iter:   4  10:44:00         -2.10  -165.435026    2      2      
iter:   5  10:44:01         -2.36  -165.429635    2      2      
iter:   6  10:44:01         -2.49  -165.427482    2      2      
iter:   7  10:44:02         -2.70  -165.428099    2      2      
iter:   8  10:44:02         -2.90  -165.427682    2      2      
iter:   9  10:44:03         -3.07  -165.427499    2      2      
iter:  10  10:44:04         -3.27  -165.427481    2      1      
iter:  11  10:44:04         -3.35  -165.426944    2      1      
iter:  12  10:44:05         -3.59  -165.427269    2      1      
iter:  13  10:44:05         -3.68  -165.427490    2      1      
iter:  14  10:44:06         -3.88  -165.427643    2      1      
iter:  15  10:44:06         -4.02  -165.427753    2      1      

Converged after 15 iterations.

Dipole moment: (-0.696827, -0.012212, -0.041684) |e|*Ang

Energy contributions relative to reference atoms: (reference = -24663.074771)

Kinetic:       +110.629332
Potential:     -114.775530
External:        +0.000000
XC:            -164.016566
Entropy (-ST):   -0.263738
Local:           +2.866880
--------------------------
Free energy:   -165.559622
Extrapolated:  -165.427753

Fermi level: -4.60490

 Band  Eigenvalues  Occupancy
    0    -23.06179    2.00000
    1    -22.41342    2.00000
    2    -22.04970    2.00000
    3    -21.07145    2.00000
    4    -20.93232    2.00000
    5    -20.37608    2.00000
    6    -19.43279    2.00000
    7    -18.84752    2.00000
    8    -18.51457    2.00000
    9    -18.14525    2.00000
   10    -17.31233    2.00000
   11    -16.95350    2.00000
   12    -16.01493    2.00000
   13    -15.72460    2.00000
   14    -15.16470    2.00000
   15    -14.87273    2.00000
   16    -14.41513    2.00000
   17    -13.51563    2.00000
   18    -12.74903    2.00000
   19    -12.11361    2.00000
   20    -12.02944    2.00000
   21    -11.44173    2.00000
   22    -11.14424    2.00000
   23    -11.03619    2.00000
   24    -10.59335    2.00000
   25    -10.45010    2.00000
   26    -10.06677    2.00000
   27     -9.87875    2.00000
   28     -9.73577    2.00000
   29     -9.61349    2.00000
   30     -9.23077    2.00000
   31     -8.94796    2.00000
   32     -8.72034    2.00000
   33     -8.26673    2.00000
   34     -8.05266    2.00000
   35     -7.87496    2.00000
   36     -7.50329    2.00000
   37     -7.33679    2.00000
   38     -6.78528    2.00000
   39     -6.53739    2.00000
   40     -6.40560    2.00000
   41     -6.21658    2.00000
   42     -6.16105    2.00000
   43     -6.00686    2.00000
   44     -5.46555    1.99963
   45     -5.28338    1.99774
   46     -4.97586    1.95220
   47     -4.73449    1.57028
   48     -4.47236    0.41984
   49     -4.22372    0.04326
   50     -4.07614    0.01006
   51     -4.01369    0.00540
   52     -3.89154    0.00159
   53     -3.13855    0.00000
   54     -2.55792    0.00000
   55     -2.47123    0.00000
   56     -1.90658    0.00000
   57     -1.80678    0.00000
   58     -1.55680    0.00000
   59     -1.22074    0.00000
   60     -1.12842    0.00000
   61     -0.53321    0.00000
   62     -0.28064    0.00000
   63      0.19024    0.00000
   64      0.72294    0.00000
   65      1.57414    0.00000
   66      1.65752    0.00000
   67      2.21492    0.00000
   68      2.62364    0.00000
   69      3.07522    0.00000
   70      3.36865    0.00000
   71      3.55894    0.00000
   72      4.37929    0.00000
   73      5.15803    0.00000
   74      5.57963    0.00000
   75      5.79477    0.00000
   76      6.00842    0.00000
   77      6.26683    0.00000
   78      7.23377    0.00000
   79      7.34228    0.00000
   80      7.52520    0.00000
   81      7.83752    0.00000
   82      7.92359    0.00000
   83      8.21227    0.00000
   84      8.29995    0.00000
   85      8.56179    0.00000
   86      8.66791    0.00000
   87      8.76445    0.00000
   88      8.82880    0.00000
   89      9.16164    0.00000
   90      9.19301    0.00000
   91      9.41364    0.00000
   92      9.56898    0.00000
   93      9.74498    0.00000
   94      9.87372    0.00000
   95      9.91753    0.00000
   96     10.00913    0.00000
   97     10.05155    0.00000


Forces in eV/Ang:
  0 C    11.98194    2.14382    0.48373
  1 C     0.72096    2.47518   -0.21893
  2 C    -1.37860    0.09149    0.22264
  3 C    -1.57102    1.52169    0.78767
  4 C    -0.00644    1.11242    0.04815
  5 C    -0.39029    1.72791   -0.75727
  6 C     1.36145    1.58094    0.32197
  7 C     0.13660    2.07822   -0.54015
  8 C     0.05139    2.58590    1.09633
  9 C    -0.43815    0.72962    0.70711
 10 C    -3.99903   -2.87872   -0.48324
 11 C     1.62160   -5.28923   -1.62963
 12 C    -8.09723   -5.47902   -0.79405
 13 C     1.38463    3.91032   -0.36901
 14 C     1.87643   -2.01217   -2.03849
 15 C     8.25505    0.68622    1.11239
 16 C     2.75802    1.98715   -0.25433
 17 C    -3.03441   -2.99967    0.09493
 18 C    -1.06179    1.93420    0.50017
 19 C    -0.65828    1.93805    1.83707
 20 C     3.58474   -7.29045    0.73792
 21 C    -7.82186   -5.11724   -0.39235
 22 C    -6.49286    2.03349   -1.48908
 23 C     1.17222    2.46674    0.96973

System changes: positions 

Initializing position-dependent things.

Density initialized from wave functions
           .--------------------------------------.  
          /|                                      |  
         / |                                      |  
        /  |                                      |  
       /   |                                      |  
      /    |                                      |  
     /     |                                      |  
    /      |                                      |  
   /       |                                      |  
  /        |         C                            |  
 *         |   C  C      C  C CC   C              |  
 |         | C     C   C C   C                    |  
 |         .----C----C--C---CC---CC---------------.  
 |        /             C  C                     /   
 |       /           C                          /    
 |      /                                      /     
 |     /                                      /      
 |    /                                      /       
 |   /                                      /        
 |  /                                      /         
 | /                                      /          
 |/                                      /           
 *--------------------------------------*            

Positions:
   0 C      5.404774   10.704460    5.065715
   1 C      4.394496   10.078149    4.864997
   2 C      8.350307   10.649142    4.667112
   3 C      7.132107    9.897003    4.794304
   4 C      7.663151    8.479903    4.988956
   5 C      9.424301    9.971342    4.757802
   6 C      9.203079    8.575838    4.982578
   7 C     11.810771    5.164718    5.326929
   8 C     11.987559    6.478184    5.211198
   9 C      9.487304    6.094925    5.292850
  10 C     11.929565    7.880604    5.481287
  11 C     10.316083    7.932895    5.515171
  12 C      9.908635    3.745703    5.918044
  13 C     10.387286    4.911149    5.416469
  14 C      3.018068    8.195414    4.868695
  15 C      5.742108    6.898472    5.619070
  16 C      8.457979    3.525253    5.591506
  17 C      4.652325    6.379340    5.275019
  18 C      8.067513    6.094700    5.323089
  19 C      7.130617    7.216076    5.221369
  20 C      7.200386    3.908506    4.975604
  21 C      3.356804    9.434768    4.733349
  22 C      4.264321    7.313651    4.421958
  23 C      7.039944    5.083724    5.446449

Unit cell:
           periodic     x           y           z      points  spacing
  1. axis:    yes   16.000000    0.000000    0.000000    80     0.2000
  2. axis:    yes    0.000000   16.000000    0.000000    80     0.2000
  3. axis:    yes    0.000000    0.000000   10.000000    48     0.2083

Effective grid spacing dv^(1/3) = 0.2027

                     log10-error:    total        iterations:
           time      wfs    density  energy       fermi  poisson
iter:   1  10:44:08          +inf  -167.520218    3      5      
iter:   2  10:44:08         -1.75  -167.401871    2      2      
iter:   3  10:44:09         -1.98  -167.374353    2      2      
iter:   4  10:44:10         -2.11  -167.346581    2      2      
iter:   5  10:44:10         -2.40  -167.339314    2      2      
iter:   6  10:44:11         -2.54  -167.340658    2      2      
iter:   7  10:44:11         -2.71  -167.341423    2      2      
iter:   8  10:44:12         -2.91  -167.339976    2      2      
iter:   9  10:44:12         -3.14  -167.339657    2      1      
iter:  10  10:44:13         -3.23  -167.339928    2      1      
iter:  11  10:44:13         -3.34  -167.340123    2      1      
iter:  12  10:44:14         -3.52  -167.338625    2      1      
iter:  13  10:44:14         -3.77  -167.340146    1      1      
iter:  14  10:44:15         -3.91  -167.340329    2      1      
iter:  15  10:44:15         -4.01  -167.339995    2      1      

Converged after 15 iterations.

Dipole moment: (-0.758700, 0.032750, -0.031796) |e|*Ang

Energy contributions relative to reference atoms: (reference = -24663.074771)

Kinetic:       +104.581413
Potential:     -110.581343
External:        +0.000000
XC:            -164.100808
Entropy (-ST):   -0.243774
Local:           +2.882630
--------------------------
Free energy:   -167.461882
Extrapolated:  -167.339995

Fermi level: -4.56451

 Band  Eigenvalues  Occupancy
    0    -22.94133    2.00000
    1    -22.29314    2.00000
    2    -21.97498    2.00000
    3    -21.05609    2.00000
    4    -20.86157    2.00000
    5    -20.35585    2.00000
    6    -19.42591    2.00000
    7    -18.87239    2.00000
    8    -18.51881    2.00000
    9    -18.13425    2.00000
   10    -17.33401    2.00000
   11    -17.03302    2.00000
   12    -16.06612    2.00000
   13    -15.72970    2.00000
   14    -15.14959    2.00000
   15    -14.89816    2.00000
   16    -14.40501    2.00000
   17    -13.49222    2.00000
   18    -12.75090    2.00000
   19    -12.09195    2.00000
   20    -12.05331    2.00000
   21    -11.49463    2.00000
   22    -11.16079    2.00000
   23    -11.04865    2.00000
   24    -10.56778    2.00000
   25    -10.44794    2.00000
   26    -10.15272    2.00000
   27     -9.87037    2.00000
   28     -9.70551    2.00000
   29     -9.57961    2.00000
   30     -9.29980    2.00000
   31     -8.91669    2.00000
   32     -8.70799    2.00000
   33     -8.31724    2.00000
   34     -8.08404    2.00000
   35     -7.86678    2.00000
   36     -7.53500    2.00000
   37     -7.33688    2.00000
   38     -6.78823    2.00000
   39     -6.52554    2.00000
   40     -6.38760    2.00000
   41     -6.26316    2.00000
   42     -6.15825    2.00000
   43     -6.03153    2.00000
   44     -5.47503    1.99978
   45     -5.27999    1.99844
   46     -4.94312    1.95564
   47     -4.71240    1.62881
   48     -4.41278    0.35970
   49     -4.18076    0.04219
   50     -4.02232    0.00880
   51     -3.98200    0.00589
   52     -3.77775    0.00077
   53     -3.07703    0.00000
   54     -2.46360    0.00000
   55     -2.41848    0.00000
   56     -1.83312    0.00000
   57     -1.78259    0.00000
   58     -1.47125    0.00000
   59     -1.17449    0.00000
   60     -1.13529    0.00000
   61     -0.40050    0.00000
   62     -0.25174    0.00000
   63      0.35414    0.00000
   64      0.81987    0.00000
   65      1.61258    0.00000
   66      1.75177    0.00000
   67      2.34821    0.00000
   68      2.76052    0.00000
   69      3.16994    0.00000
   70      3.44164    0.00000
   71      3.80419    0.00000
   72      4.45918    0.00000
   73      5.32599    0.00000
   74      5.78379    0.00000
   75      5.89552    0.00000
   76      6.22478    0.00000
   77      6.39362    0.00000
   78      7.29252    0.00000
   79      7.42525    0.00000
   80      7.60003    0.00000
   81      7.84931    0.00000
   82      8.00698    0.00000
   83      8.24298    0.00000
   84      8.30379    0.00000
   85      8.59850    0.00000
   86      8.72087    0.00000
   87      8.74404    0.00000
   88      8.83677    0.00000
   89      9.20482    0.00000
   90      9.22727    0.00000
   91      9.43046    0.00000
   92      9.62322    0.00000
   93      9.80193    0.00000
   94      9.90894    0.00000
   95      9.94480    0.00000
   96     10.03408    0.00000
   97     10.06152    0.00000


Forces in eV/Ang:
  0 C    10.80316    0.93363    0.12119
  1 C     0.68180    2.60418   -0.03054
  2 C    -1.29394    0.14211    0.19503
  3 C    -1.69918    1.58597    0.78918
  4 C     0.11095    1.14308    0.10920
  5 C    -0.38652    1.62326   -0.68187
  6 C     1.27584    1.51032    0.36844
  7 C    -0.02119    1.88281   -0.45819
  8 C     0.04838    2.13658    0.97844
  9 C    -0.32189    0.82264    0.79874
 10 C    -3.94722   -2.49954   -0.41689
 11 C     1.29417   -5.00903   -1.73344
 12 C    -8.05874   -4.58544   -1.33110
 13 C     1.32973    3.33330   -0.02769
 14 C     1.91937   -1.83744   -2.11503
 15 C     7.08268    0.04114    0.88469
 16 C     3.16117    1.68456   -0.03512
 17 C    -2.14721   -2.06719   -0.02649
 18 C    -0.80663    1.71882    0.43831
 19 C    -0.38528    1.86897    1.71718
 20 C     3.29308   -6.36962    0.93697
 21 C    -6.48754   -4.27799   -0.26178
 22 C    -6.51030    1.60028   -0.98295
 23 C     1.10521    1.96491    0.71794

System changes: positions 

Initializing position-dependent things.

Density initialized from wave functions
           .--------------------------------------.  
          /|                                      |  
         / |                                      |  
        /  |                                      |  
       /   |                                      |  
      /    |                                      |  
     /     |                                      |  
    /      |                                      |  
   /       |                                      |  
  /        |         C                            |  
 *         |   C  C      C  C CC                  |  
 |         | C     C   C C   C     C              |  
 |         .----C----C--C---CC---CC---------------.  
 |        /             C  C                     /   
 |       /           C                          /    
 |      /                                      /     
 |     /                                      /      
 |    /                                      /       
 |   /                                      /        
 |  /                                      /         
 | /                                      /          
 |/                                      /           
 *--------------------------------------*            

Positions:
   0 C      5.438722   10.691526    5.061249
   1 C      4.393651   10.091847    4.866558
   2 C      8.344687   10.650115    4.667898
   3 C      7.122812    9.905448    4.798310
   4 C      7.664699    8.485853    4.989845
   5 C      9.422374    9.978461    4.755017
   6 C      9.209331    8.582543    4.984892
   7 C     11.809622    5.172320    5.325251
   8 C     11.987813    6.485818    5.215105
   9 C      9.486794    6.099823    5.297369
  10 C     11.910744    7.871157    5.479713
  11 C     10.319482    7.910742    5.505722
  12 C      9.872151    3.737613    5.903780
  13 C     10.390619    4.914993    5.422878
  14 C      3.026533    8.184186    4.858315
  15 C      5.759026    6.889278    5.617780
  16 C      8.476058    3.531772    5.592492
  17 C      4.655570    6.383803    5.274450
  18 C      8.065813    6.101762    5.324659
  19 C      7.130585    7.224893    5.228928
  20 C      7.213486    3.892192    4.985880
  21 C      3.349990    9.432364    4.734635
  22 C      4.234301    7.314523    4.424320
  23 C      7.045408    5.080799    5.444173

Unit cell:
           periodic     x           y           z      points  spacing
  1. axis:    yes   16.000000    0.000000    0.000000    80     0.2000
  2. axis:    yes    0.000000   16.000000    0.000000    80     0.2000
  3. axis:    yes    0.000000    0.000000   10.000000    48     0.2083

Effective grid spacing dv^(1/3) = 0.2027

                     log10-error:    total        iterations:
           time      wfs    density  energy       fermi  poisson
iter:   1  10:44:17          +inf  -169.229809    3      5      
iter:   2  10:44:18         -1.80  -169.147379    2      2      
iter:   3  10:44:18         -1.99  -169.118636    2      2      
iter:   4  10:44:19         -2.13  -169.091671    2      2      
iter:   5  10:44:19         -2.41  -169.082980    2      2      
iter:   6  10:44:20         -2.58  -169.086258    2      2      
iter:   7  10:44:21         -2.71  -169.086521    2      2      
iter:   8  10:44:21         -2.93  -169.085210    2      2      
iter:   9  10:44:22         -3.17  -169.084960    2      1      
iter:  10  10:44:22         -3.24  -169.084930    2      1      
iter:  11  10:44:23         -3.44  -169.085389    2      1      
iter:  12  10:44:23         -3.52  -169.085293    2      1      
iter:  13  10:44:24         -3.72  -169.085126    2      1      
iter:  14  10:44:24         -3.83  -169.085174    2      1      
iter:  15  10:44:25         -4.01  -169.085240    2      1      

Converged after 15 iterations.

Dipole moment: (-0.815114, 0.085309, -0.024804) |e|*Ang

Energy contributions relative to reference atoms: (reference = -24663.074771)

Kinetic:       +100.296682
Potential:     -107.746331
External:        +0.000000
XC:            -164.411127
Entropy (-ST):   -0.226740
Local:           +2.888907
--------------------------
Free energy:   -169.198610
Extrapolated:  -169.085240

Fermi level: -4.53145

 Band  Eigenvalues  Occupancy
    0    -22.85355    2.00000
    1    -22.19090    2.00000
    2    -21.89918    2.00000
    3    -21.05244    2.00000
    4    -20.80258    2.00000
    5    -20.32183    2.00000
    6    -19.42289    2.00000
    7    -18.90730    2.00000
    8    -18.51896    2.00000
    9    -18.13144    2.00000
   10    -17.36707    2.00000
   11    -17.10539    2.00000
   12    -16.12604    2.00000
   13    -15.74449    2.00000
   14    -15.11844    2.00000
   15    -14.92420    2.00000
   16    -14.40691    2.00000
   17    -13.47427    2.00000
   18    -12.73397    2.00000
   19    -12.09340    2.00000
   20    -12.06857    2.00000
   21    -11.56941    2.00000
   22    -11.20131    2.00000
   23    -11.05562    2.00000
   24    -10.55052    2.00000
   25    -10.44113    2.00000
   26    -10.24310    2.00000
   27     -9.88061    2.00000
   28     -9.68830    2.00000
   29     -9.54866    2.00000
   30     -9.36796    2.00000
   31     -8.87949    2.00000
   32     -8.71395    2.00000
   33     -8.34379    2.00000
   34     -8.12052    2.00000
   35     -7.84725    2.00000
   36     -7.55769    2.00000
   37     -7.33492    2.00000
   38     -6.79735    2.00000
   39     -6.51522    2.00000
   40     -6.37444    2.00000
   41     -6.32410    2.00000
   42     -6.15531    2.00000
   43     -6.04277    2.00000
   44     -5.48750    1.99986
   45     -5.29214    1.99901
   46     -4.90982    1.95553
   47     -4.69829    1.68271
   48     -4.35816    0.30043
   49     -4.16046    0.04779
   50     -3.99138    0.00899
   51     -3.94173    0.00548
   52     -3.61511    0.00021
   53     -2.99979    0.00000
   54     -2.38392    0.00000
   55     -2.37004    0.00000
   56     -1.83857    0.00000
   57     -1.67646    0.00000
   58     -1.37022    0.00000
   59     -1.15638    0.00000
   60     -1.09422    0.00000
   61     -0.30629    0.00000
   62     -0.16511    0.00000
   63      0.52253    0.00000
   64      0.91315    0.00000
   65      1.63632    0.00000
   66      1.84166    0.00000
   67      2.44945    0.00000
   68      2.87457    0.00000
   69      3.19400    0.00000
   70      3.45697    0.00000
   71      4.12860    0.00000
   72      4.52624    0.00000
   73      5.49317    0.00000
   74      5.85817    0.00000
   75      6.05025    0.00000
   76      6.47113    0.00000
   77      6.57253    0.00000
   78      7.30940    0.00000
   79      7.53155    0.00000
   80      7.69347    0.00000
   81      7.84995    0.00000
   82      8.10399    0.00000
   83      8.24331    0.00000
   84      8.34808    0.00000
   85      8.64867    0.00000
   86      8.72612    0.00000
   87      8.77033    0.00000
   88      8.88526    0.00000
   89      9.24052    0.00000
   90      9.26375    0.00000
   91      9.44843    0.00000
   92      9.64459    0.00000
   93      9.81085    0.00000
   94      9.93347    0.00000
   95      9.97057    0.00000
   96     10.02130    0.00000
   97     10.11076    0.00000


Forces in eV/Ang:
  0 C     9.59454   -0.14162   -0.21415
  1 C     0.84620    2.68517    0.15501
  2 C    -1.20915    0.18715    0.16827
  3 C    -1.86067    1.65441    0.79606
  4 C     0.19908    1.13700    0.16934
  5 C    -0.37671    1.50814   -0.60461
  6 C     1.15476    1.45053    0.40064
  7 C    -0.13172    1.66369   -0.38637
  8 C     0.05773    1.77755    0.88031
  9 C    -0.16750    0.88262    0.86684
 10 C    -3.85205   -2.14837   -0.35798
 11 C     0.95482   -4.73184   -1.81084
 12 C    -7.42684   -3.58348   -1.64498
 13 C     1.19469    2.77461    0.22092
 14 C     1.88774   -1.69045   -2.14476
 15 C     6.36347   -0.39501    0.76550
 16 C     2.97585    1.26689    0.04080
 17 C    -1.67257   -1.37375   -0.25650
 18 C    -0.61206    1.53165    0.40305
 19 C    -0.15740    1.75303    1.58835
 20 C     2.97545   -5.32268    1.09444
 21 C    -5.31293   -3.44775   -0.15743
 22 C    -6.48748    1.19902   -0.54508
 23 C     1.04476    1.38675    0.48772

System changes: positions 

Initializing position-dependent things.

Density initialized from wave functions
           .--------------------------------------.  
          /|                                      |  
         / |                                      |  
        /  |                                      |  
       /   |                                      |  
      /    |                                      |  
     /     |                                      |  
    /      |                                      |  
   /       |                                      |  
  /        |         C                            |  
 *         |   C  C      C  C CC                  |  
 |         |  C    C   C C   C     C              |  
 |         .----C----C--C---CC---CC---------------.  
 |        /             C  C                     /   
 |       /           C                          /    
 |      /                                      /     
 |     /                                      /      
 |    /                                      /       
 |   /                                      /        
 |  /                                      /         
 | /                                      /          
 |/                                      /           
 *--------------------------------------*            

Positions:
   0 C      5.474924   10.675544    5.055422
   1 C      4.394720   10.105504    4.869005
   2 C      8.338761   10.651484    4.668566
   3 C      7.110878    9.915576    4.802952
   4 C      7.666726    8.492319    4.991241
   5 C      9.420339    9.985973    4.752452
   6 C      9.214918    8.589998    4.987479
   7 C     11.807982    5.179268    5.323769
   8 C     11.988395    6.492472    5.218938
   9 C      9.487443    6.105403    5.303051
  10 C     11.890278    7.862716    5.478314
  11 C     10.321350    7.887105    5.494756
  12 C      9.838149    3.732925    5.888922
  13 C     10.394090    4.919623    5.429152
  14 C      3.035431    8.172503    4.846410
  15 C      5.779026    6.878524    5.617549
  16 C      8.491046    3.534346    5.593412
  17 C      4.658035    6.388969    5.271730
  18 C      8.064825    6.108773    5.326448
  19 C      7.131995    7.233875    5.236715
  20 C      7.226147    3.878094    4.996060
  21 C      3.344030    9.431771    4.735772
  22 C      4.199521    7.314836    4.428090
  23 C      7.051239    5.076997    5.442291

Unit cell:
           periodic     x           y           z      points  spacing
  1. axis:    yes   16.000000    0.000000    0.000000    80     0.2000
  2. axis:    yes    0.000000   16.000000    0.000000    80     0.2000
  3. axis:    yes    0.000000    0.000000   10.000000    48     0.2083

Effective grid spacing dv^(1/3) = 0.2027

                     log10-error:    total        iterations:
           time      wfs    density  energy       fermi  poisson
iter:   1  10:44:27          +inf  -170.868807    2      5      
iter:   2  10:44:27         -1.81  -170.804250    2      2      
iter:   3  10:44:28         -1.98  -170.772786    2      2      
iter:   4  10:44:28         -2.13  -170.745525    2      2      
iter:   5  10:44:29         -2.41  -170.736029    2      2      
iter:   6  10:44:29         -2.59  -170.739644    2      2      
iter:   7  10:44:30         -2.70  -170.739483    2      2      
iter:   8  10:44:30         -2.95  -170.738490    2      2      
iter:   9  10:44:31         -3.17  -170.738175    2      1      
iter:  10  10:44:31         -3.25  -170.738315    2      1      
iter:  11  10:44:32         -3.45  -170.738827    2      1      
iter:  12  10:44:32         -3.53  -170.738656    2      1      
iter:  13  10:44:33         -3.73  -170.738560    2      1      
iter:  14  10:44:33         -3.84  -170.738753    2      1      
iter:  15  10:44:34         -3.96  -170.738723    2      1      
iter:  16  10:44:35         -4.11  -170.738434    2      1      

Converged after 16 iterations.

Dipole moment: (-0.860593, 0.134080, -0.022341) |e|*Ang

Energy contributions relative to reference atoms: (reference = -24663.074771)

Kinetic:        +97.013794
Potential:     -105.671850
External:        +0.000000
XC:            -164.876206
Entropy (-ST):   -0.210727
Local:           +2.901192
--------------------------
Free energy:   -170.843797
Extrapolated:  -170.738434

Fermi level: -4.50350

 Band  Eigenvalues  Occupancy
    0    -22.76565    2.00000
    1    -22.07531    2.00000
    2    -21.82999    2.00000
    3    -21.04958    2.00000
    4    -20.75153    2.00000
    5    -20.29323    2.00000
    6    -19.42566    2.00000
    7    -18.95405    2.00000
    8    -18.51001    2.00000
    9    -18.13256    2.00000
   10    -17.41190    2.00000
   11    -17.17105    2.00000
   12    -16.18223    2.00000
   13    -15.76939    2.00000
   14    -15.08625    2.00000
   15    -14.94688    2.00000
   16    -14.40078    2.00000
   17    -13.45362    2.00000
   18    -12.71925    2.00000
   19    -12.12328    2.00000
   20    -12.08397    2.00000
   21    -11.65015    2.00000
   22    -11.25874    2.00000
   23    -11.06012    2.00000
   24    -10.54706    2.00000
   25    -10.42844    2.00000
   26    -10.32239    2.00000
   27     -9.89860    2.00000
   28     -9.67325    2.00000
   29     -9.51601    2.00000
   30     -9.42517    2.00000
   31     -8.82776    2.00000
   32     -8.73804    2.00000
   33     -8.35146    2.00000
   34     -8.16762    2.00000
   35     -7.83480    2.00000
   36     -7.58829    2.00000
   37     -7.33713    2.00000
   38     -6.81028    2.00000
   39     -6.49976    2.00000
   40     -6.40763    2.00000
   41     -6.34506    2.00000
   42     -6.15077    2.00000
   43     -6.03527    2.00000
   44     -5.49844    1.99990
   45     -5.30882    1.99936
   46     -4.87797    1.95381
   47     -4.68968    1.73103
   48     -4.30843    0.24896
   49     -4.13972    0.05127
   50     -3.98670    0.01133
   51     -3.88916    0.00429
   52     -3.44419    0.00005
   53     -2.88322    0.00000
   54     -2.36329    0.00000
   55     -2.28104    0.00000
   56     -1.82673    0.00000
   57     -1.58540    0.00000
   58     -1.29923    0.00000
   59     -1.12120    0.00000
   60     -1.02790    0.00000
   61     -0.23975    0.00000
   62     -0.01782    0.00000
   63      0.68241    0.00000
   64      1.01731    0.00000
   65      1.65499    0.00000
   66      1.93976    0.00000
   67      2.54580    0.00000
   68      2.95804    0.00000
   69      3.19632    0.00000
   70      3.55230    0.00000
   71      4.35139    0.00000
   72      4.62382    0.00000
   73      5.66437    0.00000
   74      5.88462    0.00000
   75      6.20378    0.00000
   76      6.70587    0.00000
   77      6.86018    0.00000
   78      7.32014    0.00000
   79      7.62906    0.00000
   80      7.81711    0.00000
   81      7.85365    0.00000
   82      8.18344    0.00000
   83      8.28651    0.00000
   84      8.40500    0.00000
   85      8.70135    0.00000
   86      8.73032    0.00000
   87      8.82097    0.00000
   88      8.96251    0.00000
   89      9.27999    0.00000
   90      9.31382    0.00000
   91      9.46381    0.00000
   92      9.64994    0.00000
   93      9.81088    0.00000
   94      9.94407    0.00000
   95      9.99203    0.00000
   96      9.99454    0.00000
   97     10.16243    0.00000


Forces in eV/Ang:
  0 C     8.45073   -1.07307   -0.51778
  1 C     0.98221    2.57115    0.34568
  2 C    -1.09000    0.20747    0.14398
  3 C    -1.95780    1.66337    0.81819
  4 C     0.25751    1.14196    0.22721
  5 C    -0.38988    1.43139   -0.53617
  6 C     1.02172    1.36707    0.43423
  7 C    -0.18460    1.47000   -0.31623
  8 C     0.07634    1.43394    0.78434
  9 C    -0.05071    0.94162    0.90589
 10 C    -3.67234   -1.85640   -0.31922
 11 C     0.52864   -4.43724   -1.85682
 12 C    -6.26855   -2.71572   -1.68790
 13 C     1.00089    2.30643    0.36815
 14 C     1.75413   -1.36839   -2.14474
 15 C     5.39233   -0.95771    0.56418
 16 C     2.27807    0.82361   -0.00969
 17 C    -1.01111   -0.63084   -0.42457
 18 C    -0.40746    1.32841    0.38866
 19 C     0.11022    1.64984    1.47221
 20 C     2.70500   -4.51656    1.14193
 21 C    -4.23071   -2.70539   -0.08850
 22 C    -6.28405    0.71510   -0.10695
 23 C     0.93358    1.12069    0.35765

System changes: positions 

Initializing position-dependent things.

Density initialized from wave functions
           .--------------------------------------.  
          /|                                      |  
         / |                                      |  
        /  |                                      |  
[...]

Kinetic:       +111.940462
Potential:     -120.295347
External:        +0.000000
XC:            -177.232269
Entropy (-ST):   -0.263569
Local:           +2.989175
--------------------------
Free energy:   -182.861548
Extrapolated:  -182.729763

Fermi level: -4.37441

 Band  Eigenvalues  Occupancy
    0    -22.99785    2.00000
    1    -22.05577    2.00000
    2    -21.64916    2.00000
    3    -20.97317    2.00000
    4    -20.46609    2.00000
    5    -19.80820    2.00000
    6    -19.61127    2.00000
    7    -19.21350    2.00000
    8    -18.64206    2.00000
    9    -18.22863    2.00000
   10    -17.98416    2.00000
   11    -17.26864    2.00000
   12    -16.48958    2.00000
   13    -16.37223    2.00000
   14    -15.23004    2.00000
   15    -15.02655    2.00000
   16    -14.59290    2.00000
   17    -13.90125    2.00000
   18    -13.26137    2.00000
   19    -13.07278    2.00000
   20    -12.72288    2.00000
   21    -12.01332    2.00000
   22    -11.62120    2.00000
   23    -11.34496    2.00000
   24    -10.79664    2.00000
   25    -10.66297    2.00000
   26    -10.24594    2.00000
   27    -10.11368    2.00000
   28     -9.65888    2.00000
   29     -9.51648    2.00000
   30     -9.37962    2.00000
   31     -9.15245    2.00000
   32     -9.12661    2.00000
   33     -8.96446    2.00000
   34     -8.45918    2.00000
   35     -7.80592    2.00000
   36     -7.44851    2.00000
   37     -7.38959    2.00000
   38     -6.95991    2.00000
   39     -6.88349    2.00000
   40     -6.79779    2.00000
   41     -6.30003    2.00000
   42     -6.18172    2.00000
   43     -6.11616    2.00000
   44     -5.55995    1.99999
   45     -5.47957    1.99997
   46     -4.83548    1.98031
   47     -4.46983    1.44393
   48     -4.27558    0.54249
   49     -3.96413    0.03252
   50     -3.59276    0.00081
   51     -3.09560    0.00001
   52     -2.68919    0.00000
   53     -1.93814    0.00000
   54     -1.74135    0.00000
   55     -1.65781    0.00000
   56     -1.56029    0.00000
   57     -1.22572    0.00000
   58     -0.92506    0.00000
   59     -0.53474    0.00000
   60      0.53189    0.00000
   61      1.89314    0.00000
   62      2.13545    0.00000
   63      2.52356    0.00000
   64      3.12080    0.00000
   65      3.47867    0.00000
   66      3.65810    0.00000
   67      4.39957    0.00000
   68      4.65036    0.00000
   69      5.13862    0.00000
   70      5.35045    0.00000
   71      5.50847    0.00000
   72      5.85547    0.00000
   73      6.07701    0.00000
   74      6.61070    0.00000
   75      6.96439    0.00000
   76      7.44376    0.00000
   77      7.59614    0.00000
   78      7.91636    0.00000
   79      8.24700    0.00000
   80      8.43097    0.00000
   81      8.57648    0.00000
   82      8.70301    0.00000
   83      8.85955    0.00000
   84      9.01688    0.00000
   85      9.11316    0.00000
   86      9.21814    0.00000
   87      9.27259    0.00000
   88      9.39036    0.00000
   89      9.40058    0.00000
   90      9.59971    0.00000
   91      9.80179    0.00000
   92      9.95507    0.00000
   93     10.12887    0.00000
   94     10.19587    0.00000
   95     10.27127    0.00000
   96     10.36419    0.00000
   97     10.40332    0.00000


Forces in eV/Ang:
  0 C    -0.10502    0.03343   -0.02454
  1 C    -0.06246    0.02142   -0.01811
  2 C     0.01818    0.07234   -0.01888
  3 C    -0.00308   -0.01285    0.02379
  4 C     0.04927   -0.00416   -0.01555
  5 C     0.01957   -0.02007   -0.01853
  6 C     0.03311   -0.01468    0.02025
  7 C     0.04410    0.00905    0.00865
  8 C    -0.00591    0.03013    0.00293
  9 C    -0.01058   -0.00616    0.01975
 10 C    -0.03922   -0.01621    0.06146
 11 C    -0.04548   -0.01355    0.02503
 12 C     0.05351    0.00619   -0.02324
 13 C    -0.01946   -0.00710    0.02783
 14 C     0.04161   -0.01070    0.01681
 15 C    -0.07855   -0.09658   -0.09618
 16 C    -0.03929    0.00028    0.00176
 17 C    -0.00046    0.02727    0.02225
 18 C    -0.01821    0.00229   -0.05064
 19 C     0.00406   -0.02112    0.00707
 20 C    -0.02796    0.03461    0.02272
 21 C     0.06128    0.04771    0.00835
 22 C     0.03697   -0.03654    0.03291
 23 C     0.01042   -0.02449   -0.01229

System changes: positions 

Initializing position-dependent things.

Density initialized from wave functions
           .--------------------------------------.  
          /|                                      |  
         / |                                      |  
        /  |                                      |  
       /   |                                      |  
      /    |                                      |  
     /     |                                      |  
    /      |                                      |  
   /       |                                      |  
  /        |                C                     |  
 *         |      C   C  C   CC                   |  
 |         | C C       C C    C   C               |  
 |         .--C--C--CC---C--C-C--C----------------.  
 |        /          C  C  C                     /   
 |       /                                      /    
 |      /                                      /     
 |     /                                      /      
 |    /                                      /       
 |   /                                      /        
 |  /                                      /         
 | /                                      /          
 |/                                      /           
 *--------------------------------------*            

Positions:
   0 C      5.801058   10.263868    4.804759
   1 C      4.535253   10.197323    4.680094
   2 C      8.324418   10.798624    4.903034
   3 C      7.130806    9.968119    4.936214
   4 C      7.668070    8.573117    5.109313
   5 C      9.396641   10.104897    4.990213
   6 C      9.162102    8.701680    5.130937
   7 C     11.871505    5.323675    5.460459
   8 C     12.033835    6.617952    5.328868
   9 C      9.554575    6.248431    5.375756
  10 C     11.524349    7.832855    5.196415
  11 C     10.084385    7.620556    5.235791
  12 C      9.798411    3.792815    5.587925
  13 C     10.451206    5.051096    5.483510
  14 C      3.011228    8.255279    4.662137
  15 C      6.073507    6.276770    5.246747
  16 C      8.520620    3.595038    5.574247
  17 C      4.728933    6.434327    5.062902
  18 C      8.153127    6.167388    5.375702
  19 C      7.190351    7.270546    5.228869
  20 C      7.184144    3.761180    5.520968
  21 C      3.422046    9.472837    4.604000
  22 C      3.666560    7.106813    4.854788
  23 C      7.080467    5.173995    5.410722

Unit cell:
           periodic     x           y           z      points  spacing
  1. axis:    yes   16.000000    0.000000    0.000000    80     0.2000
  2. axis:    yes    0.000000   16.000000    0.000000    80     0.2000
  3. axis:    yes    0.000000    0.000000   10.000000    48     0.2083

Effective grid spacing dv^(1/3) = 0.2027

                     log10-error:    total        iterations:
           time      wfs    density  energy       fermi  poisson
iter:   1  10:50:52          +inf  -182.733075    2      4      
iter:   2  10:50:52         -3.13  -182.733068    2      1      
iter:   3  10:50:53         -3.26  -182.732496    2      1      
iter:   4  10:50:53         -3.43  -182.732415    2      1      
iter:   5  10:50:54         -3.61  -182.732230    2      1      
iter:   6  10:50:55         -3.62  -182.731784    2      1      
iter:   7  10:50:55         -3.90  -182.731886    2      1      
iter:   8  10:50:56         -3.94  -182.731707    2      1      
iter:   9  10:50:56         -4.30  -182.731549    2      1      

Converged after 9 iterations.

Dipole moment: (-0.716336, 0.456817, -0.061468) |e|*Ang

Energy contributions relative to reference atoms: (reference = -24663.074771)

Kinetic:       +111.722562
Potential:     -120.128507
External:        +0.000000
XC:            -177.184285
Entropy (-ST):   -0.263053
Local:           +2.990208
--------------------------
Free energy:   -182.863075
Extrapolated:  -182.731549

Fermi level: -4.37364

 Band  Eigenvalues  Occupancy
    0    -23.00238    2.00000
    1    -22.05774    2.00000
    2    -21.64763    2.00000
    3    -20.97088    2.00000
    4    -20.46317    2.00000
    5    -19.81072    2.00000
    6    -19.61279    2.00000
    7    -19.21121    2.00000
    8    -18.64221    2.00000
    9    -18.23114    2.00000
   10    -17.98572    2.00000
   11    -17.26465    2.00000
   12    -16.49213    2.00000
   13    -16.37363    2.00000
   14    -15.22782    2.00000
   15    -15.02735    2.00000
   16    -14.59538    2.00000
   17    -13.90201    2.00000
   18    -13.26261    2.00000
   19    -13.07444    2.00000
   20    -12.71938    2.00000
   21    -12.01876    2.00000
   22    -11.61953    2.00000
   23    -11.34633    2.00000
   24    -10.79488    2.00000
   25    -10.66620    2.00000
   26    -10.24588    2.00000
   27    -10.11347    2.00000
   28     -9.65914    2.00000
   29     -9.51730    2.00000
   30     -9.38116    2.00000
   31     -9.15161    2.00000
   32     -9.12623    2.00000
   33     -8.96814    2.00000
   34     -8.45769    2.00000
   35     -7.80621    2.00000
   36     -7.45234    2.00000
   37     -7.39151    2.00000
   38     -6.95947    2.00000
   39     -6.87867    2.00000
   40     -6.80008    2.00000
   41     -6.30290    2.00000
   42     -6.18074    2.00000
   43     -6.11627    2.00000
   44     -5.56076    1.99999
   45     -5.48089    1.99997
   46     -4.83281    1.97993
   47     -4.47008    1.44798
   48     -4.27383    0.53863
   49     -3.96386    0.03267
   50     -3.59529    0.00083
   51     -3.08647    0.00001
   52     -2.69139    0.00000
   53     -1.94770    0.00000
   54     -1.74333    0.00000
   55     -1.65883    0.00000
   56     -1.56726    0.00000
   57     -1.23114    0.00000
   58     -0.93961    0.00000
   59     -0.53706    0.00000
   60      0.53150    0.00000
   61      1.89087    0.00000
   62      2.13373    0.00000
   63      2.51899    0.00000
   64      3.11776    0.00000
   65      3.47239    0.00000
   66      3.66258    0.00000
   67      4.39702    0.00000
   68      4.64893    0.00000
   69      5.13979    0.00000
   70      5.35003    0.00000
   71      5.51158    0.00000
   72      5.85739    0.00000
   73      6.05973    0.00000
   74      6.60768    0.00000
   75      6.95547    0.00000
   76      7.44064    0.00000
   77      7.59462    0.00000
   78      7.91547    0.00000
   79      8.24491    0.00000
   80      8.43275    0.00000
   81      8.57804    0.00000
   82      8.70335    0.00000
   83      8.85834    0.00000
   84      9.01742    0.00000
   85      9.11785    0.00000
   86      9.22125    0.00000
   87      9.27651    0.00000
   88      9.38930    0.00000
   89      9.39745    0.00000
   90      9.59231    0.00000
   91      9.80101    0.00000
   92      9.95573    0.00000
   93     10.13141    0.00000
   94     10.19502    0.00000
   95     10.26550    0.00000
   96     10.36473    0.00000
   97     10.40132    0.00000


Forces in eV/Ang:
  0 C    -0.07391    0.01986   -0.01932
  1 C    -0.06775    0.00076   -0.00484
  2 C     0.02535    0.05879   -0.01253
  3 C     0.00417    0.01386    0.00872
  4 C     0.04029   -0.02280   -0.01116
  5 C     0.01562   -0.00447   -0.01133
  6 C     0.03154   -0.00350    0.00979
  7 C     0.03666    0.02395    0.00463
  8 C    -0.03626    0.02407    0.00355
  9 C    -0.01504   -0.00805    0.01204
 10 C    -0.04469   -0.00965    0.04552
 11 C    -0.01721   -0.00910    0.02083
 12 C    -0.01427   -0.00367   -0.01805
 13 C    -0.00158   -0.01895    0.03677
 14 C     0.04759   -0.03019    0.02941
 15 C    -0.07637   -0.07843   -0.08552
 16 C    -0.00101    0.01150   -0.00271
 17 C    -0.01062    0.02897    0.00745
 18 C     0.00590   -0.00797   -0.03387
 19 C     0.00498   -0.02518    0.01284
 20 C    -0.00089    0.03358    0.02799
 21 C     0.05036    0.03870   -0.00103
 22 C     0.02606   -0.00280    0.02672
 23 C     0.00288   -0.04357   -0.01477

System changes: positions 

Initializing position-dependent things.

Density initialized from wave functions
           .--------------------------------------.  
          /|                                      |  
         / |                                      |  
        /  |                                      |  
       /   |                                      |  
      /    |                                      |  
     /     |                                      |  
    /      |                                      |  
   /       |                                      |  
  /        |                C                     |  
 *         |      C   C  C   CC                   |  
 |         |  CC       C C    C   C               |  
 |         .--C--C--CC---C--C-C--C----------------.  
 |        /          C  C  C                     /   
 |       /                                      /    
 |      /                                      /     
 |     /                                      /      
 |    /                                      /       
 |   /                                      /        
 |  /                                      /         
 | /                                      /          
 |/                                      /           
 *--------------------------------------*            

Positions:
   0 C      5.797966   10.265449    4.800566
   1 C      4.532387   10.204451    4.671582
   2 C      8.322452   10.799631    4.905797
   3 C      7.127911    9.967805    4.938283
   4 C      7.666474    8.572384    5.109186
   5 C      9.393743   10.103728    4.992378
   6 C      9.160591    8.700760    5.134307
   7 C     11.873246    5.324205    5.462767
   8 C     12.035572    6.618366    5.330457
   9 C      9.554128    6.248259    5.375378
  10 C     11.523567    7.832775    5.202255
  11 C     10.082990    7.620054    5.238372
  12 C      9.801435    3.791466    5.585795
  13 C     10.451354    5.051500    5.482909
  14 C      3.013843    8.255773    4.662749
  15 C      6.073191    6.272893    5.238107
  16 C      8.521908    3.596366    5.575987
  17 C      4.728579    6.433633    5.065028
  18 C      8.152874    6.166825    5.369689
  19 C      7.189280    7.268923    5.222049
  20 C      7.183969    3.760243    5.528767
  21 C      3.423215    9.473883    4.604480
  22 C      3.665755    7.106361    4.861808
  23 C      7.081383    5.172433    5.407106

Unit cell:
           periodic     x           y           z      points  spacing
  1. axis:    yes   16.000000    0.000000    0.000000    80     0.2000
  2. axis:    yes    0.000000   16.000000    0.000000    80     0.2000
  3. axis:    yes    0.000000    0.000000   10.000000    48     0.2083

Effective grid spacing dv^(1/3) = 0.2027

                     log10-error:    total        iterations:
           time      wfs    density  energy       fermi  poisson
iter:   1  10:50:58          +inf  -182.736330    2      5      
iter:   2  10:50:59         -2.95  -182.735993    2      1      
iter:   3  10:50:59         -3.07  -182.735357    2      1      
iter:   4  10:51:00         -3.23  -182.735225    2      1      
iter:   5  10:51:00         -3.41  -182.735188    2      1      
iter:   6  10:51:01         -3.40  -182.733881    2      1      
iter:   7  10:51:01         -3.75  -182.734220    2      1      
iter:   8  10:51:02         -3.66  -182.734454    2      1      
iter:   9  10:51:02         -4.18  -182.733908    2      1      

Converged after 9 iterations.

Dipole moment: (-0.714621, 0.460864, -0.065917) |e|*Ang

Energy contributions relative to reference atoms: (reference = -24663.074771)

Kinetic:       +111.431755
Potential:     -119.910425
External:        +0.000000
XC:            -177.113122
Entropy (-ST):   -0.261848
Local:           +2.988808
--------------------------
Free energy:   -182.864832
Extrapolated:  -182.733908

Fermi level: -4.37441

 Band  Eigenvalues  Occupancy
    0    -23.00466    2.00000
    1    -22.05589    2.00000
    2    -21.64545    2.00000
    3    -20.96971    2.00000
    4    -20.46070    2.00000
    5    -19.81526    2.00000
    6    -19.61500    2.00000
    7    -19.21035    2.00000
    8    -18.64099    2.00000
    9    -18.23339    2.00000
   10    -17.98957    2.00000
   11    -17.26183    2.00000
   12    -16.49545    2.00000
   13    -16.37637    2.00000
   14    -15.22701    2.00000
   15    -15.02784    2.00000
   16    -14.59869    2.00000
   17    -13.90244    2.00000
   18    -13.26333    2.00000
   19    -13.07646    2.00000
   20    -12.71336    2.00000
   21    -12.02411    2.00000
   22    -11.61542    2.00000
   23    -11.34467    2.00000
   24    -10.79436    2.00000
   25    -10.66888    2.00000
   26    -10.24675    2.00000
   27    -10.11252    2.00000
   28     -9.65779    2.00000
   29     -9.51906    2.00000
   30     -9.38316    2.00000
   31     -9.15063    2.00000
   32     -9.12563    2.00000
   33     -8.97212    2.00000
   34     -8.45700    2.00000
   35     -7.80738    2.00000
   36     -7.45904    2.00000
   37     -7.39408    2.00000
   38     -6.96069    2.00000
   39     -6.87311    2.00000
   40     -6.80423    2.00000
   41     -6.30575    2.00000
   42     -6.18058    2.00000
   43     -6.11646    2.00000
   44     -5.55838    1.99999
   45     -5.48290    1.99997
   46     -4.83295    1.97981
   47     -4.47253    1.45470
   48     -4.27288    0.53188
   49     -3.96505    0.03281
   50     -3.59839    0.00085
   51     -3.06718    0.00000
   52     -2.69308    0.00000
   53     -1.95733    0.00000
   54     -1.74375    0.00000
   55     -1.66208    0.00000
   56     -1.57299    0.00000
   57     -1.23721    0.00000
   58     -0.95930    0.00000
   59     -0.53959    0.00000
   60      0.52981    0.00000
   61      1.88801    0.00000
   62      2.13137    0.00000
   63      2.51256    0.00000
   64      3.11313    0.00000
   65      3.46410    0.00000
   66      3.65812    0.00000
   67      4.39348    0.00000
   68      4.64664    0.00000
   69      5.14344    0.00000
   70      5.34165    0.00000
   71      5.51245    0.00000
   72      5.84847    0.00000
   73      6.03468    0.00000
   74      6.59975    0.00000
   75      6.94149    0.00000
   76      7.43624    0.00000
   77      7.59529    0.00000
   78      7.91527    0.00000
   79      8.24195    0.00000
   80      8.43416    0.00000
   81      8.57851    0.00000
   82      8.70233    0.00000
   83      8.85731    0.00000
   84      9.01592    0.00000
   85      9.12552    0.00000
   86      9.22295    0.00000
   87      9.28285    0.00000
   88      9.38684    0.00000
   89      9.39220    0.00000
   90      9.58097    0.00000
   91      9.79998    0.00000
   92      9.95296    0.00000
   93     10.13707    0.00000
   94     10.19347    0.00000
   95     10.25763    0.00000
   96     10.36711    0.00000
   97     10.39796    0.00000


Forces in eV/Ang:
  0 C     0.00861    0.00710   -0.00775
  1 C    -0.05423   -0.00404   -0.01111
  2 C     0.00695    0.02768   -0.00386
  3 C     0.00684    0.04313   -0.01773
  4 C     0.01263   -0.02483   -0.00954
  5 C    -0.00069    0.01638   -0.00504
  6 C     0.02013    0.01686   -0.00856
  7 C    -0.00257    0.01752   -0.00057
  8 C    -0.06608    0.03570    0.00514
  9 C     0.00432   -0.01754    0.00343
 10 C    -0.04902   -0.01627    0.03677
 11 C     0.01927   -0.00303    0.01942
 12 C    -0.07313   -0.00021    0.00391
 13 C     0.02832   -0.02892    0.03624
 14 C     0.04195   -0.01779    0.04207
 15 C    -0.02507   -0.02658   -0.05194
 16 C     0.00325    0.01190   -0.00499
 17 C    -0.02565    0.00996   -0.00793
 18 C     0.00276   -0.02041   -0.02420
 19 C     0.00576   -0.03298    0.00645
 20 C     0.04564    0.01761    0.03340
 21 C     0.00030    0.00526   -0.01279
 22 C     0.01741    0.02723    0.01520
 23 C    -0.00189   -0.04188   -0.02511

