
  ___ ___ ___ _ _ _  
 |   |   |_  | | | | 
 | | | | | . | | | | 
 |__ |  _|___|_____|  1.3.0b1
 |___|_|             

User:   esb@s65n11.grendel.cscaa.dk
Date:   Thu Nov  9 12:18:25 2017
Arch:   x86_64
Pid:    78686
Python: 2.7.13
gpaw:   /home/esb/DFT/gpaw_git/gpaw
_gpaw:  /home/esb/DFT/gpaw_git/build/bin.linux-x86_64-2.7/gpaw-python
ase:    /home/esb/DFT/ase_git/ase (version 3.15.0b1)
numpy:  /comm/swstack/core/python/2.7.13/lib/python2.7/site-packages/numpy (version 1.13.3)
scipy:  /comm/swstack/core/python/2.7.13/lib/python2.7/site-packages/scipy (version 0.19.1)
units:  Angstrom and eV
cores:  16
Extra parameters: {'blacs': True}

Input parameters:
  basis: dzp
  gpts: [80 80 48]
  kpts: [1 1 1]
  maxiter: 99
  mixer: {backend: pulay,
          beta: 0.05,
          method: separate,
          nmaxold: 5,
          weight: 75}
  mode: lcao
  nbands: -50
  occupations: {name: fermi-dirac,
                width: 0.1}
  poissonsolver: {eps: 1e-07,
                  name: fd,
                  nn: 3,
                  relax: GS}
  xc: PBE

System changes: positions, numbers, cell, pbc, initial_charges, initial_magmoms 

Initialize ...

C-setup:
  name: Carbon
  id: 4aa54d4b901d75f77cc0ea3eec22967b
  Z: 6
  valence: 4
  core: 2
  charge: 0.0
  file: /home/esb/DFT/gpaw-setups-0.8.7929/C.PBE.gz
  cutoffs: 0.64(comp), 1.14(filt), 1.14(core), lmax=2
  valence states:
                energy  radius
    2s(2.00)   -13.751   0.635
    2p(2.00)    -5.284   0.635
    *s          13.461   0.635
    *p          21.927   0.635
    *d           0.000   0.635

  LCAO basis set for C:
    Name: dzp
    File: /home/esb/DFT/gpaw-setups-0.8.7929/C.dzp.basis.gz
    Number of radial functions: 5
    Number of spherical harmonics: 13
      l=0, rc=5.5469 Bohr: 2s-sz confined orbital
      l=1, rc=6.6719 Bohr: 2p-sz confined orbital
      l=0, rc=3.0312 Bohr: 2s-dz split-valence wave
      l=1, rc=3.7500 Bohr: 2p-dz split-valence wave
      l=2, rc=6.6719 Bohr: d-type Gaussian polarization

Reference energy: -24663.074771

Spin-paired calculation

Occupation numbers:
  Fermi-Dirac: width=0.1000 eV

Convergence criteria:
  Maximum total energy change: 0.0005 eV / electron
  Maximum integral of absolute density change: 0.0001 electrons
  Maximum integral of absolute eigenstate change: 4e-08 eV^2
  Maximum number of iterations: 99

Symmetries present (total): 1

  ( 1  0  0)
  ( 0  1  0)
  ( 0  0  1)

1 k-point (Gamma)
1 k-point in the irreducible part of the Brillouin zone
       k-points in crystal coordinates                weights
   0:     0.00000000    0.00000000    0.00000000          1/1

Wave functions: LCAO
  Diagonalizer: Serial LAPACK
  Atomic Correction: dense with blas
  Datatype: float
  Eigensolver: None 

LCAO using direct dense diagonalizer 

Densities:
  Coarse grid: 80*80*48 grid
  Fine grid: 160*160*96 grid
  Total Charge: 0.000000 

Density mixing:
  Method: separate
  Backend: pulay
  Linear mixing parameter: 0.05
  Mixing with 5 old densities
  Damping of long wave oscillations: 75 

Hamiltonian:
  XC and Coulomb potentials evaluated on a 160*160*96 grid
  Using the PBE Exchange-Correlation functional
  Interpolation: tri-quintic (5. degree polynomial)
  Poisson solver: Gauss-Seidel solver with 6 multi-grid levels
    Coarsest grid: 5 x 5 x 3 points
    Stencil: 6*3+1=19 point O(h^6) finite-difference Laplacian
    Max iterations: 1000
    Tolerance: 1.000000e-07 

Memory estimate:
  Process memory now: 77.56 MiB
  Calculator: 15.59 MiB
    Density: 6.13 MiB
      Arrays: 3.81 MiB
      Localized functions: 0.86 MiB
      Mixer: 1.46 MiB
    Hamiltonian: 5.40 MiB
      Arrays: 2.49 MiB
      XC: 0.00 MiB
      Poisson: 2.85 MiB
      vbar: 0.07 MiB
    Wavefunctions: 4.05 MiB
      C [qnM]: 0.23 MiB
      S, T [2 x qmm]: 1.49 MiB
      P [aqMi]: 0.01 MiB
      TCI: 0.00 MiB
      BasisFunctions: 2.33 MiB
      Eigensolver: 0.00 MiB

Total number of cores used: 16
Domain decomposition: 2 x 4 x 2

Number of atoms: 24
Number of atomic orbitals: 312
Number of bands in calculation: 98
Bands to converge: occupied states only
Number of valence electrons: 96

... initialized

Initializing position-dependent things.

Density initialized from atomic densities
           .--------------------------------------.  
          /|                                      |  
         / |                                      |  
        /  |                                      |  
       /   |                                      |  
      /    |                                      |  
     /     |                                      |  
    /      |                                      |  
   /       |      C   C  C                        |  
  /        |    C          C                      |  
 *         |  C             C                     |  
 |         | C       C   C     C                  |  
 |         .---C---C--C--C-----C------------------.  
 |        /                 C                    /   
 |       /     C C  C     C                     /    
 |      /              C                       /     
 |     /                                      /      
 |    /                                      /       
 |   /                                      /        
 |  /                                      /         
 | /                                      /          
 |/                                      /           
 *--------------------------------------*            

Positions:
   0 C     10.806916    5.812102    5.412871
   1 C      9.332627    3.767634    4.716609
   2 C      9.631439    5.061326    5.156957
   3 C      8.196483    3.245403    4.540888
   4 C      8.394267    5.846468    5.416312
   5 C      6.943952    3.837904    4.726915
   6 C      7.068234    5.245421    5.193502
   7 C      3.352049    6.358422    5.445526
   8 C      4.568295    4.148335    4.788929
   9 C      4.446234    5.501828    5.204266
  10 C      5.591759    3.443262    4.585524
  11 C      5.836822    6.007366    5.420372
  12 C     10.322141    7.336615    5.186943
  13 C      9.096448    8.054928    5.389828
  14 C      7.999993    7.069554    5.449721
  15 C      7.906761   10.312232    5.521641
  16 C      6.823303   11.071137    5.548752
  17 C      8.810040    9.413688    5.472710
  18 C      5.543509   11.239199    5.556955
  19 C      4.258286   10.986731    5.618885
  20 C      3.452208    9.953690    5.628823
  21 C      3.179422    7.426919    5.640326
  22 C      6.586482    7.110421    5.593954
  23 C      3.016587    8.738292    5.662897

Unit cell:
           periodic     x           y           z      points  spacing
  1. axis:    yes   16.000000    0.000000    0.000000    80     0.2000
  2. axis:    yes    0.000000   16.000000    0.000000    80     0.2000
  3. axis:    yes    0.000000    0.000000   10.000000    48     0.2083

Effective grid spacing dv^(1/3) = 0.2027

                     log10-error:    total        iterations:
           time      wfs    density  energy       fermi  poisson
iter:   1  12:18:27          +inf  -183.030080    3      6      
iter:   2  12:18:27         -0.89  -181.811109    3      3      
iter:   3  12:18:28         -0.94  -179.993329    4      3      
iter:   4  12:18:29         -1.02  -178.674085    34     3      
iter:   5  12:18:29         -1.15  -178.099816    34     4      
iter:   6  12:18:30         -1.47  -178.013538    4      3      
iter:   7  12:18:30         -1.58  -177.955160    3      3      
iter:   8  12:18:31         -1.75  -177.925204    3      2      
iter:   9  12:18:32         -1.87  -177.880560    4      3      
iter:  10  12:18:32         -2.19  -177.874294    2      2      
iter:  11  12:18:33         -2.28  -177.864286    3      2      
iter:  12  12:18:33         -2.44  -177.861182    2      2      
iter:  13  12:18:34         -2.51  -177.861415    2      2      
iter:  14  12:18:34         -2.62  -177.862901    3      2      
iter:  15  12:18:35         -2.71  -177.862001    2      2      
iter:  16  12:18:35         -2.79  -177.862252    2      2      
iter:  17  12:18:36         -3.10  -177.864645    2      1      
iter:  18  12:18:37         -3.26  -177.859711    2      1      
iter:  19  12:18:37         -3.67  -177.857006    2      1      
iter:  20  12:18:38         -3.77  -177.857313    2      1      
iter:  21  12:18:38         -3.87  -177.857627    2      1      
iter:  22  12:18:39         -3.92  -177.857466    2      1      
iter:  23  12:18:39         -4.00  -177.857517    2      1      

Converged after 23 iterations.

Dipole moment: (-0.363546, 0.142986, -0.003752) |e|*Ang

Energy contributions relative to reference atoms: (reference = -24663.074771)

Kinetic:       +137.644312
Potential:     -138.218783
External:        +0.000000
XC:            -180.263864
Entropy (-ST):   -0.209920
Local:           +3.085778
--------------------------
Free energy:   -177.962477
Extrapolated:  -177.857517

Fermi level: -4.32977

 Band  Eigenvalues  Occupancy
    0    -23.39185    2.00000
    1    -21.51439    2.00000
    2    -21.12113    2.00000
    3    -20.82914    2.00000
    4    -20.40711    2.00000
    5    -20.26251    2.00000
    6    -19.48594    2.00000
    7    -19.29362    2.00000
    8    -18.47953    2.00000
    9    -18.27854    2.00000
   10    -17.58985    2.00000
   11    -17.19473    2.00000
   12    -16.75138    2.00000
   13    -16.07863    2.00000
   14    -15.31384    2.00000
   15    -15.05498    2.00000
   16    -14.36756    2.00000
   17    -13.83071    2.00000
   18    -13.50915    2.00000
   19    -13.34480    2.00000
   20    -12.86694    2.00000
   21    -12.53325    2.00000
   22    -12.09444    2.00000
   23    -11.68108    2.00000
   24    -11.45223    2.00000
   25    -10.64176    2.00000
   26    -10.12992    2.00000
   27     -9.93260    2.00000
   28     -9.60543    2.00000
   29     -9.35456    2.00000
   30     -9.28269    2.00000
   31     -9.10670    2.00000
   32     -8.70427    2.00000
   33     -8.55503    2.00000
   34     -8.52187    2.00000
   35     -8.16925    2.00000
   36     -7.51970    2.00000
   37     -7.28233    2.00000
   38     -7.04960    2.00000
   39     -6.60512    2.00000
   40     -6.36850    2.00000
   41     -6.05476    2.00000
   42     -6.00720    2.00000
   43     -5.79146    2.00000
   44     -5.40589    1.99996
   45     -5.21120    1.99970
   46     -4.60786    1.88328
   47     -4.55342    1.80696
   48     -4.13835    0.25702
   49     -3.96806    0.05232
   50     -3.54123    0.00075
   51     -3.10422    0.00001
   52     -2.72788    0.00000
   53     -2.55916    0.00000
   54     -1.93400    0.00000
   55     -1.59306    0.00000
   56     -0.94545    0.00000
   57     -0.88139    0.00000
   58     -0.12382    0.00000
   59      0.40905    0.00000
   60      0.62612    0.00000
   61      1.19084    0.00000
   62      1.21783    0.00000
   63      1.55549    0.00000
   64      3.14053    0.00000
   65      3.58311    0.00000
   66      3.97114    0.00000
   67      4.50017    0.00000
   68      4.75049    0.00000
   69      5.06427    0.00000
   70      5.49579    0.00000
   71      5.87201    0.00000
   72      6.31121    0.00000
   73      6.63283    0.00000
   74      6.79627    0.00000
   75      7.18402    0.00000
   76      7.43885    0.00000
   77      7.60790    0.00000
   78      7.91550    0.00000
   79      8.04000    0.00000
   80      8.28230    0.00000
   81      8.62528    0.00000
   82      8.88863    0.00000
   83      8.92967    0.00000
   84      8.96539    0.00000
   85      9.34862    0.00000
   86      9.47716    0.00000
   87      9.51507    0.00000
   88      9.52476    0.00000
   89      9.61677    0.00000
   90      9.64436    0.00000
   91      9.83343    0.00000
   92      9.93494    0.00000
   93      9.98149    0.00000
   94     10.16053    0.00000
   95     10.23853    0.00000
   96     10.33365    0.00000
   97     10.41913    0.00000


Forces in eV/Ang:
  0 C    -2.13972    7.94075   -1.20659
  1 C    -0.12333   -0.46568    0.18271
  2 C    -0.11882    1.66290    0.13400
  3 C     0.28655   -0.13439    0.11507
  4 C    -1.32107   -9.39980   -1.69567
  5 C    -0.69477   -0.10010   -0.06293
  6 C     0.02391   -4.70708   -0.11858
  7 C     5.21734  -21.29647   -3.74674
  8 C    -0.25539    0.31584   -0.01449
  9 C     0.11188   -0.58439    0.39082
 10 C     0.09782    0.10036    0.04712
 11 C    -0.38846   -1.02839   -0.74813
 12 C     2.03073   -6.25747    1.40327
 13 C     1.27029    0.57519    0.22376
 14 C     0.51081    8.25449    1.39430
 15 C     0.01537   -0.21240    0.02969
 16 C    -0.01966    0.14120    0.02686
 17 C    -0.00509    0.32969   -0.29649
 18 C    -0.03897   -0.15473    0.06861
 19 C     0.07485    0.42450   -0.05904
 20 C    -0.04113   -0.80529    0.12135
 21 C    -4.57595   20.75650    3.42394
 22 C     0.01725    3.18412    0.22028
 23 C     0.02804    1.55287    0.21934

System changes: positions 

Initializing position-dependent things.

Density initialized from wave functions
           .--------------------------------------.  
          /|                                      |  
         / |                                      |  
        /  |                                      |  
       /   |                                      |  
      /    |                                      |  
     /     |                                      |  
    /      |                                      |  
   /       |      C   C  C                        |  
  /        |    C          C                      |  
 *         |  C             C                     |  
 |         | C        C  C     C                  |  
 |         .-C-C---C--C--C-----C------------------.  
 |        /                 C                    /   
 |       /     C C  C     C                     /    
 |      /              C                       /     
 |     /                                      /      
 |    /                                      /       
 |   /                                      /        
 |  /                                      /         
 | /                                      /          
 |/                                      /           
 *--------------------------------------*            

Positions:
   0 C     10.803068    5.826381    5.410701
   1 C      9.332405    3.766796    4.716937
   2 C      9.631225    5.064316    5.157198
   3 C      8.196998    3.245161    4.541095
   4 C      8.391891    5.829565    5.413263
   5 C      6.942703    3.837724    4.726802
   6 C      7.068277    5.236956    5.193289
   7 C      3.361431    6.320126    5.438788
   8 C      4.567835    4.148903    4.788903
   9 C      4.446435    5.500777    5.204968
  10 C      5.591935    3.443442    4.585609
  11 C      5.836124    6.005517    5.419027
  12 C     10.325793    7.325362    5.189466
  13 C      9.098732    8.055963    5.390231
  14 C      8.000912    7.084398    5.452229
  15 C      7.906788   10.311850    5.521694
  16 C      6.823268   11.071391    5.548800
  17 C      8.810031    9.414281    5.472177
  18 C      5.543439   11.238921    5.557079
  19 C      4.258421   10.987495    5.618779
  20 C      3.452134    9.952242    5.629041
  21 C      3.171193    7.464244    5.646483
  22 C      6.586513    7.116147    5.594351
  23 C      3.016637    8.741084    5.663291

Unit cell:
           periodic     x           y           z      points  spacing
  1. axis:    yes   16.000000    0.000000    0.000000    80     0.2000
  2. axis:    yes    0.000000   16.000000    0.000000    80     0.2000
  3. axis:    yes    0.000000    0.000000   10.000000    48     0.2083

Effective grid spacing dv^(1/3) = 0.2027

                     log10-error:    total        iterations:
           time      wfs    density  energy       fermi  poisson
iter:   1  12:18:41          +inf  -179.679809    3      5      
iter:   2  12:18:42         -2.01  -179.644828    3      2      
iter:   3  12:18:42         -2.15  -179.622012    3      2      
iter:   4  12:18:43         -2.29  -179.612340    2      2      
iter:   5  12:18:43         -2.40  -179.603795    2      2      
iter:   6  12:18:44         -2.61  -179.600856    2      2      
iter:   7  12:18:44         -2.77  -179.599614    2      2      
iter:   8  12:18:45         -2.97  -179.599818    2      1      
iter:   9  12:18:46         -3.14  -179.598594    2      2      
iter:  10  12:18:46         -3.32  -179.598319    2      1      
iter:  11  12:18:47         -3.44  -179.598096    2      1      
iter:  12  12:18:47         -3.56  -179.596414    2      1      
iter:  13  12:18:48         -3.69  -179.596876    2      1      
iter:  14  12:18:48         -3.80  -179.598156    2      1      
iter:  15  12:18:49         -3.98  -179.598223    2      1      
iter:  16  12:18:49         -4.10  -179.598464    2      1      

Converged after 16 iterations.

Dipole moment: (-0.313601, 0.174249, -0.000346) |e|*Ang

Energy contributions relative to reference atoms: (reference = -24663.074771)

Kinetic:       +128.115713
Potential:     -131.611104
External:        +0.000000
XC:            -179.034437
Entropy (-ST):   -0.178338
Local:           +3.020534
--------------------------
Free energy:   -179.687633
Extrapolated:  -179.598464

Fermi level: -4.35240

 Band  Eigenvalues  Occupancy
    0    -23.27884    2.00000
    1    -21.48878    2.00000
    2    -21.10767    2.00000
    3    -20.79408    2.00000
    4    -20.35369    2.00000
    5    -20.27430    2.00000
    6    -19.45863    2.00000
    7    -19.33711    2.00000
    8    -18.37120    2.00000
    9    -18.33676    2.00000
   10    -17.56709    2.00000
   11    -17.18992    2.00000
   12    -16.73710    2.00000
   13    -16.13613    2.00000
   14    -15.28294    2.00000
   15    -15.14073    2.00000
   16    -14.42656    2.00000
   17    -13.82700    2.00000
   18    -13.50697    2.00000
   19    -13.37179    2.00000
   20    -12.86836    2.00000
   21    -12.51820    2.00000
   22    -12.06274    2.00000
   23    -11.72138    2.00000
   24    -11.43207    2.00000
   25    -10.59533    2.00000
   26    -10.23321    2.00000
   27     -9.89025    2.00000
   28     -9.52931    2.00000
   29     -9.36521    2.00000
   30     -9.29883    2.00000
   31     -9.12250    2.00000
   32     -8.68774    2.00000
   33     -8.52864    2.00000
   34     -8.48887    2.00000
   35     -8.11702    2.00000
   36     -7.42599    2.00000
   37     -7.27952    2.00000
   38     -7.04642    2.00000
   39     -6.59960    2.00000
   40     -6.32019    2.00000
   41     -5.99178    2.00000
   42     -5.93937    2.00000
   43     -5.78688    2.00000
   44     -5.40619    1.99995
   45     -5.29077    1.99983
   46     -4.66646    1.91707
   47     -4.59210    1.83320
   48     -4.14026    0.21407
   49     -3.95140    0.03562
   50     -3.45242    0.00025
   51     -3.07947    0.00001
   52     -2.78920    0.00000
   53     -2.53614    0.00000
   54     -2.03624    0.00000
   55     -1.54797    0.00000
   56     -0.98659    0.00000
   57     -0.94588    0.00000
   58     -0.12297    0.00000
   59      0.39497    0.00000
   60      0.62104    0.00000
   61      1.11238    0.00000
   62      1.15028    0.00000
   63      1.52148    0.00000
   64      3.30567    0.00000
   65      3.58092    0.00000
   66      3.89359    0.00000
   67      4.48039    0.00000
   68      4.71320    0.00000
   69      5.06229    0.00000
   70      5.54601    0.00000
   71      5.87042    0.00000
   72      6.37245    0.00000
   73      6.62735    0.00000
   74      6.87303    0.00000
   75      7.14923    0.00000
   76      7.42241    0.00000
   77      7.65430    0.00000
   78      7.95829    0.00000
   79      8.14629    0.00000
   80      8.35424    0.00000
   81      8.62131    0.00000
   82      8.92315    0.00000
   83      8.96596    0.00000
   84      9.02224    0.00000
   85      9.35695    0.00000
   86      9.47680    0.00000
   87      9.54811    0.00000
   88      9.59820    0.00000
   89      9.63682    0.00000
   90      9.66180    0.00000
   91      9.86857    0.00000
   92      9.93537    0.00000
   93     10.00931    0.00000
   94     10.15416    0.00000
   95     10.24039    0.00000
   96     10.30023    0.00000
   97     10.42781    0.00000


Forces in eV/Ang:
  0 C    -2.22584    8.04736   -1.23102
  1 C     0.03729   -0.31180    0.23344
  2 C    -0.10889    1.34259    0.06495
  3 C     0.16174   -0.14305    0.10572
  4 C    -1.84937   -7.25340   -1.53464
  5 C    -0.53872   -0.24035   -0.07841
  6 C     0.06916   -4.38971   -0.09226
  7 C     2.26809   -9.36457   -1.56818
  8 C     0.02001   -0.13438   -0.14502
  9 C     0.62012   -0.80495    0.31345
 10 C    -0.19499    0.14910    0.05147
 11 C     0.10423   -0.55102   -0.65529
 12 C     1.91697   -6.31979    1.41043
 13 C     1.33999    0.47790    0.23802
 14 C     0.86101    6.20245    1.31050
 15 C     0.11462   -0.25430    0.01354
 16 C    -0.21154    0.16791    0.03145
 17 C     0.02037    0.40200   -0.29282
 18 C     0.29458   -0.10513    0.05930
 19 C    -0.37838   -0.02481   -0.04293
 20 C     0.41209    0.41181    0.09897
 21 C    -2.24495    7.73498    1.35347
 22 C    -0.12122    2.69843    0.15138
 23 C    -0.36814    2.29405    0.22990

System changes: positions 

Initializing position-dependent things.

Density initialized from wave functions
           .--------------------------------------.  
          /|                                      |  
         / |                                      |  
        /  |                                      |  
       /   |                                      |  
      /    |                                      |  
     /     |                                      |  
    /      |                                      |  
   /       |      C   C  C                        |  
  /        |    C          C                      |  
 *         |  C             C                     |  
 |         | C        C  C     C                  |  
 |         .-C-C---C-----C-----C------------------.  
 |        /          C      C                    /   
 |       /     C C  C     C                     /    
 |      /              C                       /     
 |     /                                      /      
 |    /                                      /       
 |   /                                      /        
 |  /                                      /         
 | /                                      /          
 |/                                      /           
 *--------------------------------------*            

Positions:
   0 C     10.792382    5.864481    5.404852
   1 C      9.333000    3.765733    4.718167
   2 C      9.630739    5.069789    5.157323
   3 C      8.197432    3.244466    4.541567
   4 C      8.381819    5.801085    5.406471
   5 C      6.940579    3.836228    4.726393
   6 C      7.068720    5.217155    5.192924
   7 C      3.364383    6.307297    5.437112
   8 C      4.568649    4.147095    4.787880
   9 C      4.450678    5.496417    5.206239
  10 C      5.590254    3.444270    4.585862
  11 C      5.837901    6.004175    5.416190
  12 C     10.334505    7.295498    5.196114
  13 C      9.105212    8.057954    5.391387
  14 C      8.005874    7.108185    5.458169
  15 C      7.907587   10.310545    5.521715
  16 C      6.821772   11.072250    5.548960
  17 C      8.810193    9.416360    5.470811
  18 C      5.545695   11.238556    5.557333
  19 C      4.255458   10.986204    5.618619
  20 C      3.455255    9.957358    5.629448
  21 C      3.166734    7.466567    5.647433
  22 C      6.585581    7.127560    5.594882
  23 C      3.013872    8.753803    5.664399

Unit cell:
           periodic     x           y           z      points  spacing
  1. axis:    yes   16.000000    0.000000    0.000000    80     0.2000
  2. axis:    yes    0.000000   16.000000    0.000000    80     0.2000
  3. axis:    yes    0.000000    0.000000   10.000000    48     0.2083

Effective grid spacing dv^(1/3) = 0.2027

                     log10-error:    total        iterations:
           time      wfs    density  energy       fermi  poisson
iter:   1  12:18:51          +inf  -180.984961    4      5      
iter:   2  12:18:52         -1.89  -180.881057    3      2      
iter:   3  12:18:52         -2.07  -180.817576    3      2      
iter:   4  12:18:53         -2.25  -180.793696    3      2      
iter:   5  12:18:53         -2.47  -180.790787    2      2      
iter:   6  12:18:54         -2.58  -180.788595    2      2      
iter:   7  12:18:54         -2.71  -180.787446    2      2      
iter:   8  12:18:55         -2.97  -180.787552    2      2      
iter:   9  12:18:56         -3.11  -180.787332    2      2      
iter:  10  12:18:56         -3.35  -180.787113    2      1      
iter:  11  12:18:57         -3.45  -180.787039    2      1      
iter:  12  12:18:57         -3.68  -180.787303    1      1      
iter:  13  12:18:58         -3.81  -180.787205    2      1      
iter:  14  12:18:58         -3.95  -180.787205    2      1      
iter:  15  12:18:59         -4.10  -180.787272    2      1      

Converged after 15 iterations.

Dipole moment: (-0.232031, 0.162701, -0.004689) |e|*Ang

Energy contributions relative to reference atoms: (reference = -24663.074771)

Kinetic:       +123.337928
Potential:     -128.434411
External:        +0.000000
XC:            -178.658399
Entropy (-ST):   -0.150553
Local:           +3.042888
--------------------------
Free energy:   -180.862549
Extrapolated:  -180.787272

Fermi level: -4.34876

 Band  Eigenvalues  Occupancy
    0    -23.09977    2.00000
    1    -21.46529    2.00000
    2    -21.08521    2.00000
    3    -20.74808    2.00000
    4    -20.32957    2.00000
    5    -20.24801    2.00000
    6    -19.44856    2.00000
    7    -19.35460    2.00000
    8    -18.32936    2.00000
    9    -18.28597    2.00000
   10    -17.54427    2.00000
   11    -17.18843    2.00000
   12    -16.70584    2.00000
   13    -16.17703    2.00000
   14    -15.24057    2.00000
   15    -15.18029    2.00000
   16    -14.46444    2.00000
   17    -13.80078    2.00000
   18    -13.46176    2.00000
   19    -13.36541    2.00000
   20    -12.84541    2.00000
   21    -12.48600    2.00000
   22    -12.03576    2.00000
   23    -11.73304    2.00000
   24    -11.40107    2.00000
   25    -10.54902    2.00000
   26    -10.41990    2.00000
   27     -9.81048    2.00000
   28     -9.47615    2.00000
   29     -9.36795    2.00000
   30     -9.28117    2.00000
   31     -9.14557    2.00000
   32     -8.68016    2.00000
   33     -8.50452    2.00000
   34     -8.44035    2.00000
   35     -8.06485    2.00000
   36     -7.39312    2.00000
   37     -7.27646    2.00000
   38     -7.06935    2.00000
   39     -6.58749    2.00000
   40     -6.31277    2.00000
   41     -5.97133    2.00000
   42     -5.90942    2.00000
   43     -5.79749    2.00000
   44     -5.45653    1.99997
   45     -5.43300    1.99996
   46     -4.69683    1.94027
   47     -4.60116    1.85162
   48     -4.12846    0.19898
   49     -3.80948    0.00906
   50     -3.39516    0.00014
   51     -3.05950    0.00001
   52     -2.78504    0.00000
   53     -2.51822    0.00000
   54     -2.00100    0.00000
   55     -1.52648    0.00000
   56     -0.95526    0.00000
   57     -0.90653    0.00000
   58     -0.07444    0.00000
   59      0.41821    0.00000
   60      0.63967    0.00000
   61      1.07107    0.00000
   62      1.12607    0.00000
   63      1.51968    0.00000
   64      3.51552    0.00000
   65      3.74130    0.00000
   66      3.87841    0.00000
   67      4.47349    0.00000
   68      4.72191    0.00000
   69      5.06423    0.00000
   70      5.60817    0.00000
   71      6.05131    0.00000
   72      6.39213    0.00000
   73      6.59939    0.00000
   74      6.88296    0.00000
   75      7.10444    0.00000
   76      7.42193    0.00000
   77      7.68877    0.00000
   78      8.00355    0.00000
   79      8.17828    0.00000
   80      8.31601    0.00000
   81      8.70020    0.00000
   82      8.93109    0.00000
   83      9.01466    0.00000
   84      9.07328    0.00000
   85      9.35302    0.00000
   86      9.49122    0.00000
   87      9.59216    0.00000
   88      9.60734    0.00000
   89      9.66147    0.00000
   90      9.67357    0.00000
   91      9.89054    0.00000
   92      9.96217    0.00000
   93      9.98564    0.00000
   94     10.16737    0.00000
   95     10.19812    0.00000
   96     10.30056    0.00000
   97     10.43224    0.00000


Forces in eV/Ang:
  0 C    -2.46002    7.83833   -1.30559
  1 C     0.18863   -0.11430    0.26718
  2 C    -0.12008    0.86705    0.02030
  3 C     0.13767   -0.16262    0.09815
  4 C    -2.09983   -4.41382   -1.26426
  5 C    -0.41255   -0.63294   -0.15960
  6 C    -0.07147   -3.68159   -0.05616
  7 C     1.72938   -7.25369   -1.18787
  8 C    -0.08236   -0.18595   -0.13876
  9 C     0.70922   -0.69074    0.30077
 10 C    -0.13331   -0.04976   -0.01489
 11 C     0.54847   -0.28297   -0.57558
 12 C     1.62799   -5.94417    1.47871
 13 C     1.44323    0.34381    0.21478
 14 C     0.86581    3.45403    1.16328
 15 C    -0.04312   -0.06779    0.00692
 16 C     0.05422    0.04187    0.02775
 17 C     0.29067    0.24252   -0.30688
 18 C    -0.12301   -0.11266    0.06551
 19 C     0.17991    0.42090   -0.06249
 20 C     0.26666    0.45385    0.09406
 21 C    -1.97349    6.60698    1.04334
 22 C    -0.06892    2.34240    0.12209
 23 C    -0.44992    0.98342    0.21582

System changes: positions 

Initializing position-dependent things.

Density initialized from wave functions
           .--------------------------------------.  
          /|                                      |  
         / |                                      |  
        /  |                                      |  
       /   |                                      |  
      /    |                                      |  
     /     |                                      |  
    /      |                                      |  
   /       |      C   C  C                        |  
  /        |    C          C                      |  
 *         |  C             C                     |  
 |         | C        C  C     C                  |  
 |         .-C-C---C-----C-----C------------------.  
 |        /          C      C                    /   
 |       /     C C  C     C                     /    
 |      /              C                       /     
 |     /                                      /      
 |    /                                      /       
 |   /                                      /        
 |  /                                      /         
 | /                                      /          
 |/                                      /           
 *--------------------------------------*            

Positions:
   0 C     10.779806    5.901890    5.398339
   1 C      9.334571    3.765948    4.719628
   2 C      9.630152    5.072212    5.157186
   3 C      8.197811    3.243620    4.542004
   4 C      8.370140    5.790717    5.401343
   5 C      6.939186    3.831959    4.725396
   6 C      7.068111    5.201753    5.192790
   7 C      3.366064    6.299087    5.436257
   8 C      4.568496    4.145261    4.786992
   9 C      4.455228    5.492977    5.207517
  10 C      5.589237    3.443627    4.585635
  11 C      5.842526    6.004335    5.413783
  12 C     10.341423    7.267698    5.203414
  13 C      9.112540    8.059103    5.392389
  14 C      8.010685    7.114328    5.463254
  15 C      7.907168   10.310604    5.521703
  16 C      6.822344   11.072189    5.549093
  17 C      8.812306    9.417263    5.469305
  18 C      5.544673   11.238085    5.557647
  19 C      4.256886   10.988521    5.618299
  20 C      3.456996    9.961840    5.629848
  21 C      3.162104    7.472128    5.647960
  22 C      6.585129    7.137082    5.595273
  23 C      3.010790    8.756635    5.665422

Unit cell:
           periodic     x           y           z      points  spacing
  1. axis:    yes   16.000000    0.000000    0.000000    80     0.2000
  2. axis:    yes    0.000000   16.000000    0.000000    80     0.2000
  3. axis:    yes    0.000000    0.000000   10.000000    48     0.2083

Effective grid spacing dv^(1/3) = 0.2027

                     log10-error:    total        iterations:
           time      wfs    density  energy       fermi  poisson
iter:   1  12:19:01          +inf  -181.754173    4      5      
iter:   2  12:19:01         -2.01  -181.679991    3      2      
iter:   3  12:19:02         -2.16  -181.616857    3      2      
iter:   4  12:19:02         -2.39  -181.600031    3      2      
iter:   5  12:19:03         -2.56  -181.596586    2      2      
iter:   6  12:19:03         -2.75  -181.594966    2      1      
iter:   7  12:19:04         -2.82  -181.595528    2      2      
iter:   8  12:19:04         -3.12  -181.594678    2      1      
iter:   9  12:19:05         -3.27  -181.595384    2      2      
iter:  10  12:19:05         -3.53  -181.595501    2      1      
iter:  11  12:19:06         -3.60  -181.595238    2      1      
iter:  12  12:19:07         -3.80  -181.595203    2      1      
iter:  13  12:19:07         -3.95  -181.595282    2      1      
iter:  14  12:19:08         -4.11  -181.595234    2      1      

Converged after 14 iterations.

Dipole moment: (-0.165249, 0.144523, -0.008655) |e|*Ang

Energy contributions relative to reference atoms: (reference = -24663.074771)

Kinetic:       +121.305368
Potential:     -127.212282
External:        +0.000000
XC:            -178.668338
Entropy (-ST):   -0.143248
Local:           +3.051641
--------------------------
Free energy:   -181.666858
Extrapolated:  -181.595234

Fermi level: -4.34049

 Band  Eigenvalues  Occupancy
    0    -23.01743    2.00000
    1    -21.45082    2.00000
    2    -21.06083    2.00000
    3    -20.71530    2.00000
    4    -20.31301    2.00000
    5    -20.21827    2.00000
    6    -19.41970    2.00000
    7    -19.38177    2.00000
    8    -18.33270    2.00000
    9    -18.22710    2.00000
   10    -17.58270    2.00000
   11    -17.16649    2.00000
   12    -16.67276    2.00000
   13    -16.21305    2.00000
   14    -15.23957    2.00000
   15    -15.18841    2.00000
   16    -14.48681    2.00000
   17    -13.77056    2.00000
   18    -13.42131    2.00000
   19    -13.35309    2.00000
   20    -12.82938    2.00000
   21    -12.46421    2.00000
   22    -12.02476    2.00000
   23    -11.73517    2.00000
   24    -11.36157    2.00000
   25    -10.60794    2.00000
   26    -10.45772    2.00000
   27     -9.74849    2.00000
   28     -9.44176    2.00000
   29     -9.37455    2.00000
   30     -9.26707    2.00000
   31     -9.16869    2.00000
   32     -8.67542    2.00000
   33     -8.49409    2.00000
   34     -8.40981    2.00000
   35     -8.03102    2.00000
   36     -7.36669    2.00000
   37     -7.25805    2.00000
   38     -7.10197    2.00000
   39     -6.58152    2.00000
   40     -6.30815    2.00000
   41     -6.00101    2.00000
   42     -5.88499    2.00000
   43     -5.81080    2.00000
   44     -5.53997    1.99999
   45     -5.48440    1.99998
   46     -4.70029    1.94670
   47     -4.59387    1.85294
   48     -4.12010    0.19879
   49     -3.62169    0.00151
   50     -3.33593    0.00009
   51     -3.05991    0.00001
   52     -2.79788    0.00000
   53     -2.51378    0.00000
   54     -2.00267    0.00000
   55     -1.48465    0.00000
   56     -0.93312    0.00000
   57     -0.88595    0.00000
   58      0.01049    0.00000
   59      0.43619    0.00000
   60      0.66947    0.00000
   61      1.04971    0.00000
   62      1.12512    0.00000
   63      1.51421    0.00000
   64      3.53201    0.00000
   65      3.86065    0.00000
   66      3.99507    0.00000
   67      4.46720    0.00000
   68      4.76685    0.00000
   69      5.10134    0.00000
   70      5.62607    0.00000
   71      6.11654    0.00000
   72      6.32762    0.00000
   73      6.60478    0.00000
   74      6.89357    0.00000
   75      7.08852    0.00000
   76      7.40658    0.00000
   77      7.73720    0.00000
   78      8.04821    0.00000
   79      8.20485    0.00000
   80      8.33800    0.00000
   81      8.73980    0.00000
   82      8.93580    0.00000
   83      9.05325    0.00000
   84      9.10140    0.00000
   85      9.34042    0.00000
   86      9.47256    0.00000
   87      9.59825    0.00000
   88      9.62660    0.00000
   89      9.67438    0.00000
   90      9.69396    0.00000
   91      9.92583    0.00000
   92      9.96269    0.00000
   93     10.00776    0.00000
   94     10.16519    0.00000
   95     10.20679    0.00000
   96     10.33292    0.00000
   97     10.43053    0.00000


Forces in eV/Ang:
  0 C    -2.52265    6.96588   -1.35554
  1 C     0.19845   -0.03809    0.26260
  2 C    -0.19095    0.76188    0.10985
  3 C     0.24610   -0.14911    0.10378
  4 C    -1.69616   -3.80396   -1.18540
  5 C    -0.32010   -0.83089   -0.18855
  6 C    -0.20368   -3.18019   -0.02087
  7 C     1.39448   -5.74845   -0.91479
  8 C    -0.07708   -0.24166   -0.13108
  9 C     0.67427   -0.50043    0.30417
 10 C    -0.16655   -0.15349   -0.05421
 11 C     0.71865   -0.19525   -0.52822
 12 C     1.26506   -4.95293    1.48484
 13 C     1.38972    0.11543    0.17977
 14 C     0.66554    2.87286    1.06133
 15 C     0.03429   -0.13206   -0.00618
 16 C    -0.05122    0.05717    0.02658
 17 C     0.39780    0.18841   -0.30200
 18 C     0.14936   -0.07252    0.05914
 19 C     0.05486    0.41116   -0.04921
 20 C     0.13155    0.26168    0.09993
 21 C    -1.65604    5.01284    0.78046
 22 C    -0.02585    2.12790    0.11561
 23 C    -0.41036    1.18563    0.20055

System changes: positions 

Initializing position-dependent things.

Density initialized from wave functions
           .--------------------------------------.  
          /|                                      |  
         / |                                      |  
        /  |                                      |  
       /   |                                      |  
      /    |                                      |  
     /     |                                      |  
    /      |                                      |  
   /       |      C   C  C                        |  
  /        |    C          C                      |  
 *         |  C             C                     |  
 |         | C        C  C     C                  |  
 |         .-C-C---C-----C-----C------------------.  
 |        /          C      C                    /   
 |       /     C C  C     C                     /    
 |      /              C                       /     
 |     /                                      /      
 |    /                                      /       
 |   /                                      /        
 |  /                                      /         
 | /                                      /          
 |/                                      /           
 *--------------------------------------*            

Positions:
   0 C     10.763631    5.937431    5.389670
   1 C      9.336331    3.766832    4.721302
   2 C      9.628507    5.074697    5.158286
   3 C      8.199841    3.242765    4.542639
   4 C      8.361595    5.780487    5.395520
   5 C      6.938337    3.824620    4.723875
   6 C      7.065732    5.187947    5.193012
   7 C      3.367760    6.292467    5.435835
   8 C      4.568152    4.142825    4.786128
   9 C      4.459787    5.491275    5.209254
  10 C      5.587821    3.441624    4.584903
  11 C      5.849499    6.004860    5.411208
  12 C     10.345796    7.245463    5.212528
  13 C      9.120819    8.057841    5.393195
  14 C      8.013708    7.119461    5.468524
  15 C      7.907673   10.309726    5.521545
  16 C      6.821675   11.072395    5.549242
  17 C      8.816035    9.417762    5.467499
  18 C      5.546900   11.237962    5.557962
  19 C      4.257062   10.991388    5.618070
  20 C      3.457048    9.963523    5.630453
  21 C      3.157467    7.474638    5.647914
  22 C      6.585229    7.147099    5.595785
  23 C      3.007986    8.763137    5.666504

Unit cell:
           periodic     x           y           z      points  spacing
  1. axis:    yes   16.000000    0.000000    0.000000    80     0.2000
  2. axis:    yes    0.000000   16.000000    0.000000    80     0.2000
  3. axis:    yes    0.000000    0.000000   10.000000    48     0.2083

Effective grid spacing dv^(1/3) = 0.2027

                     log10-error:    total        iterations:
           time      wfs    density  energy       fermi  poisson
iter:   1  12:19:09          +inf  -182.360671    4      5      
iter:   2  12:19:10         -2.05  -182.299403    3      2      
iter:   3  12:19:11         -2.19  -182.241308    3      2      
iter:   4  12:19:11         -2.44  -182.225074    3      2      
iter:   5  12:19:12         -2.59  -182.221694    2      2      
iter:   6  12:19:12         -2.83  -182.220031    2      1      
iter:   7  12:19:13         -2.89  -182.220987    2      2      
iter:   8  12:19:13         -3.11  -182.221028    2      2      
iter:   9  12:19:14         -3.31  -182.219760    2      1      
iter:  10  12:19:14         -3.62  -182.221126    2      1      
iter:  11  12:19:15         -3.71  -182.221358    2      1      
iter:  12  12:19:15         -3.84  -182.221168    2      1      
iter:  13  12:19:16         -4.02  -182.221407    2      1      

Converged after 13 iterations.

Dipole moment: (-0.114008, 0.126793, -0.012239) |e|*Ang

Energy contributions relative to reference atoms: (reference = -24663.074771)

Kinetic:       +120.700659
Potential:     -127.036770
External:        +0.000000
XC:            -178.870299
Entropy (-ST):   -0.145021
Local:           +3.057513
--------------------------
Free energy:   -182.293918
Extrapolated:  -182.221407

Fermi level: -4.33881

 Band  Eigenvalues  Occupancy
    0    -22.94764    2.00000
    1    -21.44252    2.00000
    2    -21.03871    2.00000
    3    -20.68914    2.00000
    4    -20.30605    2.00000
    5    -20.18959    2.00000
    6    -19.40915    2.00000
    7    -19.39927    2.00000
    8    -18.33447    2.00000
    9    -18.18686    2.00000
   10    -17.62514    2.00000
   11    -17.14978    2.00000
   12    -16.64166    2.00000
   13    -16.23467    2.00000
   14    -15.27418    2.00000
   15    -15.15608    2.00000
   16    -14.49963    2.00000
   17    -13.73501    2.00000
   18    -13.39169    2.00000
   19    -13.33972    2.00000
   20    -12.81761    2.00000
   21    -12.44178    2.00000
   22    -12.01531    2.00000
   23    -11.74500    2.00000
   24    -11.33008    2.00000
   25    -10.68198    2.00000
   26    -10.44069    2.00000
   27     -9.70835    2.00000
   28     -9.41622    2.00000
   29     -9.36810    2.00000
   30     -9.25487    2.00000
   31     -9.17111    2.00000
   32     -8.66663    2.00000
   33     -8.49017    2.00000
   34     -8.38496    2.00000
   35     -8.00310    2.00000
   36     -7.34008    2.00000
   37     -7.24523    2.00000
   38     -7.12822    2.00000
   39     -6.57816    2.00000
   40     -6.30828    2.00000
   41     -6.09307    2.00000
   42     -5.88896    2.00000
   43     -5.80847    2.00000
   44     -5.58288    1.99999
   45     -5.51207    1.99998
   46     -4.70025    1.94755
   47     -4.58752    1.84647
   48     -4.12223    0.20574
   49     -3.42293    0.00021
   50     -3.29084    0.00006
   51     -3.05590    0.00001
   52     -2.79452    0.00000
   53     -2.50399    0.00000
   54     -1.98395    0.00000
   55     -1.45819    0.00000
   56     -0.89520    0.00000
   57     -0.86701    0.00000
   58      0.10864    0.00000
   59      0.44798    0.00000
   60      0.70413    0.00000
   61      1.02840    0.00000
   62      1.14085    0.00000
   63      1.50737    0.00000
   64      3.55016    0.00000
   65      3.85684    0.00000
   66      4.18300    0.00000
   67      4.46563    0.00000
   68      4.81071    0.00000
   69      5.15613    0.00000
   70      5.62983    0.00000
   71      6.14127    0.00000
   72      6.25267    0.00000
   73      6.62486    0.00000
   74      6.88678    0.00000
   75      7.07830    0.00000
   76      7.39037    0.00000
   77      7.78766    0.00000
   78      8.08381    0.00000
   79      8.22474    0.00000
   80      8.32502    0.00000
   81      8.76863    0.00000
   82      8.93298    0.00000
   83      9.08433    0.00000
   84      9.13833    0.00000
   85      9.33765    0.00000
   86      9.45161    0.00000
   87      9.58991    0.00000
   88      9.64192    0.00000
   89      9.69952    0.00000
   90      9.71221    0.00000
   91      9.92406    0.00000
   92      9.96381    0.00000
   93     10.02578    0.00000
   94     10.17023    0.00000
   95     10.23090    0.00000
   96     10.36035    0.00000
   97     10.42929    0.00000


Forces in eV/Ang:
  0 C    -2.29627    5.47909   -1.27819
  1 C     0.24792    0.01511    0.25923
  2 C    -0.21933    0.65356    0.15559
  3 C     0.27658   -0.17562    0.09569
  4 C    -1.48282   -3.18150   -1.04915
  5 C    -0.25480   -0.90982   -0.19256
  6 C    -0.20731   -2.82126   -0.03445
  7 C     1.15341   -4.67606   -0.72757
  8 C    -0.08569   -0.19892   -0.09255
  9 C     0.71886   -0.46358    0.26925
 10 C    -0.16769   -0.24175   -0.08594
 11 C     0.71045   -0.16814   -0.48525
 12 C     0.80603   -3.40332    1.38249
 13 C     1.21994    0.01076    0.15337
 14 C     0.55243    2.33591    0.94896
 15 C     0.06960   -0.15797   -0.01965
 16 C     0.21382   -0.03775    0.02142
 17 C     0.44159    0.14072   -0.28725
 18 C    -0.12465   -0.06173    0.05719
 19 C     0.09237    0.38974   -0.04011
 20 C     0.24562    0.54095    0.08914
 21 C    -1.48054    4.24969    0.61293
 22 C     0.00640    1.95448    0.11563
 23 C    -0.47536    0.64009    0.19104

System changes: positions 

Initializing position-dependent things.

Density initialized from wave functions
           .--------------------------------------.  
          /|                                      |  
         / |                                      |  
        /  |                                      |  
       /   |                                      |  
      /    |                                      |  
     /     |                                      |  
    /      |                                      |  
   /       |      C   C  C                        |  
  /        |    C          C                      |  
 *         |  C             C                     |  
 |         | C        C  C     C                  |  
 |         .-C-C---C-----C-----C------------------.  
 |        /          C      C                    /   
 |       /     C C  C     C                     /    
 |      /              C                       /     
 |     /                                      /      
 |    /                                      /       
 |   /                                      /        
 |  /                                      /         
 | /                                      /          
 |/                                      /           
 *--------------------------------------*            

Positions:
   0 C     10.744006    5.970442    5.378483
   1 C      9.339341    3.768328    4.723644
   2 C      9.625957    5.077811    5.160328
   3 C      8.202935    3.241108    4.543437
   4 C      8.351388    5.768226    5.388377
   5 C      6.937524    3.814032    4.721815
   6 C      7.062856    5.170359    5.192952
   7 C      3.369530    6.286649    5.435803
   8 C      4.567546    4.140329    4.785449
   9 C      4.466924    5.488590    5.211296
  10 C      5.585877    3.438011    4.583592
  11 C      5.858173    6.005205    5.407792
  12 C     10.347057    7.232098    5.224160
  13 C      9.130381    8.055473    5.394127
  14 C      8.017020    7.125319    5.475110
  15 C      7.908831   10.308062    5.521175
  16 C      6.824729   11.071389    5.549389
  17 C      8.821368    9.418158    5.465088
  18 C      5.545541   11.237793    5.558409
  19 C      4.257740   10.994842    5.617845
  20 C      3.459339    9.970346    5.631167
  21 C      3.151059    7.478453    5.647393
  22 C      6.585676    7.160498    5.596614
  23 C      3.003037    8.765254    5.668006

Unit cell:
           periodic     x           y           z      points  spacing
  1. axis:    yes   16.000000    0.000000    0.000000    80     0.2000
  2. axis:    yes    0.000000   16.000000    0.000000    80     0.2000
  3. axis:    yes    0.000000    0.000000   10.000000    48     0.2083

Effective grid spacing dv^(1/3) = 0.2027

                     log10-error:    total        iterations:
           time      wfs    density  energy       fermi  poisson
iter:   1  12:19:18          +inf  -182.845097    4      5      
iter:   2  12:19:18         -2.04  -182.790843    3      2      
iter:   3  12:19:19         -2.20  -182.745145    3      2      
iter:   4  12:19:19         -2.41  -182.725720    3      2      
iter:   5  12:19:20         -2.58  -182.722066    3      2      
iter:   6  12:19:21         -2.83  -182.720561    2      1      
iter:   7  12:19:21         -2.89  -182.721437    2      2      
iter:   8  12:19:22         -3.09  -182.721372    2      2      
iter:   9  12:19:22         -3.28  -182.720231    2      1      
iter:  10  12:19:23         -3.65  -182.721356    2      1      
iter:  11  12:19:23         -3.72  -182.721689    2      1      
iter:  12  12:19:24         -3.86  -182.721335    2      1      
iter:  13  12:19:24         -3.84  -182.721739    2      1      
iter:  14  12:19:25         -4.01  -182.721700    2      1      

Converged after 14 iterations.

Dipole moment: (-0.078563, 0.119979, -0.015272) |e|*Ang

Energy contributions relative to reference atoms: (reference = -24663.074771)

Kinetic:       +120.237817
Potential:     -126.925000
External:        +0.000000
XC:            -179.022100
Entropy (-ST):   -0.148054
Local:           +3.061610
--------------------------
Free energy:   -182.795727
Extrapolated:  -182.721700

Fermi level: -4.34500

 Band  Eigenvalues  Occupancy
    0    -22.87140    2.00000
    1    -21.44032    2.00000
    2    -21.00883    2.00000
    3    -20.66698    2.00000
    4    -20.30460    2.00000
    5    -20.16353    2.00000
    6    -19.43204    2.00000
    7    -19.38271    2.00000
    8    -18.35075    2.00000
    9    -18.14058    2.00000
   10    -17.64518    2.00000
   11    -17.13391    2.00000
   12    -16.60398    2.00000
   13    -16.25406    2.00000
   14    -15.30523    2.00000
   15    -15.14141    2.00000
   16    -14.49787    2.00000
   17    -13.70152    2.00000
   18    -13.36988    2.00000
   19    -13.32992    2.00000
   20    -12.81164    2.00000
   21    -12.41994    2.00000
   22    -12.01406    2.00000
   23    -11.74336    2.00000
   24    -11.29673    2.00000
   25    -10.72423    2.00000
   26    -10.41300    2.00000
   27     -9.66197    2.00000
   28     -9.39439    2.00000
   29     -9.36337    2.00000
   30     -9.25293    2.00000
   31     -9.17682    2.00000
   32     -8.65553    2.00000
   33     -8.48610    2.00000
   34     -8.36154    2.00000
   35     -7.97447    2.00000
   36     -7.33026    2.00000
   37     -7.23473    2.00000
   38     -7.15979    2.00000
   39     -6.56905    2.00000
   40     -6.31578    2.00000
   41     -6.19771    2.00000
   42     -5.88226    2.00000
   43     -5.78680    2.00000
   44     -5.58396    1.99999
   45     -5.51988    1.99998
   46     -4.70521    1.94691
   47     -4.58948    1.84035
   48     -4.13214    0.21269
   49     -3.27376    0.00004
   50     -3.21505    0.00002
   51     -3.05103    0.00000
   52     -2.78221    0.00000
   53     -2.49682    0.00000
   54     -1.99946    0.00000
   55     -1.43228    0.00000
   56     -0.88318    0.00000
   57     -0.83591    0.00000
   58      0.21767    0.00000
   59      0.44609    0.00000
   60      0.73522    0.00000
   61      0.98436    0.00000
   62      1.17058    0.00000
   63      1.50281    0.00000
   64      3.57746    0.00000
   65      3.85119    0.00000
   66      4.35890    0.00000
   67      4.47105    0.00000
   68      4.86509    0.00000
   69      5.22603    0.00000
   70      5.62012    0.00000
   71      6.12211    0.00000
   72      6.24017    0.00000
   73      6.65622    0.00000
   74      6.87379    0.00000
   75      7.06484    0.00000
   76      7.37018    0.00000
   77      7.83677    0.00000
   78      8.09362    0.00000
   79      8.22211    0.00000
   80      8.33453    0.00000
   81      8.76185    0.00000
   82      8.93002    0.00000
   83      9.11054    0.00000
   84      9.14463    0.00000
   85      9.33607    0.00000
   86      9.41872    0.00000
   87      9.58304    0.00000
   88      9.65076    0.00000
   89      9.72532    0.00000
   90      9.74775    0.00000
   91      9.91640    0.00000
   92      9.99670    0.00000
   93     10.04079    0.00000
   94     10.18764    0.00000
   95     10.25065    0.00000
   96     10.35859    0.00000
   97     10.44394    0.00000


Forces in eV/Ang:
  0 C    -1.79292    3.54544   -1.07141
  1 C     0.20662   -0.00480    0.23043
  2 C    -0.25986    0.53667    0.15083
  3 C     0.36392   -0.19241    0.08807
  4 C    -1.23397   -2.43560   -0.88391
  5 C    -0.20250   -0.99477   -0.20337
  6 C    -0.25177   -2.31415   -0.01906
  7 C     1.02039   -3.76887   -0.56881
  8 C    -0.03465   -0.21989   -0.07164
  9 C     0.61416   -0.28386    0.26488
 10 C    -0.21633   -0.30292   -0.11088
 11 C     0.73830   -0.08947   -0.43376
 12 C     0.34311   -1.54687    1.14886
 13 C     0.93699    0.06843    0.15676
 14 C     0.39696    1.70769    0.79951
 15 C     0.19437   -0.25122   -0.03815
 16 C    -0.12370    0.00809    0.02800
 17 C     0.47416    0.08963   -0.25927
 18 C     0.34513   -0.03055    0.04344
 19 C     0.07372    0.44911   -0.02279
 20 C    -0.06708   -0.00215    0.10198
 21 C    -1.23183    3.22135    0.44459
 22 C     0.03610    1.63981    0.10385
 23 C    -0.33034    1.06574    0.16942

System changes: positions 

Initializing position-dependent things.

Density initialized from wave functions
           .--------------------------------------.  
          /|                                      |  
         / |                                      |  
        /  |                                      |  
       /   |                                      |  
      /    |                                      |  
     /     |                                      |  
    /      |                                      |  
   /       |      C   C  C                        |  
  /        |    C          C                      |  
 *         |  C             C                     |  
 |         | C        C  C     C                  |  
 |         .-C-C---C-----C-----C------------------.  
 |        /          C      C                    /   
 |       /     C C  C     C                     /    
 |      /              C                       /     
 |     /                                      /      
 |    /                                      /       
 |   /                                      /        
 |  /                                      /         
 | /                                      /          
 |/                                      /           
 *--------------------------------------*            

Positions:
   0 C     10.721512    6.000490    5.364658
   1 C      9.342979    3.769641    4.726780
   2 C      9.621897    5.081803    5.162756
   3 C      8.208392    3.238356    4.544539
   4 C      8.337024    5.754941    5.379091
   5 C      6.936338    3.797946    4.718682
   6 C      7.058464    5.147444    5.192968
   7 C      3.373419    6.277658    5.435667
   8 C      4.567397    4.136401    4.784580
   9 C      4.476042    5.486254    5.214476
  10 C      5.582367    3.432427    4.581532
  11 C      5.870847    6.006290    5.402960
  12 C     10.345369    7.229902    5.238566
  13 C      9.141399    8.054374    5.395882
  14 C      8.021001    7.130189    5.483786
  15 C      7.912040   10.304459    5.520442
  16 C      6.823550   11.070886    5.549743
  17 C      8.829255    9.418426    5.461773
  18 C      5.550578   11.237775    5.558914
  19 C      4.258966   11.001197    5.617672
  20 C      3.458065    9.971809    5.632475
  21 C      3.142432    7.481780    5.646375
  22 C      6.586502    7.177870    5.597743
  23 C      2.997925    8.776368    5.670070

Unit cell:
           periodic     x           y           z      points  spacing
  1. axis:    yes   16.000000    0.000000    0.000000    80     0.2000
  2. axis:    yes    0.000000   16.000000    0.000000    80     0.2000
  3. axis:    yes    0.000000    0.000000   10.000000    48     0.2083

Effective grid spacing dv^(1/3) = 0.2027

                     log10-error:    total        iterations:
           time      wfs    density  energy       fermi  poisson
iter:   1  12:19:27          +inf  -183.224512    4      5      
iter:   2  12:19:27         -2.03  -183.174405    3      2      
iter:   3  12:19:28         -2.20  -183.137635    3      2      
iter:   4  12:19:28         -2.39  -183.120265    3      2      
iter:   5  12:19:29         -2.56  -183.116386    3      2      
iter:   6  12:19:29         -2.83  -183.114398    2      1      
iter:   7  12:19:30         -2.89  -183.115622    2      2      
iter:   8  12:19:31         -3.14  -183.114693    2      1      
iter:   9  12:19:31         -3.27  -183.115866    2      2      
iter:  10  12:19:32         -3.65  -183.116025    2      1      
iter:  11  12:19:32         -3.71  -183.115943    2      1      
iter:  12  12:19:33         -3.95  -183.116055    2      1      
iter:  13  12:19:33         -4.05  -183.116015    2      1      

Converged after 13 iterations.

Dipole moment: (-0.052478, 0.109110, -0.018596) |e|*Ang

Energy contributions relative to reference atoms: (reference = -24663.074771)

Kinetic:       +119.774919
Potential:     -126.791204
External:        +0.000000
XC:            -179.084439
Entropy (-ST):   -0.157133
Local:           +3.063276
--------------------------
Free energy:   -183.194581
Extrapolated:  -183.116015

Fermi level: -4.36049

 Band  Eigenvalues  Occupancy
    0    -22.79513    2.00000
    1    -21.44015    2.00000
    2    -20.97314    2.00000
    3    -20.63767    2.00000
    4    -20.29146    2.00000
    5    -20.14299    2.00000
    6    -19.43218    2.00000
    7    -19.38137    2.00000
    8    -18.34481    2.00000
    9    -18.12073    2.00000
   10    -17.63770    2.00000
   11    -17.12541    2.00000
   12    -16.57002    2.00000
   13    -16.25217    2.00000
   14    -15.32059    2.00000
   15    -15.12586    2.00000
   16    -14.49841    2.00000
   17    -13.66157    2.00000
   18    -13.35534    2.00000
   19    -13.31494    2.00000
   20    -12.80885    2.00000
   21    -12.40947    2.00000
   22    -12.01818    2.00000
   23    -11.73369    2.00000
   24    -11.26027    2.00000
   25    -10.72634    2.00000
   26    -10.38298    2.00000
   27     -9.61036    2.00000
   28     -9.38074    2.00000
   29     -9.35971    2.00000
   30     -9.25408    2.00000
   31     -9.18371    2.00000
   32     -8.64198    2.00000
   33     -8.48164    2.00000
   34     -8.34314    2.00000
   35     -7.93788    2.00000
   36     -7.30598    2.00000
   37     -7.22007    2.00000
   38     -7.17184    2.00000
   39     -6.56453    2.00000
   40     -6.35383    2.00000
   41     -6.26495    2.00000
   42     -5.88404    2.00000
   43     -5.78171    2.00000
   44     -5.57354    1.99999
   45     -5.52373    1.99998
   46     -4.70825    1.94009
   47     -4.59722    1.82861
   48     -4.15706    0.23130
   49     -3.24727    0.00003
   50     -3.09854    0.00001
   51     -3.02417    0.00000
   52     -2.74521    0.00000
   53     -2.48114    0.00000
   54     -1.98284    0.00000
   55     -1.43082    0.00000
   56     -0.91080    0.00000
   57     -0.78077    0.00000
   58      0.32417    0.00000
   59      0.44879    0.00000
   60      0.74416    0.00000
   61      0.93943    0.00000
   62      1.21238    0.00000
   63      1.50524    0.00000
   64      3.61582    0.00000
   65      3.84335    0.00000
   66      4.48449    0.00000
   67      4.56379    0.00000
   68      4.92448    0.00000
   69      5.32113    0.00000
   70      5.60091    0.00000
   71      6.07508    0.00000
   72      6.24918    0.00000
   73      6.68754    0.00000
   74      6.82306    0.00000
   75      7.05106    0.00000
   76      7.33692    0.00000
   77      7.85767    0.00000
   78      8.08622    0.00000
   79      8.22298    0.00000
   80      8.30167    0.00000
   81      8.76492    0.00000
   82      8.91324    0.00000
   83      9.13823    0.00000
   84      9.16948    0.00000
   85      9.35462    0.00000
   86      9.39494    0.00000
   87      9.57005    0.00000
   88      9.65714    0.00000
   89      9.74018    0.00000
   90      9.79357    0.00000
   91      9.91986    0.00000
   92     10.00023    0.00000
   93     10.04054    0.00000
   94     10.20934    0.00000
   95     10.27005    0.00000
   96     10.34835    0.00000
   97     10.46298    0.00000


Forces in eV/Ang:
  0 C    -1.24163    1.56355   -0.84131
  1 C     0.20592   -0.00783    0.20911
  2 C    -0.32589    0.43494    0.10546
  3 C     0.36004   -0.26254    0.05618
  4 C    -0.80690   -1.71264   -0.66663
  5 C    -0.14455   -1.00353   -0.16852
  6 C    -0.29544   -1.70928   -0.01766
  7 C     0.73407   -2.39048   -0.32558
  8 C    -0.06981   -0.10904   -0.00481
  9 C     0.65815   -0.23668    0.20984
 10 C    -0.16216   -0.42305   -0.15818
 11 C     0.65654   -0.07485   -0.38443
 12 C    -0.01927    0.20068    0.88627
 13 C     0.57963    0.12821    0.19737
 14 C     0.18610    1.14813    0.62913
 15 C     0.08351   -0.14993   -0.05095
 16 C     0.50575   -0.22632    0.01547
 17 C     0.39823    0.12914   -0.21573
 18 C    -0.20452   -0.01584    0.03926
 19 C     0.02077    0.25249   -0.00735
 20 C     0.28736    0.70491    0.07706
 21 C    -0.98803    2.36888    0.24159
 22 C     0.05751    1.26185    0.08097
 23 C    -0.43838    0.09189    0.16049

System changes: positions 

Initializing position-dependent things.

Density initialized from wave functions
           .--------------------------------------.  
          /|                                      |  
         / |                                      |  
        /  |                                      |  
       /   |                                      |  
      /    |                                      |  
     /     |                                      |  
    /      |                                      |  
   /       |      C   C  C                        |  
  /        |    C          C                      |  
 *         |  C             C                     |  
 |         | C        C  C     C                  |  
 |         .-C-C---C-----C-----C------------------.  
 |        /          C      C                    /   
 |       /     C C  C     C                     /    
 |      /              C                       /     
 |     /                                      /      
 |    /                                      /       
 |   /                                      /        
 |  /                                      /         
 | /                                      /          
 |/                                      /           
 *--------------------------------------*            

Positions:
   0 C     10.695904    6.026054    5.347608
   1 C      9.347808    3.770784    4.731038
   2 C      9.615287    5.087690    5.165194
   3 C      8.215836    3.233379    4.545693
   4 C      8.320889    5.737122    5.367444
   5 C      6.934683    3.775806    4.714866
   6 C      7.051862    5.118843    5.192943
   7 C      3.378408    6.269531    5.436318
   8 C      4.566608    4.132556    4.784149
   9 C      4.489779    5.482648    5.218480
  10 C      5.578281    3.423374    4.578142
  11 C      5.887017    6.007180    5.396139
  12 C     10.341574    7.240557    5.256233
  13 C      9.153119    8.054945    5.399351
  14 C      8.024623    7.137470    5.495016
  15 C      7.914540   10.301048    5.519311
  16 C      6.830895   11.066965    5.550085
  17 C      8.838701    9.420087    5.457507
  18 C      5.549787   11.237782    5.559626
  19 C      4.259483   11.007006    5.617578
  20 C      3.462020    9.984474    5.634031
  21 C      3.130598    7.487877    5.644444
  22 C      6.587714    7.199681    5.599113
  23 C      2.989018    8.780334    5.673076

Unit cell:
           periodic     x           y           z      points  spacing
  1. axis:    yes   16.000000    0.000000    0.000000    80     0.2000
  2. axis:    yes    0.000000   16.000000    0.000000    80     0.2000
  3. axis:    yes    0.000000    0.000000   10.000000    48     0.2083

Effective grid spacing dv^(1/3) = 0.2027

                     log10-error:    total        iterations:
           time      wfs    density  energy       fermi  poisson
iter:   1  12:19:35          +inf  -183.529390    4      5      
iter:   2  12:19:36         -1.99  -183.475568    3      2      
iter:   3  12:19:36         -2.19  -183.445085    3      2      
iter:   4  12:19:37         -2.35  -183.429296    3      2      
iter:   5  12:19:37         -2.54  -183.426190    3      2      
iter:   6  12:19:38         -2.79  -183.425166    3      2      
iter:   7  12:19:38         -2.80  -183.425280    3      2      
iter:   8  12:19:39         -3.02  -183.425116    2      1      
iter:   9  12:19:39         -3.26  -183.424970    2      2      
iter:  10  12:19:40         -3.49  -183.424961    2      1      
iter:  11  12:19:41         -3.68  -183.424835    2      1      
iter:  12  12:19:41         -3.92  -183.424872    2      1      
iter:  13  12:19:42         -3.98  -183.424898    2      1      
iter:  14  12:19:42         -4.06  -183.424841    2      1      

Converged after 14 iterations.

Dipole moment: (-0.041846, 0.114690, -0.020372) |e|*Ang

Energy contributions relative to reference atoms: (reference = -24663.074771)

Kinetic:       +117.828881
Potential:     -125.450788
External:        +0.000000
XC:            -178.781075
Entropy (-ST):   -0.162947
Local:           +3.059615
--------------------------
Free energy:   -183.506315
Extrapolated:  -183.424841

Fermi level: -4.38250

 Band  Eigenvalues  Occupancy
    0    -22.71148    2.00000
    1    -21.43736    2.00000
    2    -20.92997    2.00000
    3    -20.61595    2.00000
    4    -20.26006    2.00000
    5    -20.12348    2.00000
    6    -19.43339    2.00000
    7    -19.36893    2.00000
    8    -18.36013    2.00000
    9    -18.08637    2.00000
   10    -17.58628    2.00000
   11    -17.11089    2.00000
   12    -16.51964    2.00000
   13    -16.25958    2.00000
   14    -15.32950    2.00000
   15    -15.14369    2.00000
   16    -14.47886    2.00000
   17    -13.63541    2.00000
   18    -13.34725    2.00000
   19    -13.30368    2.00000
   20    -12.81365    2.00000
   21    -12.40140    2.00000
   22    -12.02597    2.00000
   23    -11.70923    2.00000
   24    -11.22702    2.00000
   25    -10.69118    2.00000
   26    -10.34572    2.00000
   27     -9.56212    2.00000
   28     -9.36708    2.00000
   29     -9.34304    2.00000
   30     -9.26552    2.00000
   31     -9.19222    2.00000
   32     -8.62674    2.00000
   33     -8.46911    2.00000
   34     -8.32140    2.00000
   35     -7.89167    2.00000
   36     -7.29583    2.00000
   37     -7.21861    2.00000
   38     -7.19210    2.00000
   39     -6.55469    2.00000
   40     -6.38815    2.00000
   41     -6.27909    2.00000
   42     -5.87916    2.00000
   43     -5.75043    2.00000
   44     -5.56962    1.99999
   45     -5.46332    1.99996
   46     -4.72032    1.93403
   47     -4.61562    1.82286
   48     -4.18473    0.24314
   49     -3.22837    0.00002
   50     -3.06661    0.00000
   51     -2.96699    0.00000
   52     -2.71707    0.00000
   53     -2.46805    0.00000
   54     -2.03072    0.00000
   55     -1.41415    0.00000
   56     -0.92188    0.00000
   57     -0.78764    0.00000
   58      0.36408    0.00000
   59      0.47147    0.00000
   60      0.72543    0.00000
   61      0.87654    0.00000
   62      1.26503    0.00000
   63      1.50607    0.00000
   64      3.64844    0.00000
   65      3.84235    0.00000
   66      4.51285    0.00000
   67      4.80604    0.00000
   68      4.98076    0.00000
   69      5.42222    0.00000
   70      5.58790    0.00000
   71      6.01526    0.00000
   72      6.25823    0.00000
   73      6.72073    0.00000
   74      6.76450    0.00000
   75      7.03368    0.00000
   76      7.29312    0.00000
   77      7.88851    0.00000
   78      8.03931    0.00000
   79      8.21272    0.00000
   80      8.29093    0.00000
   81      8.72130    0.00000
   82      8.90067    0.00000
   83      9.15312    0.00000
   84      9.16558    0.00000
   85      9.34423    0.00000
   86      9.36619    0.00000
   87      9.54257    0.00000
   88      9.67183    0.00000
   89      9.75517    0.00000
   90      9.85218    0.00000
   91      9.93601    0.00000
   92     10.03594    0.00000
   93     10.06961    0.00000
   94     10.22306    0.00000
   95     10.28083    0.00000
   96     10.34318    0.00000
   97     10.46905    0.00000


Forces in eV/Ang:
  0 C    -0.73355    0.21965   -0.63928
  1 C     0.14671   -0.03742    0.17338
  2 C    -0.34903    0.24643   -0.00118
  3 C     0.38240   -0.33315    0.02738
  4 C    -0.44097   -0.70346   -0.38078
  5 C    -0.05176   -0.98716   -0.13831
  6 C    -0.29102   -0.98583   -0.03833
  7 C     0.56972   -1.21699   -0.13081
  8 C     0.05282   -0.14893    0.01800
  9 C     0.49380    0.01720    0.17874
 10 C    -0.26849   -0.45472   -0.17967
 11 C     0.53508   -0.03784   -0.28184
 12 C    -0.04701    1.13915    0.61443
 13 C     0.08236    0.34989    0.27789
 14 C    -0.06633    0.39980    0.41439
 15 C     0.30231   -0.28432   -0.07445
 16 C    -0.24491   -0.06213    0.03939
 17 C     0.33566    0.16283   -0.16825
 18 C     0.54267    0.00165    0.01846
 19 C     0.17772    0.44142    0.00005
 20 C    -0.31241   -0.30715    0.09256
 21 C    -0.63540    1.07306    0.04366
 22 C     0.10165    0.71792    0.02342
 23 C    -0.17574    0.81788    0.12807

System changes: positions 

Initializing position-dependent things.

Density initialized from wave functions
           .--------------------------------------.  
          /|                                      |  
         / |                                      |  
        /  |                                      |  
       /   |                                      |  
      /    |                                      |  
     /     |                                      |  
    /      |                                      |  
   /       |      C   C  C                        |  
  /        |    C          C                      |  
 *         |  C             C                     |  
 |         | C        C  C     C                  |  
 |         .-C-C---C-----C-----C------------------.  
 |        /          C      C                    /   
 |       /     C C  C     C                     /    
 |      /              C                       /     
 |     /                                      /      
 |    /                                      /       
 |   /                                      /        
 |  /                                      /         
 | /                                      /          
 |/                                      /           
 *--------------------------------------*            

Positions:
   0 C     10.668826    6.047593    5.327537
   1 C      9.353255    3.771285    4.736293
   2 C      9.606208    5.093933    5.166264
   3 C      8.225623    3.225266    4.546738
   4 C      8.303552    5.721538    5.355375
   5 C      6.933250    3.747463    4.710487
   6 C      7.043641    5.087985    5.192310
   7 C      3.386390    6.260660    5.437317
   8 C      4.567227    4.127458    4.784010
   9 C      4.505995    5.480617    5.223410
  10 C      5.571474    3.411106    4.573388
  11 C      5.905379    6.007801    5.388084
  12 C     10.339518    7.260689    5.276221
  13 C      9.161353    8.060669    5.405747
  14 C      8.026191    7.142616    5.507697
  15 C      7.920634   10.294877    5.517498
  16 C      6.830918   11.063844    5.550920
  17 C      8.849513    9.423612    5.452430
  18 C      5.557598   11.237781    5.560323
  19 C      4.263207   11.017537    5.617472
  20 C      3.459493    9.987947    5.636322
  21 C      3.116649    7.493506    5.641579
  22 C      6.589881    7.222410    5.600091
  23 C      2.980714    8.794594    5.676785

Unit cell:
           periodic     x           y           z      points  spacing
  1. axis:    yes   16.000000    0.000000    0.000000    80     0.2000
  2. axis:    yes    0.000000   16.000000    0.000000    80     0.2000
  3. axis:    yes    0.000000    0.000000   10.000000    48     0.2083

Effective grid spacing dv^(1/3) = 0.2027

                     log10-error:    total        iterations:
           time      wfs    density  energy       fermi  poisson
iter:   1  12:19:44          +inf  -183.717087    4      5      
iter:   2  12:19:44         -2.01  -183.668950    3      2      
iter:   3  12:19:45         -2.21  -183.645440    3      2      
iter:   4  12:19:46         -2.38  -183.635257    3      2      
iter:   5  12:19:46         -2.56  -183.634116    3      2      
iter:   6  12:19:47         -2.81  -183.634310    3      1      
iter:   7  12:19:47         -2.82  -183.632782    2      2      
iter:   8  12:19:48         -3.14  -183.633202    2      1      
iter:   9  12:19:48         -3.33  -183.633381    2      1      
iter:  10  12:19:49         -3.54  -183.633043    2      1      
iter:  11  12:19:49         -3.66  -183.632840    2      1      
iter:  12  12:19:50         -3.78  -183.632551    2      1      
iter:  13  12:19:50         -3.95  -183.632615    2      1      
iter:  14  12:19:51         -4.11  -183.632593    2      1      

Converged after 14 iterations.

Dipole moment: (-0.034873, 0.109503, -0.022005) |e|*Ang

Energy contributions relative to reference atoms: (reference = -24663.074771)

Kinetic:       +115.378844
Potential:     -123.682885
External:        +0.000000
XC:            -178.294600
Entropy (-ST):   -0.175203
Local:           +3.053649
--------------------------
Free energy:   -183.720195
Extrapolated:  -183.632593

Fermi level: -4.40779

 Band  Eigenvalues  Occupancy
    0    -22.64060    2.00000
    1    -21.42587    2.00000
    2    -20.89053    2.00000
    3    -20.58751    2.00000
    4    -20.20473    2.00000
    5    -20.11196    2.00000
    6    -19.41488    2.00000
    7    -19.36604    2.00000
    8    -18.33562    2.00000
    9    -18.08781    2.00000
   10    -17.52982    2.00000
   11    -17.10385    2.00000
   12    -16.48315    2.00000
   13    -16.24486    2.00000
   14    -15.34277    2.00000
   15    -15.12066    2.00000
   16    -14.47022    2.00000
   17    -13.60156    2.00000
   18    -13.33960    2.00000
   19    -13.28760    2.00000
   20    -12.81747    2.00000
   21    -12.40065    2.00000
   22    -12.03247    2.00000
   23    -11.68484    2.00000
   24    -11.21034    2.00000
   25    -10.61485    2.00000
   26    -10.31091    2.00000
   27     -9.51411    2.00000
   28     -9.35899    2.00000
   29     -9.32593    2.00000
   30     -9.26627    2.00000
   31     -9.19009    2.00000
   32     -8.60761    2.00000
   33     -8.46022    2.00000
   34     -8.31152    2.00000
   35     -7.83918    2.00000
   36     -7.27600    2.00000
   37     -7.20230    2.00000
   38     -7.18208    2.00000
   39     -6.54713    2.00000
   40     -6.40769    2.00000
   41     -6.28654    2.00000
   42     -5.86934    2.00000
   43     -5.75591    2.00000
   44     -5.58857    1.99999
   45     -5.40758    1.99991
   46     -4.72508    1.91961
   47     -4.63419    1.81170
   48     -4.22152    0.26879
   49     -3.23643    0.00002
   50     -3.06182    0.00000
   51     -2.91763    0.00000
   52     -2.69749    0.00000
   53     -2.45180    0.00000
   54     -2.02913    0.00000
   55     -1.42575    0.00000
   56     -0.97555    0.00000
   57     -0.75642    0.00000
   58      0.34339    0.00000
   59      0.51101    0.00000
   60      0.68738    0.00000
   61      0.84521    0.00000
   62      1.29384    0.00000
   63      1.51765    0.00000
   64      3.65998    0.00000
   65      3.85968    0.00000
   66      4.56573    0.00000
   67      4.99094    0.00000
   68      5.06509    0.00000
   69      5.47647    0.00000
   70      5.63922    0.00000
   71      5.91336    0.00000
   72      6.22314    0.00000
   73      6.66599    0.00000
   74      6.73620    0.00000
   75      7.01031    0.00000
   76      7.23897    0.00000
   77      7.88604    0.00000
   78      7.98669    0.00000
   79      8.18231    0.00000
   80      8.25860    0.00000
   81      8.70422    0.00000
   82      8.88123    0.00000
   83      9.17641    0.00000
   84      9.18694    0.00000
   85      9.31392    0.00000
   86      9.39613    0.00000
   87      9.50799    0.00000
   88      9.68629    0.00000
   89      9.76675    0.00000
   90      9.88067    0.00000
   91      9.94776    0.00000
   92     10.01806    0.00000
   93     10.11182    0.00000
   94     10.24248    0.00000
   95     10.29293    0.00000
   96     10.35289    0.00000
   97     10.46989    0.00000


Forces in eV/Ang:
  0 C    -0.45715   -0.34987   -0.49512
  1 C     0.09728   -0.07527    0.15215
  2 C    -0.32649    0.07270   -0.12423
  3 C     0.31593   -0.39347    0.00150
  4 C    -0.10290    0.07058   -0.09638
  5 C    -0.01427   -0.84990   -0.06438
  6 C    -0.18099   -0.32001   -0.04804
  7 C     0.25744    0.21639    0.10256
  8 C     0.03149   -0.00099    0.09642
  9 C     0.37185    0.06773    0.08023
 10 C    -0.13223   -0.57986   -0.21372
 11 C     0.25623   -0.06166   -0.19050
 12 C     0.12573    1.23178    0.44127
 13 C    -0.34893    0.33271    0.34420
 14 C    -0.19344   -0.08480    0.15658
 15 C    -0.12955    0.12878   -0.06347
 16 C     0.52308   -0.35074    0.01855
 17 C     0.30801    0.15864   -0.11478
 18 C    -0.07487    0.01774    0.02810
 19 C    -0.03520    0.04853    0.00704
 20 C     0.17743    0.56151    0.05353
 21 C    -0.31129    0.13949   -0.14648
 22 C     0.07461    0.21816   -0.01679
 23 C    -0.28090   -0.13034    0.10196

System changes: positions 

Initializing position-dependent things.

Density initialized from wave functions
           .--------------------------------------.  
          /|                                      |  
         / |                                      |  
        /  |                                      |  
       /   |                                      |  
      /    |                                      |  
     /     |                                      |  
    /      |                                      |  
   /       |      C   C  C                        |  
  /        |    C          C                      |  
 *         |  C             C                     |  
 |         | C        C  C     C                  |  
 |         .-C-C---C-----C-----C------------------.  
 |        /          C      C                    /   
 |       /     C C  C     C                     /    
 |      /              C                       /     
 |     /                                      /      
 |    /                                      /       
 |   /                                      /        
 |  /                                      /         
 | /                                      /          
 |/                                      /           
 *--------------------------------------*            

Positions:
[...]

Fermi level: -4.39603

 Band  Eigenvalues  Occupancy
    0    -22.52155    2.00000
    1    -21.31018    2.00000
    2    -20.83290    2.00000
    3    -20.54435    2.00000
    4    -20.09881    2.00000
    5    -20.04050    2.00000
    6    -19.35735    2.00000
    7    -19.33455    2.00000
    8    -18.30767    2.00000
    9    -18.07011    2.00000
   10    -17.42573    2.00000
   11    -17.09732    2.00000
   12    -16.39858    2.00000
   13    -16.23238    2.00000
   14    -15.36992    2.00000
   15    -15.10113    2.00000
   16    -14.43292    2.00000
   17    -13.54706    2.00000
   18    -13.29339    2.00000
   19    -13.27544    2.00000
   20    -12.86725    2.00000
   21    -12.43513    2.00000
   22    -12.00324    2.00000
   23    -11.72290    2.00000
   24    -11.18492    2.00000
   25    -10.42049    2.00000
   26    -10.22865    2.00000
   27     -9.40775    2.00000
   28     -9.39931    2.00000
   29     -9.24416    2.00000
   30     -9.24132    2.00000
   31     -9.18238    2.00000
   32     -8.59089    2.00000
   33     -8.43033    2.00000
   34     -8.31953    2.00000
   35     -7.76290    2.00000
   36     -7.24716    2.00000
   37     -7.22512    2.00000
   38     -7.15770    2.00000
   39     -6.55446    2.00000
   40     -6.36017    2.00000
   41     -6.21565    2.00000
   42     -5.88230    2.00000
   43     -5.77331    2.00000
   44     -5.61399    1.99999
   45     -5.34615    1.99985
   46     -4.71269    1.91912
   47     -4.57015    1.70169
   48     -4.25081    0.37933
   49     -3.24390    0.00002
   50     -3.11707    0.00001
   51     -2.83218    0.00000
   52     -2.73135    0.00000
   53     -2.47172    0.00000
   54     -1.99296    0.00000
   55     -1.50624    0.00000
   56     -0.94706    0.00000
   57     -0.79669    0.00000
   58      0.21241    0.00000
   59      0.61546    0.00000
   60      0.64618    0.00000
   61      0.85919    0.00000
   62      1.38237    0.00000
   63      1.42582    0.00000
   64      3.80409    0.00000
   65      3.89145    0.00000
   66      4.93820    0.00000
   67      5.01821    0.00000
   68      5.29256    0.00000
   69      5.50266    0.00000
   70      5.69153    0.00000
   71      5.95776    0.00000
   72      6.00198    0.00000
   73      6.13544    0.00000
   74      6.24404    0.00000
   75      6.88934    0.00000
   76      7.27365    0.00000
   77      7.83020    0.00000
   78      7.96038    0.00000
   79      8.18223    0.00000
   80      8.35484    0.00000
   81      8.68295    0.00000
   82      8.87702    0.00000
   83      9.18437    0.00000
   84      9.24714    0.00000
   85      9.31524    0.00000
   86      9.37558    0.00000
   87      9.52826    0.00000
   88      9.72674    0.00000
   89      9.78357    0.00000
   90      9.89389    0.00000
   91      9.95815    0.00000
   92     10.00863    0.00000
   93     10.06724    0.00000
   94     10.28260    0.00000
   95     10.32971    0.00000
   96     10.37640    0.00000
   97     10.45243    0.00000


Forces in eV/Ang:
  0 C    -0.01736    0.04533   -0.03080
  1 C    -0.00478   -0.02784    0.04898
  2 C    -0.05406   -0.00109    0.02148
  3 C    -0.09299   -0.00478    0.00167
  4 C    -0.00604    0.07062   -0.02871
  5 C     0.00504    0.07118    0.02862
  6 C    -0.02141    0.00572   -0.00353
  7 C    -0.00518    0.00627    0.04021
  8 C     0.03801    0.04749    0.00831
  9 C     0.00446    0.03439    0.02520
 10 C     0.03889    0.02507   -0.01833
 11 C     0.05471   -0.02621    0.01803
 12 C    -0.09083    0.05927    0.02202
 13 C    -0.01374   -0.02116   -0.02361
 14 C    -0.06297   -0.10283   -0.00438
 15 C     0.00608    0.02951   -0.02183
 16 C     0.00675   -0.04777    0.03177
 17 C     0.00895    0.01653    0.00221
 18 C     0.00182   -0.06575    0.06072
 19 C     0.03157   -0.07550   -0.00397
 20 C    -0.01761    0.04204   -0.04465
 21 C     0.05077    0.00088   -0.01157
 22 C     0.01134   -0.11700   -0.09185
 23 C     0.07097    0.00570   -0.07239

System changes: positions 

Initializing position-dependent things.

Density initialized from wave functions
           .--------------------------------------.  
          /|                                      |  
         / |                                      |  
        /  |                                      |  
       /   |                                      |  
      /    |                                      |  
     /     |                                      |  
    /      |                                      |  
   /       |      C   C  C                        |  
  /        |    C          CC                     |  
 *         |  C             C                     |  
 |         | C        C  C     C                  |  
 |         .-C--C--C-----C-----C------------------.  
 |        /          C      C                    /   
 |       /     C C  C     C                     /    
 |      /              C                       /     
 |     /                                      /      
 |    /                                      /       
 |   /                                      /        
 |  /                                      /         
 | /                                      /          
 |/                                      /           
 *--------------------------------------*            

Positions:
   0 C     10.565476    6.111503    5.168642
   1 C      9.359232    3.723388    4.735843
   2 C      9.575272    5.094642    5.023914
   3 C      8.259322    3.095667    4.635932
   4 C      8.275462    5.705677    5.193935
   5 C      6.938380    3.593549    4.783723
   6 C      7.042297    5.004664    5.082113
   7 C      3.490479    6.353688    5.354783
   8 C      4.598258    4.057313    4.911734
   9 C      4.548781    5.464414    5.188402
  10 C      5.552098    3.253994    4.724781
  11 C      5.938941    5.951277    5.279189
  12 C     10.334136    7.334194    5.369217
  13 C      9.115995    8.082204    5.490089
  14 C      7.994437    7.124011    5.438839
  15 C      7.924863   10.333401    5.576614
  16 C      6.842744   11.093377    5.591479
  17 C      8.842392    9.445305    5.571596
  18 C      5.566290   11.293259    5.598431
  19 C      4.275774   11.070320    5.678886
  20 C      3.434500   10.064659    5.673312
  21 C      3.113571    7.561481    5.514132
  22 C      6.579179    7.193917    5.544898
  23 C      2.945805    8.868556    5.660700

Unit cell:
           periodic     x           y           z      points  spacing
  1. axis:    yes   16.000000    0.000000    0.000000    80     0.2000
  2. axis:    yes    0.000000   16.000000    0.000000    80     0.2000
  3. axis:    yes    0.000000    0.000000   10.000000    48     0.2083

Effective grid spacing dv^(1/3) = 0.2027

                     log10-error:    total        iterations:
           time      wfs    density  energy       fermi  poisson
iter:   1  12:23:15          +inf  -184.027972    3      5      
iter:   2  12:23:16         -2.76  -184.025782    3      1      
iter:   3  12:23:16         -3.13  -184.025414    2      1      
iter:   4  12:23:17         -3.20  -184.022535    2      1      
iter:   5  12:23:17         -3.20  -184.023267    3      1      
iter:   6  12:23:18         -2.70  -184.024386    3      1      
iter:   7  12:23:18         -3.15  -184.026570    3      1      
iter:   8  12:23:19         -2.84  -184.024713    3      1      
iter:   9  12:23:19         -3.21  -184.025700    2      1      
iter:  10  12:23:20         -3.59  -184.026038    3      1      
iter:  11  12:23:20         -3.33  -184.025452    2      1      
iter:  12  12:23:21         -4.52  -184.025986    2      1      

Converged after 12 iterations.

Dipole moment: (-0.073610, 0.113583, -0.025079) |e|*Ang

Energy contributions relative to reference atoms: (reference = -24663.074771)

Kinetic:       +107.507075
Potential:     -117.654043
External:        +0.000000
XC:            -176.848041
Entropy (-ST):   -0.213836
Local:           +3.075941
--------------------------
Free energy:   -184.132904
Extrapolated:  -184.025986

Fermi level: -4.38817

 Band  Eigenvalues  Occupancy
    0    -22.53575    2.00000
    1    -21.31757    2.00000
    2    -20.83799    2.00000
    3    -20.54994    2.00000
    4    -20.10315    2.00000
    5    -20.05162    2.00000
    6    -19.35908    2.00000
    7    -19.33844    2.00000
    8    -18.30902    2.00000
    9    -18.07519    2.00000
   10    -17.42795    2.00000
   11    -17.09968    2.00000
   12    -16.40000    2.00000
   13    -16.24113    2.00000
   14    -15.36698    2.00000
   15    -15.10905    2.00000
   16    -14.43676    2.00000
   17    -13.55173    2.00000
   18    -13.29743    2.00000
   19    -13.28105    2.00000
   20    -12.87050    2.00000
   21    -12.43641    2.00000
   22    -12.00662    2.00000
   23    -11.72630    2.00000
   24    -11.18258    2.00000
   25    -10.42954    2.00000
   26    -10.23623    2.00000
   27     -9.41281    2.00000
   28     -9.39977    2.00000
   29     -9.24953    2.00000
   30     -9.24546    2.00000
   31     -9.18717    2.00000
   32     -8.59258    2.00000
   33     -8.43416    2.00000
   34     -8.32486    2.00000
   35     -7.76926    2.00000
   36     -7.24901    2.00000
   37     -7.22528    2.00000
   38     -7.15918    2.00000
   39     -6.55184    2.00000
   40     -6.35753    2.00000
   41     -6.21361    2.00000
   42     -5.88110    2.00000
   43     -5.77599    2.00000
   44     -5.61540    1.99999
   45     -5.34725    1.99986
   46     -4.70927    1.92249
   47     -4.56237    1.70186
   48     -4.24179    0.37577
   49     -3.24091    0.00002
   50     -3.11507    0.00001
   51     -2.83183    0.00000
   52     -2.72359    0.00000
   53     -2.46998    0.00000
   54     -1.99561    0.00000
   55     -1.49810    0.00000
   56     -0.92972    0.00000
   57     -0.79534    0.00000
   58      0.21257    0.00000
   59      0.61721    0.00000
   60      0.65382    0.00000
   61      0.87220    0.00000
   62      1.39170    0.00000
   63      1.43067    0.00000
   64      3.81067    0.00000
   65      3.90570    0.00000
   66      4.96427    0.00000
   67      5.04051    0.00000
   68      5.30863    0.00000
   69      5.51637    0.00000
   70      5.71170    0.00000
   71      5.96208    0.00000
   72      6.04730    0.00000
   73      6.15043    0.00000
   74      6.26332    0.00000
   75      6.90144    0.00000
   76      7.29108    0.00000
   77      7.84808    0.00000
   78      7.98553    0.00000
   79      8.18889    0.00000
   80      8.36227    0.00000
   81      8.69393    0.00000
   82      8.88456    0.00000
   83      9.19425    0.00000
   84      9.24625    0.00000
   85      9.32613    0.00000
   86      9.37755    0.00000
   87      9.54098    0.00000
   88      9.72686    0.00000
   89      9.78278    0.00000
   90      9.89665    0.00000
   91      9.95835    0.00000
   92     10.00876    0.00000
   93     10.07432    0.00000
   94     10.28293    0.00000
   95     10.33931    0.00000
   96     10.38503    0.00000
   97     10.46645    0.00000


Forces in eV/Ang:
  0 C    -0.00112   -0.00408   -0.02747
  1 C    -0.00695   -0.01572    0.03151
  2 C    -0.02587    0.00776    0.01249
  3 C    -0.00963    0.00663    0.00944
  4 C    -0.02111    0.01789   -0.00851
  5 C    -0.01498    0.00714    0.01433
  6 C    -0.00873    0.01658    0.00356
  7 C     0.01981   -0.03332    0.00823
  8 C    -0.00639    0.01408   -0.01207
  9 C     0.00891    0.03339    0.03894
 10 C     0.00158    0.02416    0.02199
 11 C     0.01527    0.01547    0.00337
 12 C    -0.05265    0.01699    0.00133
 13 C    -0.03810   -0.00347   -0.01484
 14 C    -0.04106    0.00917   -0.00408
 15 C     0.01219    0.00979   -0.00506
 16 C     0.01130   -0.02133    0.03815
 17 C    -0.00295   -0.02219   -0.01265
 18 C    -0.02481   -0.04657    0.06574
 19 C     0.05786   -0.02555   -0.00320
 20 C    -0.03366    0.01180   -0.03556
 21 C     0.03514    0.02697   -0.00281
 22 C    -0.10886    0.13744   -0.03411
 23 C     0.06219   -0.01210   -0.06755

System changes: positions 

Initializing position-dependent things.

Density initialized from wave functions
           .--------------------------------------.  
          /|                                      |  
         / |                                      |  
        /  |                                      |  
       /   |                                      |  
      /    |                                      |  
     /     |                                      |  
    /      |                                      |  
   /       |      C   C  C                        |  
  /        |    C          CC                     |  
 *         |  C             C                     |  
 |         | C        C  C     C                  |  
 |         .-C--C--C-----C-----C------------------.  
 |        /          C      C                    /   
 |       /     C C  C     C                     /    
 |      /              C                       /     
 |     /                                      /      
 |    /                                      /       
 |   /                                      /        
 |  /                                      /         
 | /                                      /          
 |/                                      /           
 *--------------------------------------*            

Positions:
   0 C     10.565971    6.110935    5.167051
   1 C      9.359040    3.723080    4.735507
   2 C      9.574792    5.094685    5.022366
   3 C      8.259143    3.095028    4.637605
   4 C      8.274744    5.705580    5.191601
   5 C      6.938036    3.592300    4.785416
   6 C      7.041852    5.004215    5.080241
   7 C      3.491393    6.353783    5.352467
   8 C      4.597230    4.055962    4.914909
   9 C      4.548772    5.463708    5.189065
  10 C      5.551765    3.253244    4.728928
  11 C      5.938666    5.950803    5.277483
  12 C     10.333290    7.333462    5.368267
  13 C      9.115329    8.082236    5.488923
  14 C      7.993075    7.124482    5.435624
  15 C      7.924620   10.333545    5.579169
  16 C      6.842187   11.093038    5.596409
  17 C      8.842643    9.445557    5.572529
  18 C      5.565836   11.294320    5.602017
  19 C      4.275468   11.072351    5.679035
  20 C      3.435557   10.065345    5.671771
  21 C      3.114870    7.561841    5.510865
  22 C      6.577481    7.194628    5.540820
  23 C      2.948453    8.868850    5.658151

Unit cell:
           periodic     x           y           z      points  spacing
  1. axis:    yes   16.000000    0.000000    0.000000    80     0.2000
  2. axis:    yes    0.000000   16.000000    0.000000    80     0.2000
  3. axis:    yes    0.000000    0.000000   10.000000    48     0.2083

Effective grid spacing dv^(1/3) = 0.2027

                     log10-error:    total        iterations:
           time      wfs    density  energy       fermi  poisson
iter:   1  12:23:23          +inf  -184.051062    3      4      
iter:   2  12:23:23         -2.23  -184.027591    3      2      
iter:   3  12:23:24         -2.92  -184.027053    3      1      
iter:   4  12:23:24         -3.59  -184.027018    2      1      
iter:   5  12:23:25         -3.41  -184.026856    2      1      
iter:   6  12:23:25         -3.75  -184.026956    2      1      
iter:   7  12:23:26         -3.97  -184.026904    2      1      
iter:   8  12:23:26         -3.80  -184.026983    2      1      
iter:   9  12:23:27         -3.64  -184.026898    2      1      
iter:  10  12:23:27         -4.28  -184.026897    2      1      

Converged after 10 iterations.

Dipole moment: (-0.074459, 0.113444, -0.024320) |e|*Ang

Energy contributions relative to reference atoms: (reference = -24663.074771)

Kinetic:       +107.504260
Potential:     -117.644692
External:        +0.000000
XC:            -176.841685
Entropy (-ST):   -0.213836
Local:           +3.062137
--------------------------
Free energy:   -184.133815
Extrapolated:  -184.026897

Fermi level: -4.39097

 Band  Eigenvalues  Occupancy
    0    -22.53546    2.00000
    1    -21.31706    2.00000
    2    -20.83847    2.00000
    3    -20.55118    2.00000
    4    -20.10290    2.00000
    5    -20.05137    2.00000
    6    -19.35920    2.00000
    7    -19.33888    2.00000
    8    -18.30964    2.00000
    9    -18.07469    2.00000
   10    -17.42759    2.00000
   11    -17.09986    2.00000
   12    -16.40121    2.00000
   13    -16.24115    2.00000
   14    -15.36792    2.00000
   15    -15.10810    2.00000
   16    -14.43783    2.00000
   17    -13.55189    2.00000
   18    -13.29698    2.00000
   19    -13.28229    2.00000
   20    -12.87070    2.00000
   21    -12.43691    2.00000
   22    -12.00672    2.00000
   23    -11.72592    2.00000
   24    -11.18345    2.00000
   25    -10.42721    2.00000
   26    -10.23633    2.00000
   27     -9.41250    2.00000
   28     -9.40156    2.00000
   29     -9.25026    2.00000
   30     -9.24578    2.00000
   31     -9.18809    2.00000
   32     -8.59327    2.00000
   33     -8.43395    2.00000
   34     -8.32416    2.00000
   35     -7.76945    2.00000
   36     -7.24950    2.00000
   37     -7.22592    2.00000
   38     -7.15902    2.00000
   39     -6.55173    2.00000
   40     -6.35727    2.00000
   41     -6.21333    2.00000
   42     -5.88158    2.00000
   43     -5.77523    2.00000
   44     -5.61503    1.99999
   45     -5.34731    1.99986
   46     -4.71072    1.92148
   47     -4.56575    1.70335
   48     -4.24444    0.37530
   49     -3.24091    0.00002
   50     -3.11508    0.00001
   51     -2.83218    0.00000
   52     -2.72486    0.00000
   53     -2.47029    0.00000
   54     -1.99519    0.00000
   55     -1.49848    0.00000
   56     -0.93497    0.00000
   57     -0.79465    0.00000
   58      0.21799    0.00000
   59      0.62107    0.00000
   60      0.65347    0.00000
   61      0.87164    0.00000
   62      1.39088    0.00000
   63      1.43039    0.00000
   64      3.81188    0.00000
   65      3.90552    0.00000
   66      4.96447    0.00000
   67      5.04014    0.00000
   68      5.30738    0.00000
   69      5.52041    0.00000
   70      5.71055    0.00000
   71      5.96456    0.00000
   72      6.03991    0.00000
   73      6.14951    0.00000
   74      6.26081    0.00000
   75      6.89963    0.00000
   76      7.29033    0.00000
   77      7.84855    0.00000
   78      7.97823    0.00000
   79      8.18842    0.00000
   80      8.36309    0.00000
   81      8.69262    0.00000
   82      8.88547    0.00000
   83      9.19000    0.00000
   84      9.24555    0.00000
   85      9.32190    0.00000
   86      9.37896    0.00000
   87      9.53841    0.00000
   88      9.72670    0.00000
   89      9.78296    0.00000
   90      9.90015    0.00000
   91      9.96199    0.00000
   92     10.00920    0.00000
   93     10.07502    0.00000
   94     10.28274    0.00000
   95     10.34047    0.00000
   96     10.38498    0.00000
   97     10.46479    0.00000


Forces in eV/Ang:
  0 C    -0.01111    0.01322   -0.02204
  1 C    -0.00810   -0.01906    0.03246
  2 C    -0.02266    0.00430    0.01221
  3 C    -0.01427   -0.00082    0.00901
  4 C    -0.01090    0.02250   -0.02050
  5 C    -0.01225    0.01529    0.00750
  6 C    -0.00100    0.00675    0.00487
  7 C    -0.01363   -0.02632    0.01509
  8 C    -0.00380    0.01699   -0.00405
  9 C     0.00970    0.01651    0.02728
 10 C    -0.00278    0.01237    0.00148
 11 C     0.01267   -0.00249    0.00396
 12 C    -0.05580    0.02136   -0.00245
 13 C    -0.03361   -0.00451   -0.02144
 14 C    -0.01847   -0.01132   -0.00618
 15 C     0.01647    0.00590   -0.00577
 16 C     0.01608   -0.02479    0.03493
 17 C     0.00855   -0.01014   -0.00851
 18 C     0.00899   -0.04350    0.05820
 19 C     0.02180   -0.01636    0.00179
 20 C    -0.03660    0.01843   -0.03355
 21 C     0.04339    0.01070   -0.00834
 22 C    -0.00427   -0.00456   -0.06648
 23 C     0.04649   -0.00717   -0.06738

