
  ___ ___ ___ _ _ _  
 |   |   |_  | | | | 
 | | | | | . | | | | 
 |__ |  _|___|_____|  1.3.0b1
 |___|_|             

User:   esb@s65n22.grendel.cscaa.dk
Date:   Thu Nov  9 10:52:51 2017
Arch:   x86_64
Pid:    68693
Python: 2.7.13
gpaw:   /home/esb/DFT/gpaw_git/gpaw
_gpaw:  /home/esb/DFT/gpaw_git/build/bin.linux-x86_64-2.7/gpaw-python
ase:    /home/esb/DFT/ase_git/ase (version 3.15.0b1)
numpy:  /comm/swstack/core/python/2.7.13/lib/python2.7/site-packages/numpy (version 1.13.3)
scipy:  /comm/swstack/core/python/2.7.13/lib/python2.7/site-packages/scipy (version 0.19.1)
units:  Angstrom and eV
cores:  16
Extra parameters: {'blacs': True}

Input parameters:
  basis: dzp
  gpts: [80 80 48]
  kpts: [1 1 1]
  maxiter: 99
  mixer: {backend: pulay,
          beta: 0.05,
          method: separate,
          nmaxold: 5,
          weight: 75}
  mode: lcao
  nbands: -50
  occupations: {name: fermi-dirac,
                width: 0.1}
  poissonsolver: {eps: 1e-07,
                  name: fd,
                  nn: 3,
                  relax: GS}
  xc: PBE

System changes: positions, numbers, cell, pbc, initial_charges, initial_magmoms 

Initialize ...

C-setup:
  name: Carbon
  id: 4aa54d4b901d75f77cc0ea3eec22967b
  Z: 6
  valence: 4
  core: 2
  charge: 0.0
  file: /home/esb/DFT/gpaw-setups-0.8.7929/C.PBE.gz
  cutoffs: 0.64(comp), 1.14(filt), 1.14(core), lmax=2
  valence states:
                energy  radius
    2s(2.00)   -13.751   0.635
    2p(2.00)    -5.284   0.635
    *s          13.461   0.635
    *p          21.927   0.635
    *d           0.000   0.635

  LCAO basis set for C:
    Name: dzp
    File: /home/esb/DFT/gpaw-setups-0.8.7929/C.dzp.basis.gz
    Number of radial functions: 5
    Number of spherical harmonics: 13
      l=0, rc=5.5469 Bohr: 2s-sz confined orbital
      l=1, rc=6.6719 Bohr: 2p-sz confined orbital
      l=0, rc=3.0312 Bohr: 2s-dz split-valence wave
      l=1, rc=3.7500 Bohr: 2p-dz split-valence wave
      l=2, rc=6.6719 Bohr: d-type Gaussian polarization

Reference energy: -24663.074771

Spin-paired calculation

Occupation numbers:
  Fermi-Dirac: width=0.1000 eV

Convergence criteria:
  Maximum total energy change: 0.0005 eV / electron
  Maximum integral of absolute density change: 0.0001 electrons
  Maximum integral of absolute eigenstate change: 4e-08 eV^2
  Maximum number of iterations: 99

Symmetries present (total): 1

  ( 1  0  0)
  ( 0  1  0)
  ( 0  0  1)

1 k-point (Gamma)
1 k-point in the irreducible part of the Brillouin zone
       k-points in crystal coordinates                weights
   0:     0.00000000    0.00000000    0.00000000          1/1

Wave functions: LCAO
  Diagonalizer: Serial LAPACK
  Atomic Correction: dense with blas
  Datatype: float
  Eigensolver: None 

LCAO using direct dense diagonalizer 

Densities:
  Coarse grid: 80*80*48 grid
  Fine grid: 160*160*96 grid
  Total Charge: 0.000000 

Density mixing:
  Method: separate
  Backend: pulay
  Linear mixing parameter: 0.05
  Mixing with 5 old densities
  Damping of long wave oscillations: 75 

Hamiltonian:
  XC and Coulomb potentials evaluated on a 160*160*96 grid
  Using the PBE Exchange-Correlation functional
  Interpolation: tri-quintic (5. degree polynomial)
  Poisson solver: Gauss-Seidel solver with 6 multi-grid levels
    Coarsest grid: 5 x 5 x 3 points
    Stencil: 6*3+1=19 point O(h^6) finite-difference Laplacian
    Max iterations: 1000
    Tolerance: 1.000000e-07 

Memory estimate:
  Process memory now: 77.56 MiB
  Calculator: 15.59 MiB
    Density: 6.13 MiB
      Arrays: 3.81 MiB
      Localized functions: 0.86 MiB
      Mixer: 1.46 MiB
    Hamiltonian: 5.40 MiB
      Arrays: 2.49 MiB
      XC: 0.00 MiB
      Poisson: 2.85 MiB
      vbar: 0.07 MiB
    Wavefunctions: 4.05 MiB
      C [qnM]: 0.23 MiB
      S, T [2 x qmm]: 1.49 MiB
      P [aqMi]: 0.01 MiB
      TCI: 0.00 MiB
      BasisFunctions: 2.33 MiB
      Eigensolver: 0.00 MiB

Total number of cores used: 16
Domain decomposition: 2 x 4 x 2

Number of atoms: 24
Number of atomic orbitals: 312
Number of bands in calculation: 98
Bands to converge: occupied states only
Number of valence electrons: 96

... initialized

Initializing position-dependent things.

Density initialized from atomic densities
           .--------------------------------------.  
          /|                                      |  
         / |                                      |  
        /  |                                      |  
       /   |                                      |  
      /    |                                      |  
     /     |                                      |  
    /      |                                      |  
   /       |                                      |  
  /        |           C  C                       |  
 *         |  C C   C      C   C  C               |  
 |         | C       C   C       C                |  
 |         .-------------C-------C----------------.  
 |        /  C       C     C   C                 /   
 |       /    C     C     C       C             /    
 |      /        C     C                       /     
 |     /                                      /      
 |    /                                      /       
 |   /                                      /        
 |  /                                      /         
 | /                                      /          
 |/                                      /           
 *--------------------------------------*            

Positions:
   0 C      6.375922    9.789677    5.940044
   1 C      7.622854    9.807095    5.802140
   2 C      4.071908    8.709465    5.847802
   3 C      5.495636    8.689150    5.818119
   4 C     10.978126    9.956465    4.854680
   5 C      3.537909    7.528178    5.687544
   6 C      8.496992    8.748068    5.468537
   7 C      9.873213    9.080310    5.151590
   8 C      6.313855    7.469667    5.597377
   9 C      3.259175    6.251518    5.560335
  10 C      7.778894    7.476540    5.450777
  11 C     11.113106    8.505769    4.934269
  12 C      7.944359    3.943191    3.818078
  13 C      9.027638    4.570642    3.901584
  14 C      5.419439    3.686428    4.024705
  15 C      6.659060    4.352384    4.244102
  16 C     11.894988    6.538782    3.614242
  17 C      4.396818    4.326520    4.525511
  18 C      9.271223    5.862055    4.421067
  19 C     10.579694    6.446839    4.195780
  20 C      6.800150    5.656960    4.939460
  21 C      3.561773    5.123557    5.150945
  22 C      8.069347    6.393851    5.057818
  23 C     11.380066    7.510652    4.573094

Unit cell:
           periodic     x           y           z      points  spacing
  1. axis:    yes   16.000000    0.000000    0.000000    80     0.2000
  2. axis:    yes    0.000000   16.000000    0.000000    80     0.2000
  3. axis:    yes    0.000000    0.000000   10.000000    48     0.2083

Effective grid spacing dv^(1/3) = 0.2027

                     log10-error:    total        iterations:
           time      wfs    density  energy       fermi  poisson
iter:   1  10:52:53          +inf  -178.564070    2      6      
iter:   2  10:52:54         -0.88  -177.340350    33     3      
iter:   3  10:52:54         -0.92  -174.729432    34     4      
iter:   4  10:52:55         -1.08  -173.726845    4      2      
iter:   5  10:52:55         -1.17  -173.674808    30     4      
iter:   6  10:52:56         -1.36  -173.288283    32     2      
iter:   7  10:52:56         -1.44  -173.331466    33     3      
iter:   8  10:52:57         -1.50  -173.126712    4      3      
iter:   9  10:52:58         -1.74  -173.035143    3      2      
iter:  10  10:52:58         -1.82  -173.001217    3      2      
iter:  11  10:52:59         -1.90  -172.974404    3      2      
iter:  12  10:52:59         -2.00  -172.966984    3      3      
iter:  13  10:53:00         -2.30  -172.951054    3      2      
iter:  14  10:53:00         -2.58  -172.946572    3      2      
iter:  15  10:53:01         -2.77  -172.952872    2      1      
iter:  16  10:53:01         -2.84  -172.945456    2      2      
iter:  17  10:53:02         -3.10  -172.947777    2      1      
iter:  18  10:53:02         -3.18  -172.954823    3      1      
iter:  19  10:53:03         -3.30  -172.946760    2      1      
iter:  20  10:53:03         -3.33  -172.937683    3      1      
iter:  21  10:53:04         -3.63  -172.947227    2      1      
iter:  22  10:53:04         -3.89  -172.943804    2      1      
iter:  23  10:53:05         -4.01  -172.943822    2      1      

Converged after 23 iterations.

Dipole moment: (-0.606365, -0.249110, 0.283171) |e|*Ang

Energy contributions relative to reference atoms: (reference = -24663.074771)

Kinetic:       +167.863646
Potential:     -159.177723
External:        +0.000000
XC:            -184.501981
Entropy (-ST):   -0.349483
Local:           +3.046977
--------------------------
Free energy:   -173.118563
Extrapolated:  -172.943822

Fermi level: -4.21850

 Band  Eigenvalues  Occupancy
    0    -23.79128    2.00000
    1    -22.91761    2.00000
    2    -22.18760    2.00000
    3    -21.41813    2.00000
    4    -21.18441    2.00000
    5    -20.44482    2.00000
    6    -20.15239    2.00000
    7    -19.67095    2.00000
    8    -18.60357    2.00000
    9    -18.50057    2.00000
   10    -18.13188    2.00000
   11    -17.27967    2.00000
   12    -16.48359    2.00000
   13    -16.33175    2.00000
   14    -15.59432    2.00000
   15    -14.95223    2.00000
   16    -14.45563    2.00000
   17    -14.03291    2.00000
   18    -13.17867    2.00000
   19    -12.82623    2.00000
   20    -12.53427    2.00000
   21    -11.86741    2.00000
   22    -11.54808    2.00000
   23    -11.37473    2.00000
   24    -11.13292    2.00000
   25    -10.43599    2.00000
   26    -10.24652    2.00000
   27    -10.15476    2.00000
   28     -9.54891    2.00000
   29     -9.50115    2.00000
   30     -9.31031    2.00000
   31     -9.16948    2.00000
   32     -8.58961    2.00000
   33     -8.55556    2.00000
   34     -8.10962    2.00000
   35     -8.08204    2.00000
   36     -7.78687    2.00000
   37     -7.52966    2.00000
   38     -7.28656    2.00000
   39     -7.17294    2.00000
   40     -6.46517    2.00000
   41     -6.30902    2.00000
   42     -6.00854    2.00000
   43     -5.99524    2.00000
   44     -5.97520    2.00000
   45     -5.50746    1.99999
   46     -5.04292    1.99947
   47     -4.20023    0.90891
   48     -4.18781    0.84777
   49     -4.02055    0.24274
   50     -3.46648    0.00108
   51     -3.09150    0.00003
   52     -2.86482    0.00000
   53     -2.75833    0.00000
   54     -2.25428    0.00000
   55     -1.46108    0.00000
   56     -1.29284    0.00000
   57     -1.08990    0.00000
   58     -0.31705    0.00000
   59      0.07748    0.00000
   60      0.58241    0.00000
   61      1.16014    0.00000
   62      1.37466    0.00000
   63      2.19074    0.00000
   64      2.22830    0.00000
   65      3.36484    0.00000
   66      3.65362    0.00000
   67      3.76191    0.00000
   68      3.92477    0.00000
   69      4.33868    0.00000
   70      5.25944    0.00000
   71      5.77359    0.00000
   72      6.32398    0.00000
   73      6.41034    0.00000
   74      6.79546    0.00000
   75      7.05124    0.00000
   76      7.36106    0.00000
   77      7.62280    0.00000
   78      7.63712    0.00000
   79      7.96276    0.00000
   80      8.08333    0.00000
   81      8.54888    0.00000
   82      8.63449    0.00000
   83      8.88397    0.00000
   84      8.88707    0.00000
   85      8.95150    0.00000
   86      9.12367    0.00000
   87      9.32032    0.00000
   88      9.34330    0.00000
   89      9.40891    0.00000
   90      9.76264    0.00000
   91      9.83063    0.00000
   92      9.89427    0.00000
   93     10.00783    0.00000
   94     10.05028    0.00000
   95     10.24301    0.00000
   96     10.32080    0.00000
   97     10.49065    0.00000


Forces in eV/Ang:
  0 C     0.27131   -0.08639    0.11514
  1 C    -0.26319   -0.04792   -0.03729
  2 C    -0.47725   -2.31722   -0.22748
  3 C     0.46499   -0.47264   -0.18065
  4 C    -1.30286   -0.57131    0.76760
  5 C    -0.52233    1.67573    0.62910
  6 C     1.41928    0.93857   -0.00362
  7 C    -2.67289    2.21042    1.13840
  8 C     1.23521   -0.09163   -0.31240
  9 C    -1.28474    2.81179    0.82642
 10 C    -5.32681   18.28224    5.94894
 11 C    -4.64563   26.40818    9.03658
 12 C     0.21931    0.13115    0.18068
 13 C    -0.26037   -0.08048   -0.04162
 14 C    -1.49664    1.45365    1.13008
 15 C     0.10409    0.64299    0.21437
 16 C    -1.25693   -0.67777    0.71019
 17 C     0.40119   -1.72689   -0.58157
 18 C     1.67639    0.00408   -0.33310
 19 C    -1.21063   -3.31914   -0.90348
 20 C     1.01096    0.80934   -0.00397
 21 C     0.28066   -2.91103   -1.22996
 22 C     4.44249  -18.04166   -7.23226
 23 C     9.15695  -25.02469   -9.64275

System changes: positions 

Initializing position-dependent things.

Density initialized from wave functions
           .--------------------------------------.  
          /|                                      |  
         / |                                      |  
        /  |                                      |  
       /   |                                      |  
      /    |                                      |  
     /     |                                      |  
    /      |                                      |  
   /       |                                      |  
  /        |           C  C                       |  
 *         |  C C   C      C   C  C               |  
 |         | C       C   C       C                |  
 |         .-------------C-------C----------------.  
 |        /  C       C     C   C                 /   
 |       /    C     C     C       C             /    
 |      /        C     C                       /     
 |     /                                      /      
 |    /                                      /       
 |   /                                      /        
 |  /                                      /         
 | /                                      /          
 |/                                      /           
 *--------------------------------------*            

Positions:
   0 C      6.376305    9.789555    5.940206
   1 C      7.622483    9.807027    5.802087
   2 C      4.071235    8.706194    5.847481
   3 C      5.496292    8.688483    5.817864
   4 C     10.976287    9.955659    4.855764
   5 C      3.537172    7.530543    5.688432
   6 C      8.498995    8.749393    5.468532
   7 C      9.869440    9.083430    5.153197
   8 C      6.315598    7.469538    5.596936
   9 C      3.257362    6.255487    5.561501
  10 C      7.771375    7.502346    5.459174
  11 C     11.106548    8.543045    4.947024
  12 C      7.944669    3.943376    3.818333
  13 C      9.027270    4.570528    3.901525
  14 C      5.417326    3.688480    4.026300
  15 C      6.659207    4.353291    4.244404
  16 C     11.893214    6.537826    3.615244
  17 C      4.397384    4.324083    4.524690
  18 C      9.273589    5.862061    4.420596
  19 C     10.577985    6.442154    4.194504
  20 C      6.801577    5.658102    4.939454
  21 C      3.562169    5.119448    5.149209
  22 C      8.075618    6.368385    5.047610
  23 C     11.392991    7.475329    4.559483

Unit cell:
           periodic     x           y           z      points  spacing
  1. axis:    yes   16.000000    0.000000    0.000000    80     0.2000
  2. axis:    yes    0.000000   16.000000    0.000000    80     0.2000
  3. axis:    yes    0.000000    0.000000   10.000000    48     0.2083

Effective grid spacing dv^(1/3) = 0.2027

                     log10-error:    total        iterations:
           time      wfs    density  energy       fermi  poisson
iter:   1  10:53:07          +inf  -175.939549    3      5      
iter:   2  10:53:07         -1.86  -175.887506    3      2      
iter:   3  10:53:08         -1.91  -175.793059    3      3      
iter:   4  10:53:08         -2.19  -175.788410    3      2      
iter:   5  10:53:09         -2.26  -175.765984    3      3      
iter:   6  10:53:09         -2.46  -175.771172    3      2      
iter:   7  10:53:10         -2.75  -175.765301    3      2      
iter:   8  10:53:10         -2.75  -175.767779    3      2      
iter:   9  10:53:11         -3.20  -175.768815    2      1      
iter:  10  10:53:11         -3.28  -175.768539    2      2      
iter:  11  10:53:12         -3.63  -175.768265    1      1      
iter:  12  10:53:12         -3.72  -175.769412    2      1      
iter:  13  10:53:13         -3.99  -175.768261    2      1      
iter:  14  10:53:13         -4.15  -175.768227    2      1      

Converged after 14 iterations.

Dipole moment: (-0.631156, -0.279341, 0.348615) |e|*Ang

Energy contributions relative to reference atoms: (reference = -24663.074771)

Kinetic:       +158.478690
Potential:     -153.219364
External:        +0.000000
XC:            -183.854978
Entropy (-ST):   -0.317677
Local:           +2.986263
--------------------------
Free energy:   -175.927066
Extrapolated:  -175.768227

Fermi level: -4.16919

 Band  Eigenvalues  Occupancy
    0    -23.88790    2.00000
    1    -22.87806    2.00000
    2    -22.50007    2.00000
    3    -21.52222    2.00000
    4    -21.16251    2.00000
    5    -20.39968    2.00000
    6    -20.22537    2.00000
    7    -19.70478    2.00000
    8    -18.68425    2.00000
    9    -18.41964    2.00000
   10    -18.00620    2.00000
   11    -17.35244    2.00000
   12    -16.57468    2.00000
   13    -16.36264    2.00000
   14    -15.52428    2.00000
   15    -15.06583    2.00000
   16    -14.43300    2.00000
   17    -14.12798    2.00000
   18    -13.30008    2.00000
   19    -12.78767    2.00000
   20    -12.60031    2.00000
   21    -11.87342    2.00000
   22    -11.50497    2.00000
   23    -11.41893    2.00000
   24    -11.13505    2.00000
   25    -10.39043    2.00000
   26    -10.21471    2.00000
   27    -10.13503    2.00000
   28     -9.72314    2.00000
   29     -9.48262    2.00000
   30     -9.38262    2.00000
   31     -9.13816    2.00000
   32     -8.71189    2.00000
   33     -8.50431    2.00000
   34     -8.27708    2.00000
   35     -8.07994    2.00000
   36     -7.84152    2.00000
   37     -7.65015    2.00000
   38     -7.31708    2.00000
   39     -7.19933    2.00000
   40     -6.52846    2.00000
   41     -6.32308    2.00000
   42     -6.10520    2.00000
   43     -5.95322    2.00000
   44     -5.72618    2.00000
   45     -5.50846    2.00000
   46     -5.21167    1.99994
   47     -4.22968    1.29359
   48     -4.02539    0.38372
   49     -4.00345    0.32023
   50     -3.49843    0.00244
   51     -3.14574    0.00007
   52     -2.85101    0.00000
   53     -2.59853    0.00000
   54     -2.26370    0.00000
   55     -1.52656    0.00000
   56     -1.24808    0.00000
   57     -1.16772    0.00000
   58     -0.32720    0.00000
   59      0.04360    0.00000
   60      0.51372    0.00000
   61      0.93546    0.00000
   62      1.39748    0.00000
   63      1.81540    0.00000
   64      2.53765    0.00000
   65      3.42229    0.00000
   66      3.71081    0.00000
   67      3.72549    0.00000
   68      4.18934    0.00000
   69      4.27172    0.00000
   70      5.12551    0.00000
   71      5.73456    0.00000
   72      6.42196    0.00000
   73      6.63573    0.00000
   74      6.74716    0.00000
   75      7.04592    0.00000
   76      7.37378    0.00000
   77      7.60321    0.00000
   78      7.68307    0.00000
   79      7.97478    0.00000
   80      8.01693    0.00000
   81      8.53489    0.00000
   82      8.55940    0.00000
   83      8.84528    0.00000
   84      8.90787    0.00000
   85      8.92718    0.00000
   86      9.19589    0.00000
   87      9.27765    0.00000
   88      9.38021    0.00000
   89      9.40390    0.00000
   90      9.74157    0.00000
   91      9.84793    0.00000
   92      9.85376    0.00000
   93      9.89393    0.00000
   94     10.03787    0.00000
   95     10.24007    0.00000
   96     10.34876    0.00000
   97     10.44214    0.00000


Forces in eV/Ang:
  0 C     0.04696   -0.13659    0.15401
  1 C    -0.23253    0.06365   -0.06016
  2 C    -0.18944   -1.78653   -0.17587
  3 C     0.23672   -0.26625   -0.12143
  4 C    -0.41483    0.85540    0.40576
  5 C    -0.63753    1.19243    0.57288
  6 C     1.14338    1.39421    0.08626
  7 C    -2.51513    0.91115    1.27265
  8 C     1.49018   -0.13483   -0.33818
  9 C    -1.12658    2.21085    0.60207
 10 C    -3.96543   12.24276    3.89719
 11 C    -2.48554   15.62235    5.37996
 12 C     0.00076    0.04015    0.20474
 13 C    -0.18582   -0.12606   -0.12016
 14 C    -0.99942    1.20040    0.90061
 15 C     0.01042    0.36834    0.10023
 16 C     0.10133   -1.00657   -0.28862
 17 C     0.07084   -1.42769   -0.35100
 18 C     1.64866   -0.47592   -0.57999
 19 C    -1.62798   -2.47554    0.01329
 20 C     1.21121    0.96998    0.04368
 21 C     0.09863   -2.29925   -1.01174
 22 C     2.61480  -12.21080   -4.97034
 23 C     5.64807  -14.66935   -5.64224

System changes: positions 

Initializing position-dependent things.

Density initialized from wave functions
           .--------------------------------------.  
          /|                                      |  
         / |                                      |  
        /  |                                      |  
       /   |                                      |  
      /    |                                      |  
     /     |                                      |  
    /      |                                      |  
   /       |                                      |  
  /        |           C  C                       |  
 *         |  C C   C      C   C  C               |  
 |         | C       C   C       C                |  
 |         .-------------C-------C----------------.  
 |        /  C       C     C   C                 /   
 |       /    C     C     C       C             /    
 |      /        C     C                       /     
 |     /                                      /      
 |    /                                      /       
 |   /                                      /        
 |  /                                      /         
 | /                                      /          
 |/                                      /           
 *--------------------------------------*            

Positions:
   0 C      6.374735    9.788167    5.941621
   1 C      7.621104    9.808421    5.801470
   2 C      4.072339    8.698106    5.846679
   3 C      5.496025    8.688356    5.817510
   4 C     10.980891    9.973776    4.855556
   5 C      3.531704    7.534848    5.691991
   6 C      8.504712    8.763077    5.469901
   7 C      9.853058    9.078838    5.163301
   8 C      6.328257    7.468222    5.594335
   9 C      3.250765    6.265969    5.563841
  10 C      7.754976    7.537413    5.469242
  11 C     11.107344    8.561697    4.953937
  12 C      7.942822    3.942887    3.819979
  13 C      9.026593    4.569254    3.900013
  14 C      5.414499    3.694790    4.030700
  15 C      6.658487    4.353559    4.244143
  16 C     11.905439    6.527948    3.604746
  17 C      4.395084    4.316560    4.524172
  18 C      9.284969    5.854641    4.414418
  19 C     10.562980    6.431863    4.202367
  20 C      6.811807    5.666297    4.940166
  21 C      3.561321    5.108435    5.143930
  22 C      8.078550    6.331775    5.031763
  23 C     11.403045    7.459743    4.553637

Unit cell:
           periodic     x           y           z      points  spacing
  1. axis:    yes   16.000000    0.000000    0.000000    80     0.2000
  2. axis:    yes    0.000000   16.000000    0.000000    80     0.2000
  3. axis:    yes    0.000000    0.000000   10.000000    48     0.2083

Effective grid spacing dv^(1/3) = 0.2027

                     log10-error:    total        iterations:
           time      wfs    density  energy       fermi  poisson
iter:   1  10:53:15          +inf  -177.720676    4      5      
iter:   2  10:53:16         -1.82  -177.539813    3      2      
iter:   3  10:53:16         -1.94  -177.432110    4      2      
iter:   4  10:53:17         -1.96  -177.452375    3      2      
iter:   5  10:53:17         -2.14  -177.413212    3      2      
iter:   6  10:53:18         -2.38  -177.402303    3      2      
iter:   7  10:53:18         -2.54  -177.403595    3      2      
iter:   8  10:53:19         -2.78  -177.411314    3      2      
iter:   9  10:53:19         -2.72  -177.400602    3      2      
iter:  10  10:53:20         -3.43  -177.400150    2      1      
iter:  11  10:53:20         -3.47  -177.400723    2      1      
iter:  12  10:53:21         -3.69  -177.400533    2      1      
iter:  13  10:53:21         -3.77  -177.399705    2      1      
iter:  14  10:53:22         -3.93  -177.400131    2      1      
iter:  15  10:53:22         -4.03  -177.400500    2      1      

Converged after 15 iterations.

Dipole moment: (-0.675761, -0.303862, 0.384044) |e|*Ang

Energy contributions relative to reference atoms: (reference = -24663.074771)

Kinetic:       +150.042876
Potential:     -147.623366
External:        +0.000000
XC:            -182.667008
Entropy (-ST):   -0.266029
Local:           +2.980013
--------------------------
Free energy:   -177.533514
Extrapolated:  -177.400500

Fermi level: -4.15718

 Band  Eigenvalues  Occupancy
    0    -23.66185    2.00000
    1    -22.81874    2.00000
    2    -22.31867    2.00000
    3    -21.59969    2.00000
    4    -21.13198    2.00000
    5    -20.32099    2.00000
    6    -20.31605    2.00000
    7    -19.77979    2.00000
    8    -18.80105    2.00000
    9    -18.45829    2.00000
   10    -17.70828    2.00000
   11    -17.43315    2.00000
   12    -16.73108    2.00000
   13    -16.39170    2.00000
   14    -15.37916    2.00000
   15    -15.24969    2.00000
   16    -14.41852    2.00000
   17    -14.21224    2.00000
   18    -13.37005    2.00000
   19    -12.77104    2.00000
   20    -12.74526    2.00000
   21    -11.87781    2.00000
   22    -11.49039    2.00000
   23    -11.48733    2.00000
   24    -11.02645    2.00000
   25    -10.38161    2.00000
   26    -10.30313    2.00000
   27     -9.92427    2.00000
   28     -9.81839    2.00000
   29     -9.45834    2.00000
   30     -9.43012    2.00000
   31     -9.09822    2.00000
   32     -8.75329    2.00000
   33     -8.40763    2.00000
   34     -8.28359    2.00000
   35     -8.01343    2.00000
   36     -7.82067    2.00000
   37     -7.66195    2.00000
   38     -7.37552    2.00000
   39     -7.26967    2.00000
   40     -6.57727    2.00000
   41     -6.34299    2.00000
   42     -6.16088    2.00000
   43     -5.91600    2.00000
   44     -5.64460    2.00000
   45     -5.52978    2.00000
   46     -5.38662    1.99999
   47     -4.26144    1.47870
   48     -4.00846    0.36868
   49     -3.90538    0.14921
   50     -3.51325    0.00319
   51     -3.24732    0.00022
   52     -2.80101    0.00000
   53     -2.48628    0.00000
   54     -2.21892    0.00000
   55     -1.58166    0.00000
   56     -1.28996    0.00000
   57     -1.18380    0.00000
   58     -0.34607    0.00000
   59     -0.04127    0.00000
   60      0.43203    0.00000
   61      0.74294    0.00000
   62      1.45347    0.00000
   63      1.66348    0.00000
   64      2.46775    0.00000
   65      3.49439    0.00000
   66      3.59887    0.00000
   67      3.77729    0.00000
   68      4.17161    0.00000
   69      4.58896    0.00000
   70      5.03118    0.00000
   71      5.63209    0.00000
   72      6.33604    0.00000
   73      6.65403    0.00000
   74      6.73364    0.00000
   75      7.07520    0.00000
   76      7.40328    0.00000
   77      7.53278    0.00000
   78      7.77286    0.00000
   79      7.88061    0.00000
   80      8.10731    0.00000
   81      8.54020    0.00000
   82      8.59231    0.00000
   83      8.75638    0.00000
   84      8.91071    0.00000
   85      8.95735    0.00000
   86      9.09852    0.00000
   87      9.21089    0.00000
   88      9.38817    0.00000
   89      9.47812    0.00000
   90      9.64155    0.00000
   91      9.76832    0.00000
   92      9.87133    0.00000
   93      9.88922    0.00000
   94     10.05908    0.00000
   95     10.21180    0.00000
   96     10.36975    0.00000
   97     10.43101    0.00000


Forces in eV/Ang:
  0 C    -0.06361   -0.13682    0.15939
  1 C    -0.41645    0.37380    0.00908
  2 C     0.19728   -1.04540   -0.08299
  3 C     0.12771   -0.18650   -0.08931
  4 C    -0.67550    0.51165    0.44728
  5 C    -0.78873    0.65986    0.47767
  6 C     0.33379    1.16580    0.26201
  7 C    -0.41003    0.95125    0.84030
  8 C     1.07640   -0.09561   -0.33121
  9 C    -0.73687    0.39610   -0.00885
 10 C    -1.88617    6.23776    1.78908
 11 C    -2.45792   12.31602    4.19436
 12 C    -0.09772   -0.01349    0.18377
 13 C    -0.19756   -0.45044   -0.27778
 14 C    -0.30498    0.80501    0.57454
 15 C    -0.02946    0.24857    0.05625
 16 C    -0.30164   -0.89663   -0.05987
 17 C    -0.33870   -1.07513   -0.11421
 18 C     0.87212   -0.80483   -0.44275
 19 C     0.17393   -1.29285    0.03648
 20 C     0.85956    0.73399   -0.01890
 21 C    -0.47260   -0.59583   -0.34277
 22 C     1.42865   -6.04845   -2.68693
 23 C     4.01885  -11.78387   -4.60707

System changes: positions 

Initializing position-dependent things.

Density initialized from wave functions
           .--------------------------------------.  
          /|                                      |  
         / |                                      |  
        /  |                                      |  
       /   |                                      |  
      /    |                                      |  
     /     |                                      |  
    /      |                                      |  
   /       |                                      |  
  /        |           C  C                       |  
 *         |  C C   C      C   C  C               |  
 |         | C       C   C       C                |  
 |         .-------------C-------C----------------.  
 |        /  C       C     C   C                 /   
 |       /    C     C     C       C             /    
 |      /        C     C                       /     
 |     /                                      /      
 |    /                                      /       
 |   /                                      /        
 |  /                                      /         
 | /                                      /          
 |/                                      /           
 *--------------------------------------*            

Positions:
   0 C      6.371796    9.786133    5.943814
   1 C      7.616414    9.814086    5.801438
   2 C      4.077707    8.691893    5.846312
   3 C      5.495243    8.688229    5.817074
   4 C     10.981123    9.992525    4.857360
   5 C      3.521430    7.537317    5.696834
   6 C      8.505067    8.780415    5.473934
   7 C      9.852174    9.077693    5.173693
   8 C      6.342498    7.466769    5.590309
   9 C      3.244230    6.262895    5.560972
  10 C      7.748351    7.545996    5.468302
  11 C     11.099312    8.598763    4.966649
  12 C      7.939560    3.941827    3.822285
  13 C      9.025010    4.563309    3.895925
  14 C      5.416404    3.701215    4.034784
  15 C      6.657233    4.353718    4.243677
  16 C     11.914169    6.514741    3.595024
  17 C      4.387675    4.307420    4.525272
  18 C      9.293836    5.840590    4.407203
  19 C     10.563097    6.426219    4.211339
  20 C      6.823124    5.675936    4.940323
  21 C      3.553578    5.109198    5.142779
  22 C      8.076593    6.323595    5.024569
  23 C     11.414626    7.424299    4.539229

Unit cell:
           periodic     x           y           z      points  spacing
  1. axis:    yes   16.000000    0.000000    0.000000    80     0.2000
  2. axis:    yes    0.000000   16.000000    0.000000    80     0.2000
  3. axis:    yes    0.000000    0.000000   10.000000    48     0.2083

Effective grid spacing dv^(1/3) = 0.2027

                     log10-error:    total        iterations:
           time      wfs    density  energy       fermi  poisson
iter:   1  10:53:24          +inf  -178.683978    4      5      
iter:   2  10:53:25         -1.93  -178.561272    3      2      
iter:   3  10:53:25         -2.06  -178.465171    3      2      
iter:   4  10:53:26         -2.03  -178.516867    3      2      
iter:   5  10:53:26         -2.17  -178.473002    3      2      
iter:   6  10:53:27         -2.43  -178.452706    2      2      
iter:   7  10:53:27         -2.81  -178.458081    2      2      
iter:   8  10:53:28         -2.98  -178.460439    2      2      
iter:   9  10:53:28         -3.04  -178.456097    2      1      
iter:  10  10:53:29         -3.56  -178.455217    2      1      
iter:  11  10:53:29         -3.57  -178.456207    2      1      
iter:  12  10:53:30         -3.61  -178.453609    2      1      
iter:  13  10:53:30         -3.35  -178.454983    2      1      
iter:  14  10:53:31         -3.86  -178.457500    2      1      
iter:  15  10:53:32         -3.45  -178.455461    2      1      
iter:  16  10:53:32         -4.22  -178.455492    2      1      

Converged after 16 iterations.

Dipole moment: (-0.806519, -0.351887, 0.423893) |e|*Ang

Energy contributions relative to reference atoms: (reference = -24663.074771)

Kinetic:       +146.018575
Potential:     -145.037062
External:        +0.000000
XC:            -182.340108
Entropy (-ST):   -0.199543
Local:           +3.002874
--------------------------
Free energy:   -178.555263
Extrapolated:  -178.455492

Fermi level: -4.17212

 Band  Eigenvalues  Occupancy
    0    -23.56013    2.00000
    1    -22.85515    2.00000
    2    -22.39311    2.00000
    3    -21.65224    2.00000
    4    -21.16105    2.00000
    5    -20.36527    2.00000
    6    -20.36209    2.00000
    7    -19.81911    2.00000
    8    -18.83330    2.00000
    9    -18.47698    2.00000
   10    -17.47549    2.00000
   11    -17.14558    2.00000
   12    -16.80857    2.00000
   13    -16.44115    2.00000
   14    -15.33527    2.00000
   15    -15.31498    2.00000
   16    -14.45973    2.00000
   17    -14.21684    2.00000
   18    -13.34042    2.00000
   19    -12.85609    2.00000
   20    -12.77139    2.00000
   21    -11.92494    2.00000
   22    -11.56435    2.00000
   23    -11.44278    2.00000
   24    -10.94278    2.00000
   25    -10.48643    2.00000
   26    -10.25007    2.00000
   27     -9.90258    2.00000
   28     -9.88146    2.00000
   29     -9.50128    2.00000
   30     -9.48580    2.00000
   31     -9.14269    2.00000
   32     -8.84186    2.00000
   33     -8.36961    2.00000
   34     -8.24332    2.00000
   35     -8.04509    2.00000
   36     -7.70802    2.00000
   37     -7.60428    2.00000
   38     -7.39698    2.00000
   39     -7.31491    2.00000
   40     -6.60285    2.00000
   41     -6.37785    2.00000
   42     -6.19842    2.00000
   43     -5.95260    2.00000
   44     -5.58632    2.00000
   45     -5.45574    1.99999
   46     -5.42647    1.99999
   47     -4.32294    1.63761
   48     -4.01308    0.33866
   49     -3.71572    0.02063
   50     -3.51526    0.00280
   51     -3.29684    0.00032
   52     -2.76822    0.00000
   53     -2.29756    0.00000
   54     -2.19763    0.00000
   55     -1.58073    0.00000
   56     -1.28362    0.00000
   57     -1.28104    0.00000
   58     -0.36486    0.00000
   59     -0.10050    0.00000
   60      0.40486    0.00000
   61      0.63056    0.00000
   62      1.43742    0.00000
   63      1.48198    0.00000
   64      2.64434    0.00000
   65      3.57631    0.00000
   66      3.57933    0.00000
   67      3.91325    0.00000
   68      4.13247    0.00000
   69      4.65493    0.00000
   70      5.00506    0.00000
   71      5.61127    0.00000
   72      6.19487    0.00000
   73      6.50916    0.00000
   74      6.83837    0.00000
   75      7.02108    0.00000
   76      7.40248    0.00000
   77      7.47825    0.00000
   78      7.75902    0.00000
   79      7.90846    0.00000
   80      8.10074    0.00000
   81      8.52523    0.00000
   82      8.65448    0.00000
   83      8.67709    0.00000
   84      8.88114    0.00000
   85      8.97816    0.00000
   86      8.98102    0.00000
   87      9.19760    0.00000
   88      9.36134    0.00000
   89      9.50106    0.00000
   90      9.55267    0.00000
   91      9.72462    0.00000
   92      9.84557    0.00000
   93      9.97021    0.00000
   94     10.10268    0.00000
   95     10.22790    0.00000
   96     10.32531    0.00000
   97     10.43674    0.00000


Forces in eV/Ang:
  0 C    -0.31564   -0.12602    0.18215
  1 C    -0.29323    0.48178    0.02532
  2 C    -0.01285   -1.11964   -0.07023
  3 C     0.42423   -0.24470   -0.10276
  4 C    -0.66811    1.03558    0.37441
  5 C    -0.75939    0.46909    0.44716
  6 C    -0.03123    0.60661    0.27562
  7 C    -0.35775    1.15993    0.79169
  8 C     0.38855   -0.04299   -0.28213
  9 C    -0.74594    0.80668    0.10413
 10 C    -0.87739    5.64866    1.42397
 11 C    -0.48868    5.44475    1.93232
 12 C    -0.31519   -0.14280    0.14984
 13 C    -0.03682   -0.47669   -0.31347
 14 C    -0.54624    0.77156    0.60567
 15 C     0.21727    0.42590    0.12413
 16 C    -0.07698   -1.20144   -0.44581
 17 C    -0.36878   -0.91851   -0.04667
 18 C     0.31028   -0.57637   -0.14092
 19 C     0.33526   -1.38432   -0.12993
 20 C     0.29219    0.34958   -0.10934
 21 C    -0.27761   -0.92714   -0.50971
 22 C     1.98685   -4.97900   -2.43442
 23 C     2.31487   -4.99088   -1.87808

System changes: positions 

Initializing position-dependent things.

Density initialized from wave functions
           .--------------------------------------.  
          /|                                      |  
         / |                                      |  
        /  |                                      |  
       /   |                                      |  
      /    |                                      |  
     /     |                                      |  
    /      |                                      |  
   /       |                                      |  
  /        |           C  C                       |  
 *         |  C C   C      C   C  C               |  
 |         | C       C   C       C                |  
 |         .-------------C-------C----------------.  
 |        /  C       C     C   C                 /   
 |       /    C     C     C       C             /    
 |      /        C     C                       /     
 |     /                                      /      
 |    /                                      /       
 |   /                                      /        
 |  /                                      /         
 | /                                      /          
 |/                                      /           
 *--------------------------------------*            

Positions:
   0 C      6.363066    9.782790    5.948176
   1 C      7.608865    9.826883    5.802025
   2 C      4.082935    8.676073    5.845646
   3 C      5.500669    8.685465    5.815588
   4 C     10.973931   10.026031    4.862542
   5 C      3.502613    7.541216    5.705878
   6 C      8.499365    8.799640    5.481703
   7 C      9.855318    9.089795    5.190801
   8 C      6.354549    7.465351    5.583625
   9 C      3.231095    6.264747    5.557763
  10 C      7.747977    7.585697    5.471162
  11 C     11.102165    8.624530    4.976729
  12 C      7.930813    3.938027    3.825891
  13 C      9.024231    4.550886    3.887603
  14 C      5.413435    3.714116    4.044299
  15 C      6.659933    4.359152    4.244812
  16 C     11.923249    6.486547    3.577785
  17 C      4.374426    4.291019    4.527357
  18 C      9.299140    5.820563    4.401018
  19 C     10.574033    6.409758    4.218392
  20 C      6.832287    5.685768    4.938451
  21 C      3.542172    5.103946    5.137415
  22 C      8.094685    6.295444    5.002655
  23 C     11.430354    7.402679    4.531194

Unit cell:
           periodic     x           y           z      points  spacing
  1. axis:    yes   16.000000    0.000000    0.000000    80     0.2000
  2. axis:    yes    0.000000   16.000000    0.000000    80     0.2000
  3. axis:    yes    0.000000    0.000000   10.000000    48     0.2083

Effective grid spacing dv^(1/3) = 0.2027

                     log10-error:    total        iterations:
           time      wfs    density  energy       fermi  poisson
iter:   1  10:53:34          +inf  -179.570139    3      5      
iter:   2  10:53:34         -1.89  -179.439911    3      2      
iter:   3  10:53:35         -2.00  -179.284895    3      2      
iter:   4  10:53:35         -1.95  -179.301291    3      2      
iter:   5  10:53:36         -2.32  -179.280758    3      2      
iter:   6  10:53:36         -2.59  -179.277059    2      2      
iter:   7  10:53:37         -2.81  -179.283972    2      2      
iter:   8  10:53:37         -2.80  -179.284978    2      2      
iter:   9  10:53:38         -2.87  -179.276550    2      2      
iter:  10  10:53:39         -3.52  -179.276193    2      1      
iter:  11  10:53:39         -3.59  -179.276210    2      1      
iter:  12  10:53:40         -3.72  -179.275769    2      1      
iter:  13  10:53:40         -3.96  -179.276086    2      1      
iter:  14  10:53:41         -4.04  -179.276198    2      1      

Converged after 14 iterations.

Dipole moment: (-0.906622, -0.383514, 0.438492) |e|*Ang

Energy contributions relative to reference atoms: (reference = -24663.074771)

Kinetic:       +138.852866
Potential:     -139.856881
External:        +0.000000
XC:            -181.154319
Entropy (-ST):   -0.164509
Local:           +2.964392
--------------------------
Free energy:   -179.358452
Extrapolated:  -179.276198

Fermi level: -4.17145

 Band  Eigenvalues  Occupancy
    0    -23.36161    2.00000
    1    -22.72715    2.00000
    2    -22.32592    2.00000
    3    -21.70961    2.00000
    4    -21.13513    2.00000
    5    -20.40791    2.00000
    6    -20.26121    2.00000
    7    -19.81670    2.00000
    8    -18.89309    2.00000
    9    -18.47073    2.00000
   10    -17.50389    2.00000
   11    -16.85393    2.00000
   12    -16.74588    2.00000
   13    -16.42927    2.00000
   14    -15.36806    2.00000
   15    -15.14834    2.00000
   16    -14.45308    2.00000
   17    -14.20426    2.00000
   18    -13.42700    2.00000
   19    -12.92929    2.00000
   20    -12.73249    2.00000
   21    -11.96499    2.00000
   22    -11.65084    2.00000
   23    -11.31167    2.00000
   24    -10.81316    2.00000
   25    -10.59711    2.00000
   26    -10.12064    2.00000
   27     -9.94576    2.00000
   28     -9.60868    2.00000
   29     -9.56925    2.00000
   30     -9.46440    2.00000
   31     -9.15740    2.00000
   32     -8.84093    2.00000
   33     -8.43086    2.00000
   34     -8.20962    2.00000
   35     -7.97959    2.00000
   36     -7.73449    2.00000
   37     -7.48616    2.00000
   38     -7.38898    2.00000
   39     -7.35492    2.00000
   40     -6.62072    2.00000
   41     -6.37784    2.00000
   42     -6.24589    2.00000
   43     -5.95118    2.00000
   44     -5.58739    2.00000
   45     -5.54829    2.00000
   46     -5.35671    1.99999
   47     -4.35490    1.72459
   48     -3.98482    0.26794
   49     -3.55566    0.00422
   50     -3.51765    0.00289
   51     -3.31079    0.00037
   52     -2.75154    0.00000
   53     -2.25263    0.00000
   54     -2.06727    0.00000
   55     -1.59232    0.00000
   56     -1.33516    0.00000
   57     -1.29519    0.00000
   58     -0.34155    0.00000
   59     -0.20089    0.00000
   60      0.29757    0.00000
   61      0.47025    0.00000
   62      1.33705    0.00000
   63      1.47404    0.00000
   64      2.75244    0.00000
   65      3.56175    0.00000
   66      3.66022    0.00000
   67      3.96472    0.00000
   68      4.07715    0.00000
   69      4.84852    0.00000
   70      4.94815    0.00000
   71      5.63943    0.00000
   72      6.00763    0.00000
   73      6.22745    0.00000
   74      6.80080    0.00000
   75      7.12347    0.00000
   76      7.30947    0.00000
   77      7.43666    0.00000
   78      7.78325    0.00000
   79      7.85825    0.00000
   80      8.14650    0.00000
   81      8.37200    0.00000
   82      8.54446    0.00000
   83      8.72399    0.00000
   84      8.88126    0.00000
   85      8.91852    0.00000
   86      9.03945    0.00000
   87      9.22516    0.00000
   88      9.35583    0.00000
   89      9.52096    0.00000
   90      9.62697    0.00000
   91      9.69648    0.00000
   92      9.86389    0.00000
   93     10.03276    0.00000
   94     10.17667    0.00000
   95     10.19049    0.00000
   96     10.24834    0.00000
   97     10.31382    0.00000


Forces in eV/Ang:
  0 C    -0.08646    0.07689    0.17050
  1 C    -0.55786    0.68344    0.13825
  2 C     0.07963   -0.89484   -0.00728
  3 C     0.17346   -0.43133   -0.11426
  4 C    -0.68289    0.65670    0.39434
  5 C    -0.78822    0.21376    0.35482
  6 C     0.39706    0.85071    0.22019
  7 C    -0.22538    1.12100    0.68161
  8 C     0.18025   -0.10056   -0.30857
  9 C    -0.57792    0.04489   -0.11805
 10 C     0.12859    1.67331    0.21280
 11 C     0.17552    2.70447    0.84374
 12 C    -0.04658   -0.16515    0.05999
 13 C    -0.14747   -0.77644   -0.40436
 14 C    -0.34088    0.63724    0.52949
 15 C    -0.06175    0.43899    0.19408
 16 C    -0.25283   -0.97613   -0.22328
 17 C    -0.51274   -0.71536    0.03711
 18 C     0.75627   -0.51288   -0.26895
 19 C     0.40237   -1.26123   -0.20519
 20 C     0.07291    0.34796   -0.15908
 21 C    -0.50327   -0.19727   -0.21103
 22 C     0.88210   -1.18511   -0.80748
 23 C     1.48142   -2.19404   -0.90634

System changes: positions 

Initializing position-dependent things.

Density initialized from wave functions
           .--------------------------------------.  
          /|                                      |  
         / |                                      |  
        /  |                                      |  
       /   |                                      |  
      /    |                                      |  
     /     |                                      |  
    /      |                                      |  
   /       |                                      |  
  /        |           C  C                       |  
 *         |  C C   C      C   C  C               |  
 |         | C       C   C        C               |  
 |         .-------------C--------C---------------.  
 |        /  C       C     C   C                 /   
 |       /    C     C             C             /    
 |      /        C     C  C                    /     
 |     /                                      /      
 |    /                                      /       
 |   /                                      /        
 |  /                                      /         
 | /                                      /          
 |/                                      /           
 *--------------------------------------*            

Positions:
   0 C      6.356135    9.782482    5.954122
   1 C      7.593170    9.848247    5.805147
   2 C      4.088926    8.651843    5.845396
   3 C      5.505684    8.675960    5.812708
   4 C     10.959534   10.062116    4.872062
   5 C      3.475856    7.545674    5.717711
   6 C      8.503784    8.829887    5.490729
   7 C      9.853670    9.113800    5.214301
   8 C      6.366268    7.462278    5.573558
   9 C      3.213092    6.262783    5.552289
  10 C      7.755838    7.613756    5.467985
  11 C     11.113915    8.656414    4.986568
  12 C      7.924698    3.932377    3.829125
  13 C      9.020831    4.527921    3.874502
  14 C      5.407461    3.732898    4.059137
  15 C      6.659272    4.369716    4.248887
  16 C     11.927831    6.450703    3.560684
  17 C      4.355356    4.268829    4.530189
  18 C      9.318041    5.797108    4.390832
  19 C     10.586861    6.379024    4.221766
  20 C      6.839917    5.699174    4.934441
  21 C      3.524506    5.100867    5.131669
  22 C      8.113493    6.282102    4.984729
  23 C     11.456205    7.381752    4.521864

Unit cell:
           periodic     x           y           z      points  spacing
  1. axis:    yes   16.000000    0.000000    0.000000    80     0.2000
  2. axis:    yes    0.000000   16.000000    0.000000    80     0.2000
  3. axis:    yes    0.000000    0.000000   10.000000    48     0.2083

Effective grid spacing dv^(1/3) = 0.2027

                     log10-error:    total        iterations:
           time      wfs    density  energy       fermi  poisson
iter:   1  10:53:42          +inf  -180.100482    3      5      
iter:   2  10:53:43         -1.90  -179.978203    3      2      
iter:   3  10:53:43         -2.01  -179.806522    3      2      
iter:   4  10:53:44         -2.04  -179.815113    2      2      
iter:   5  10:53:44         -2.36  -179.810011    2      2      
iter:   6  10:53:45         -2.64  -179.808475    2      2      
iter:   7  10:53:45         -2.78  -179.816697    2      2      
iter:   8  10:53:46         -2.86  -179.818649    2      1      
iter:   9  10:53:46         -2.93  -179.809772    2      2      
iter:  10  10:53:47         -3.59  -179.809230    2      1      
iter:  11  10:53:47         -3.63  -179.809505    2      1      
iter:  12  10:53:48         -3.81  -179.809203    2      1      
iter:  13  10:53:48         -3.88  -179.809088    2      1      
iter:  14  10:53:49         -3.98  -179.809299    2      1      
iter:  15  10:53:49         -4.05  -179.809384    2      1      

Converged after 15 iterations.

Dipole moment: (-1.015351, -0.417817, 0.453006) |e|*Ang

Energy contributions relative to reference atoms: (reference = -24663.074771)

Kinetic:       +131.389553
Potential:     -134.316614
External:        +0.000000
XC:            -179.769461
Entropy (-ST):   -0.145718
Local:           +2.959997
--------------------------
Free energy:   -179.882243
Extrapolated:  -179.809384

Fermi level: -4.11865

 Band  Eigenvalues  Occupancy
    0    -23.12939    2.00000
    1    -22.61327    2.00000
    2    -22.23278    2.00000
    3    -21.69837    2.00000
    4    -21.12286    2.00000
    5    -20.42886    2.00000
    6    -20.20138    2.00000
    7    -19.81008    2.00000
    8    -18.92788    2.00000
    9    -18.49218    2.00000
   10    -17.55427    2.00000
   11    -16.86668    2.00000
   12    -16.54527    2.00000
   13    -16.26274    2.00000
   14    -15.42436    2.00000
   15    -15.02908    2.00000
   16    -14.43039    2.00000
   17    -14.17686    2.00000
   18    -13.46461    2.00000
   19    -12.99473    2.00000
   20    -12.70614    2.00000
   21    -12.02812    2.00000
   22    -11.73483    2.00000
   23    -11.11749    2.00000
   24    -10.69104    2.00000
   25    -10.64565    2.00000
   26     -9.97726    2.00000
   27     -9.94588    2.00000
   28     -9.57926    2.00000
   29     -9.45284    2.00000
   30     -9.43591    2.00000
   31     -9.17064    2.00000
   32     -8.84119    2.00000
   33     -8.53667    2.00000
   34     -8.23051    2.00000
   35     -7.94677    2.00000
   36     -7.76049    2.00000
   37     -7.46557    2.00000
   38     -7.45136    2.00000
   39     -7.31902    2.00000
   40     -6.65317    2.00000
   41     -6.41459    2.00000
   42     -6.25947    2.00000
   43     -5.95738    2.00000
   44     -5.62920    2.00000
   45     -5.61443    2.00000
   46     -5.24583    1.99997
   47     -4.32504    1.77468
   48     -3.90747    0.21590
   49     -3.52253    0.00514
   50     -3.48898    0.00368
   51     -3.31212    0.00063
   52     -2.70384    0.00000
   53     -2.22739    0.00000
   54     -1.97245    0.00000
   55     -1.58513    0.00000
   56     -1.42535    0.00000
   57     -1.25776    0.00000
   58     -0.29322    0.00000
   59     -0.28351    0.00000
   60      0.19219    0.00000
   61      0.35360    0.00000
   62      1.18208    0.00000
   63      1.51837    0.00000
   64      2.80309    0.00000
   65      3.57701    0.00000
   66      3.69899    0.00000
   67      4.00435    0.00000
   68      4.08033    0.00000
   69      4.88595    0.00000
   70      4.92779    0.00000
   71      5.64072    0.00000
   72      5.73447    0.00000
   73      5.87754    0.00000
   74      6.79286    0.00000
   75      7.15264    0.00000
   76      7.20499    0.00000
   77      7.34919    0.00000
   78      7.75791    0.00000
   79      7.78859    0.00000
   80      8.14516    0.00000
   81      8.19831    0.00000
   82      8.54605    0.00000
   83      8.71901    0.00000
   84      8.84952    0.00000
   85      8.87798    0.00000
   86      9.04166    0.00000
   87      9.20483    0.00000
   88      9.26890    0.00000
   89      9.47873    0.00000
   90      9.66496    0.00000
   91      9.66854    0.00000
   92      9.84874    0.00000
   93     10.06086    0.00000
   94     10.06382    0.00000
   95     10.18138    0.00000
   96     10.22449    0.00000
   97     10.29113    0.00000


Forces in eV/Ang:
  0 C    -0.75693   -0.00525    0.19536
  1 C     0.16107    0.60543    0.05878
  2 C     0.29369   -0.45407    0.05683
  3 C     0.11860   -0.43481   -0.11838
  4 C    -0.56693    0.42994    0.39182
  5 C    -0.93825   -0.40839    0.21382
  6 C    -0.12291    0.69335    0.30873
  7 C     0.80324    0.80285    0.34697
  8 C     0.21724   -0.10728   -0.38277
  9 C    -0.49776   -0.11822   -0.21377
 10 C     0.65278    0.16649   -0.28894
 11 C     0.11206    0.53768    0.03322
 12 C    -0.60349   -0.42538    0.03449
 13 C     0.39408   -0.38391   -0.28772
 14 C     0.07740    0.40854    0.36974
 15 C    -0.12175    0.40917    0.19847
 16 C    -0.24494   -0.75164   -0.04279
 17 C    -0.96736   -0.22587    0.30537
 18 C     0.20893   -0.71981   -0.19983
 19 C     1.14697   -0.35680   -0.10283
 20 C     0.03171    0.40395   -0.19238
 21 C    -0.46836   -0.03549   -0.17923
 22 C     0.61797    0.38532   -0.21059
 23 C     0.31118   -0.35347   -0.27035

System changes: positions 

Initializing position-dependent things.

Density initialized from wave functions
           .--------------------------------------.  
          /|                                      |  
         / |                                      |  
        /  |                                      |  
       /   |                                      |  
      /    |                                      |  
     /     |                                      |  
    /      |                                      |  
   /       |                                      |  
  /        |           C  C                       |  
 *         |  C C   C      C   C  C               |  
 |         | C       C   C        C               |  
 |         .-------------C--------C---------------.  
 |        /  C       C     C   C                 /   
 |       /    C     C             C             /    
 |      /        C     C  C                    /     
 |     /                                      /      
 |    /                                      /       
 |   /                                      /        
 |  /                                      /         
 | /                                      /          
 |/                                      /           
 *--------------------------------------*            

Positions:
   0 C      6.337453    9.781409    5.961423
   1 C      7.587124    9.871653    5.807663
   2 C      4.098211    8.628472    5.846071
   3 C      5.511000    8.663296    5.808943
   4 C     10.942427   10.096145    4.884283
   5 C      3.442256    7.541643    5.729240
   6 C      8.503415    8.862234    5.502126
   7 C      9.865330    9.140350    5.236228
   8 C      6.379881    7.458442    5.560378
   9 C      3.192428    6.261472    5.545597
  10 C      7.769130    7.640044    5.462581
  11 C     11.122950    8.684132    4.993179
  12 C      7.909098    3.921328    3.832172
  13 C      9.026063    4.507835    3.861451
  14 C      5.405266    3.752210    4.075009
  15 C      6.657122    4.382894    4.254463
  16 C     11.929684    6.413716    3.546761
  17 C      4.326250    4.250384    4.537362
  18 C      9.333355    5.768296    4.380311
  19 C     10.612839    6.354006    4.224369
  20 C      6.847377    5.715786    4.928915
  21 C      3.505593    5.096376    5.124073
  22 C      8.136334    6.274333    4.967067
  23 C     11.476864    7.363516    4.511929

Unit cell:
           periodic     x           y           z      points  spacing
  1. axis:    yes   16.000000    0.000000    0.000000    80     0.2000
  2. axis:    yes    0.000000   16.000000    0.000000    80     0.2000
  3. axis:    yes    0.000000    0.000000   10.000000    48     0.2083

Effective grid spacing dv^(1/3) = 0.2027

                     log10-error:    total        iterations:
           time      wfs    density  energy       fermi  poisson
iter:   1  10:53:51          +inf  -180.311578    3      5      
iter:   2  10:53:52         -2.00  -180.242374    2      2      
iter:   3  10:53:52         -2.11  -180.141625    2      2      
iter:   4  10:53:53         -2.25  -180.146560    2      1      
iter:   5  10:53:53         -2.36  -180.161290    3      2      
iter:   6  10:53:54         -2.60  -180.138040    2      2      
iter:   7  10:53:54         -2.24  -180.164510    3      2      
iter:   8  10:53:55         -2.78  -180.156718    2      1      
iter:   9  10:53:55         -3.03  -180.143636    2      2      
iter:  10  10:53:56         -2.88  -180.150470    2      1      
iter:  11  10:53:56         -3.53  -180.154347    2      1      
iter:  12  10:53:57         -3.30  -180.151310    2      1      
iter:  13  10:53:57         -3.72  -180.149825    2      1      
iter:  14  10:53:58         -3.89  -180.151286    2      1      
iter:  15  10:53:58         -4.00  -180.151098    2      1      
iter:  16  10:53:59         -4.19  -180.150797    2      1      

Converged after 16 iterations.

Dipole moment: (-1.067472, -0.434120, 0.461153) |e|*Ang

Energy contributions relative to reference atoms: (reference = -24663.074771)

Kinetic:       +122.550297
Potential:     -127.519437
External:        +0.000000
XC:            -178.105047
Entropy (-ST):   -0.127273
Local:           +2.987026
--------------------------
Free energy:   -180.214434
Extrapolated:  -180.150797

Fermi level: -4.10258

 Band  Eigenvalues  Occupancy
    0    -23.04642    2.00000
    1    -22.53546    2.00000
    2    -22.26443    2.00000
    3    -21.70041    2.00000
    4    -21.08979    2.00000
    5    -20.40754    2.00000
    6    -20.12936    2.00000
    7    -19.79383    2.00000
    8    -18.95408    2.00000
    9    -18.41694    2.00000
   10    -17.52197    2.00000
   11    -16.85581    2.00000
   12    -16.50212    2.00000
   13    -16.00347    2.00000
   14    -15.40189    2.00000
   15    -14.94790    2.00000
   16    -14.42606    2.00000
   17    -14.10579    2.00000
   18    -13.49458    2.00000
   19    -13.05975    2.00000
   20    -12.70999    2.00000
   21    -12.03299    2.00000
   22    -11.76804    2.00000
   23    -10.97181    2.00000
   24    -10.65448    2.00000
   25    -10.60722    2.00000
   26     -9.99470    2.00000
   27     -9.90004    2.00000
   28     -9.60572    2.00000
   29     -9.40953    2.00000
   30     -9.34478    2.00000
   31     -9.16697    2.00000
   32     -8.84488    2.00000
   33     -8.65186    2.00000
   34     -8.25667    2.00000
   35     -7.90097    2.00000
   36     -7.80250    2.00000
   37     -7.49659    2.00000
   38     -7.44397    2.00000
   39     -7.31619    2.00000
   40     -6.61452    2.00000
   41     -6.38978    2.00000
   42     -6.30747    2.00000
   43     -5.89436    2.00000
   44     -5.61004    2.00000
   45     -5.59201    2.00000
   46     -5.17884    1.99996
   47     -4.33208    1.81693
   48     -3.86703    0.17326
   49     -3.52590    0.00624
   50     -3.44350    0.00274
   51     -3.32860    0.00087
   52     -2.80018    0.00000
   53     -2.23336    0.00000
   54     -1.94202    0.00000
   55     -1.54541    0.00000
   56     -1.51791    0.00000
   57     -1.19519    0.00000
   58     -0.35040    0.00000
   59     -0.28572    0.00000
   60      0.01892    0.00000
   61      0.24781    0.00000
   62      1.05294    0.00000
   63      1.51995    0.00000
   64      2.90778    0.00000
   65      3.60834    0.00000
   66      3.66270    0.00000
   67      4.01498    0.00000
   68      4.07552    0.00000
   69      4.74314    0.00000
   70      4.97518    0.00000
   71      5.25828    0.00000
   72      5.65327    0.00000
   73      5.67762    0.00000
   74      6.71333    0.00000
   75      7.13445    0.00000
   76      7.15756    0.00000
   77      7.29009    0.00000
   78      7.69437    0.00000
   79      7.85568    0.00000
   80      8.14285    0.00000
   81      8.18950    0.00000
   82      8.54601    0.00000
   83      8.74542    0.00000
   84      8.81085    0.00000
   85      8.88797    0.00000
   86      9.02408    0.00000
   87      9.22745    0.00000
   88      9.23877    0.00000
   89      9.44483    0.00000
   90      9.66294    0.00000
   91      9.71220    0.00000
   92      9.87142    0.00000
   93      9.91004    0.00000
   94     10.08548    0.00000
   95     10.15142    0.00000
   96     10.17090    0.00000
   97     10.38178    0.00000


Forces in eV/Ang:
  0 C     0.49293    0.16704    0.02381
  1 C    -1.04243    0.63669    0.28363
  2 C    -0.10391   -0.84725    0.02843
  3 C    -0.01708   -0.49092   -0.11453
  4 C    -0.21152    0.36128    0.33234
  5 C    -0.46883    0.16309    0.23893
  6 C     0.23472    0.47504    0.20316
  7 C     0.49231    0.46562    0.31071
  8 C     0.40130   -0.21189   -0.43513
  9 C    -0.49428   -0.61946   -0.30877
 10 C     0.80964   -0.83243   -0.57551
 11 C     0.35243   -0.85695   -0.53550
 12 C     0.47597    0.09088    0.00334
 13 C    -0.54372   -1.01404   -0.34114
 14 C    -0.47068    0.49796    0.50641
 15 C    -0.21400    0.39354    0.20099
 16 C     0.03200   -0.51100   -0.00235
 17 C    -0.26827   -0.48111    0.00774
 18 C     0.44440   -0.33843   -0.09024
 19 C     0.62507   -0.28524    0.04982
 20 C     0.21491    0.58205   -0.16925
 21 C    -0.78337    0.41390    0.05520
 22 C     0.20966    1.25557    0.18251
 23 C    -0.15966    1.02117    0.16739

System changes: positions 

Initializing position-dependent things.

Density initialized from wave functions
           .--------------------------------------.  
          /|                                      |  
         / |                                      |  
        /  |                                      |  
       /   |                                      |  
      /    |                                      |  
     /     |                                      |  
    /      |                                      |  
   /       |                                      |  
  /        |           C  C                       |  
 *         |  C C   C      C   C  C               |  
 |         | C       C   C        C               |  
 |         .-------------C--------C---------------.  
 |        /  C       C     C   C                 /   
 |       /    C     C             C             /    
 |      /        C     C  C                    /     
 |     /                                      /      
 |    /                                      /       
 |   /                                      /        
 |  /                                      /         
 | /                                      /          
 |/                                      /           
 *--------------------------------------*            

Positions:
   0 C      6.331021    9.782567    5.967439
   1 C      7.566419    9.898589    5.813548
   2 C      4.103327    8.596258    5.846659
   3 C      5.515452    8.646919    5.804404
   4 C     10.926283   10.129874    4.898486
   5 C      3.409633    7.543154    5.742327
   6 C      8.506981    8.894763    5.513887
   7 C      9.878050    9.167904    5.259190
   8 C      6.397702    7.452469    5.543951
   9 C      3.168360    6.254200    5.536817
  10 C      7.786085    7.663737    5.454928
  11 C     11.132679    8.708301    4.996236
  12 C      7.904429    3.914757    3.834959
  13 C      9.021269    4.477558    3.846377
  14 C      5.395296    3.775501    4.095349
  15 C      6.653046    4.398719    4.261442
  16 C     11.932662    6.376345    3.534612
  17 C      4.301120    4.227184    4.542179
  18 C      9.352463    5.740925    4.370601
  19 C     10.639270    6.327916    4.227632
  20 C      6.857743    5.737577    4.922479
  21 C      3.480032    5.096216    5.117953
  22 C      8.160258    6.271083    4.949705
  23 C     11.496211    7.349749    4.501480

Unit cell:
           periodic     x           y           z      points  spacing
  1. axis:    yes   16.000000    0.000000    0.000000    80     0.2000
  2. axis:    yes    0.000000   16.000000    0.000000    80     0.2000
  3. axis:    yes    0.000000    0.000000   10.000000    48     0.2083

Effective grid spacing dv^(1/3) = 0.2027

                     log10-error:    total        iterations:
           time      wfs    density  energy       fermi  poisson
iter:   1  10:54:01          +inf  -180.576011    3      5      
iter:   2  10:54:01         -2.00  -180.512030    3      2      
iter:   3  10:54:02         -2.10  -180.400929    3      2      
iter:   4  10:54:02         -2.35  -180.411683    2      1      
iter:   5  10:54:03         -2.44  -180.414243    2      2      
iter:   6  10:54:03         -2.60  -180.394849    2      2      
iter:   7  10:54:04         -2.20  -180.420217    3      2      
iter:   8  10:54:04         -2.79  -180.412887    2      1      
iter:   9  10:54:05         -2.99  -180.409154    2      1      
iter:  10  10:54:05         -3.12  -180.412235    2      2      
iter:  11  10:54:06         -3.07  -180.405690    2      1      
iter:  12  10:54:06         -3.54  -180.406513    2      1      
iter:  13  10:54:07         -3.64  -180.410676    2      1      
iter:  14  10:54:07         -3.26  -180.406932    2      1      
iter:  15  10:54:08         -3.95  -180.406562    2      1      
iter:  16  10:54:08         -3.97  -180.407321    2      1      
iter:  17  10:54:09         -3.94  -180.406840    2      1      
iter:  18  10:54:09         -4.08  -180.406781    2      1      

Converged after 18 iterations.

Dipole moment: (-1.169275, -0.466783, 0.473413) |e|*Ang

Energy contributions relative to reference atoms: (reference = -24663.074771)

Kinetic:       +117.129708
Potential:     -123.376601
External:        +0.000000
XC:            -177.081494
Entropy (-ST):   -0.103113
Local:           +2.973163
--------------------------
Free energy:   -180.458338
Extrapolated:  -180.406781

Fermi level: -4.03482

 Band  Eigenvalues  Occupancy
    0    -22.94583    2.00000
    1    -22.46911    2.00000
    2    -22.24425    2.00000
    3    -21.67757    2.00000
    4    -21.07775    2.00000
    5    -20.39746    2.00000
    6    -20.09704    2.00000
    7    -19.76343    2.00000
    8    -18.92846    2.00000
    9    -18.41808    2.00000
   10    -17.57399    2.00000
   11    -16.80663    2.00000
   12    -16.56061    2.00000
   13    -15.77353    2.00000
   14    -15.38203    2.00000
   15    -14.85595    2.00000
   16    -14.39064    2.00000
   17    -14.05192    2.00000
   18    -13.48071    2.00000
   19    -13.08180    2.00000
   20    -12.71219    2.00000
   21    -12.06379    2.00000
   22    -11.82557    2.00000
   23    -10.81937    2.00000
   24    -10.65703    2.00000
   25    -10.52215    2.00000
   26    -10.01107    2.00000
   27     -9.82818    2.00000
   28     -9.61454    2.00000
   29     -9.38757    2.00000
   30     -9.30178    2.00000
   31     -9.13618    2.00000
   32     -8.83331    2.00000
   33     -8.79546    2.00000
   34     -8.24345    2.00000
   35     -7.87869    2.00000
   36     -7.84664    2.00000
   37     -7.55828    2.00000
   38     -7.44180    2.00000
   39     -7.31416    2.00000
   40     -6.64684    2.00000
   41     -6.44850    2.00000
   42     -6.29416    2.00000
   43     -5.90638    2.00000
   44     -5.65813    2.00000
   45     -5.63501    2.00000
   46     -5.09415    1.99995
   47     -4.29929    1.86736
   48     -3.75969    0.12003
   49     -3.46361    0.00659
   50     -3.43361    0.00489
   51     -3.29097    0.00118
   52     -2.75546    0.00001
   53     -2.26223    0.00000
   54     -1.90069    0.00000
   55     -1.64468    0.00000
   56     -1.47834    0.00000
   57     -1.05991    0.00000
   58     -0.43744    0.00000
   59     -0.23245    0.00000
   60     -0.14544    0.00000
   61      0.24642    0.00000
   62      0.97971    0.00000
   63      1.53560    0.00000
   64      2.97921    0.00000
   65      3.59827    0.00000
   66      3.64050    0.00000
   67      4.00626    0.00000
   68      4.01976    0.00000
   69      4.58608    0.00000
   70      4.89826    0.00000
   71      4.98011    0.00000
   72      5.52914    0.00000
   73      5.72659    0.00000
   74      6.59891    0.00000
   75      6.95086    0.00000
   76      7.10613    0.00000
   77      7.14345    0.00000
   78      7.52285    0.00000
   79      7.80803    0.00000
   80      8.19090    0.00000
   81      8.24998    0.00000
   82      8.52443    0.00000
   83      8.72976    0.00000
   84      8.75779    0.00000
   85      8.88392    0.00000
   86      8.99254    0.00000
   87      9.17264    0.00000
   88      9.21923    0.00000
   89      9.43921    0.00000
   90      9.64340    0.00000
   91      9.73285    0.00000
   92      9.82829    0.00000
   93      9.84412    0.00000
   94     10.08093    0.00000
   95     10.09146    0.00000
   96     10.13247    0.00000
   97     10.46550    0.00000


Forces in eV/Ang:
  0 C    -0.65844   -0.19583    0.05390
  1 C     0.21127    0.38536    0.10681
  2 C     0.14291   -0.56701    0.08727
  3 C     0.12892   -0.32211   -0.08781
  4 C     0.20452    0.28608    0.22039
  5 C    -0.56148   -0.42105    0.09536
  6 C     0.07639    0.42173    0.21159
  7 C     0.15715    0.03472    0.26393
  8 C     0.35823   -0.18472   -0.45727
  9 C    -0.52371   -0.11854   -0.16301
 10 C     1.03219   -1.25860   -0.73590
 11 C     0.33249   -1.53037   -0.83288
 12 C    -0.62354   -0.18227    0.06924
 13 C     0.36791   -0.24480   -0.12737
 14 C    -0.08898    0.38779    0.41945
 15 C    -0.02385    0.33525    0.16520
 16 C     0.33280   -0.23452    0.02769
 17 C    -0.67935   -0.02347    0.25937
 18 C     0.30279   -0.37047   -0.07235
 19 C     0.19883   -0.12114    0.18568
 20 C     0.14772    0.58020   -0.19374
 21 C    -0.55909   -0.04997   -0.14189
 22 C     0.22623    1.74359    0.35679
 23 C    -0.51256    1.65412    0.32031

System changes: positions 

Initializing position-dependent things.

Density initialized from wave functions
           .--------------------------------------.  
          /|                                      |  
         / |                                      |  
        /  |                                      |  
       /   |                                      |  
      /    |                                      |  
     /     |                                      |  
    /      |                                      |  
   /       |                                      |  
  /        |          C   C                       |  
 *         |  C C   C      C   C  C               |  
 |         | C       C   C        C               |  
 |         .---------C---C--------C---------------.  
 |        /  C             C   C                 /   
 |       /    C     C             C             /    
 |      /        C     C  C                    /     
 |     /                                      /      
 |    /                                      /       
 |   /                                      /        
 |  /                                      /         
 | /                                      /          
 |/                                      /           
 *--------------------------------------*            

Positions:
   0 C      6.312905    9.779461    5.973754
   1 C      7.554296    9.927161    5.819676
   2 C      4.110112    8.558098    5.848317
   3 C      5.522426    8.628206    5.799110
   4 C     10.914879   10.163795    4.914427
   5 C      3.372137    7.538865    5.755581
   6 C      8.512304    8.930300    5.527266
   7 C      9.886622    9.193916    5.284701
   8 C      6.419137    7.444682    5.522785
   9 C      3.138327    6.250531    5.528089
  10 C      7.811380    7.683624    5.442973
  11 C     11.142264    8.731309    4.995118
  12 C      7.888314    3.905837    3.838895
  13 C      9.024523    4.449354    3.831696
  14 C      5.384729    3.802822    4.120160
  15 C      6.650191    4.417855    4.269963
  16 C     11.939985    6.339640    3.524394
  17 C      4.268746    4.205591    4.550122
  18 C      9.375121    5.711516    4.360718
  19 C     10.662087    6.299267    4.232669
  20 C      6.869535    5.765443    4.913993
  21 C      3.450475    5.090976    5.108709
  22 C      8.189252    6.276716    4.932721
  23 C     11.514556    7.339240    4.488287

Unit cell:
           periodic     x           y           z      points  spacing
  1. axis:    yes   16.000000    0.000000    0.000000    80     0.2000
  2. axis:    yes    0.000000   16.000000    0.000000    80     0.2000
  3. axis:    yes    0.000000    0.000000   10.000000    48     0.2083

Effective grid spacing dv^(1/3) = 0.2027

                     log10-error:    total        iterations:
           time      wfs    density  energy       fermi  poisson
iter:   1  10:54:11          +inf  -180.748575    2      5      
iter:   2  10:54:11         -2.04  -180.698397    3      2      
iter:   3  10:54:12         -2.14  -180.615339    3      2      
iter:   4  10:54:13         -2.43  -180.620308    2      1      
iter:   5  10:54:13         -2.49  -180.619845    3      2      
iter:   6  10:54:14         -2.67  -180.606915    2      2      
iter:   7  10:54:14         -2.45  -180.620846    3      2      
iter:   8  10:54:15         -3.02  -180.616138    2      1      
iter:   9  10:54:15         -3.21  -180.614495    2      1      
iter:  10  10:54:16         -3.20  -180.615080    2      1      
iter:  11  10:54:16         -3.60  -180.615588    2      1      
iter:  12  10:54:17         -3.58  -180.616228    2      1      
iter:  13  10:54:17         -3.85  -180.614790    2      1      
iter:  14  10:54:18         -4.03  -180.615037    2      1      

Converged after 14 iterations.

Dipole moment: (-1.230953, -0.484279, 0.475643) |e|*Ang

Energy contributions relative to reference atoms: (reference = -24663.074771)

Kinetic:       +108.529891
Potential:     -116.717059
External:        +0.000000
XC:            -175.334702
Entropy (-ST):   -0.084177
Local:           +2.948923
--------------------------
Free energy:   -180.657125
Extrapolated:  -180.615037

Fermi level: -3.99478

 Band  Eigenvalues  Occupancy
    0    -22.83593    2.00000
    1    -22.38888    2.00000
    2    -22.18272    2.00000
    3    -21.61681    2.00000
    4    -21.05174    2.00000
    5    -20.36418    2.00000
    6    -20.07472    2.00000
    7    -19.73560    2.00000
    8    -18.94077    2.00000
    9    -18.37747    2.00000
   10    -17.55017    2.00000
   11    -16.75516    2.00000
   12    -16.58102    2.00000
   13    -15.57961    2.00000
   14    -15.37118    2.00000
   15    -14.81201    2.00000
   16    -14.36905    2.00000
   17    -13.98525    2.00000
   18    -13.46800    2.00000
   19    -13.13134    2.00000
   20    -12.73622    2.00000
   21    -12.07467    2.00000
   22    -11.85696    2.00000
   23    -10.69775    2.00000
   24    -10.61344    2.00000
   25    -10.44510    2.00000
   26    -10.00844    2.00000
   27     -9.75277    2.00000
   28     -9.60382    2.00000
   29     -9.35067    2.00000
   30     -9.30707    2.00000
   31     -9.16478    2.00000
   32     -8.92608    2.00000
   33     -8.82481    2.00000
   34     -8.21549    2.00000
   35     -7.85971    2.00000
   36     -7.85236    2.00000
   37     -7.60842    2.00000
   38     -7.43338    2.00000
   39     -7.29709    2.00000
   40     -6.61844    2.00000
   41     -6.44570    2.00000
   42     -6.30272    2.00000
   43     -5.86347    2.00000
   44     -5.64164    2.00000
   45     -5.63566    2.00000
   46     -5.04666    1.99995
   47     -4.29307    1.90359
   48     -3.67217    0.07638
   49     -3.47784    0.01131
   50     -3.43270    0.00722
   51     -3.27774    0.00154
   52     -2.84502    0.00002
   53     -2.32346    0.00000
   54     -1.90821    0.00000
   55     -1.74216    0.00000
   56     -1.43931    0.00000
   57     -0.87261    0.00000
   58     -0.52054    0.00000
   59     -0.28710    0.00000
   60     -0.22605    0.00000
   61      0.20096    0.00000
   62      0.91880    0.00000
   63      1.53443    0.00000
   64      2.96712    0.00000
   65      3.45706    0.00000
   66      3.55841    0.00000
   67      3.81583    0.00000
   68      3.99334    0.00000
   69      4.46753    0.00000
   70      4.71653    0.00000
   71      4.93431    0.00000
   72      5.42205    0.00000
   73      5.74746    0.00000
   74      6.49240    0.00000
   75      6.75977    0.00000
   76      7.02402    0.00000
   77      7.09685    0.00000
   78      7.37016    0.00000
   79      7.87060    0.00000
   80      8.16699    0.00000
   81      8.40409    0.00000
   82      8.53909    0.00000
   83      8.67219    0.00000
   84      8.74175    0.00000
   85      8.89752    0.00000
   86      8.93259    0.00000
   87      9.13783    0.00000
   88      9.21994    0.00000
   89      9.39723    0.00000
   90      9.62820    0.00000
   91      9.75971    0.00000
   92      9.77071    0.00000
   93      9.81697    0.00000
   94     10.00596    0.00000
   95     10.10634    0.00000
   96     10.10771    0.00000
   97     10.50557    0.00000


Forces in eV/Ang:
  0 C     0.08470   -0.16507   -0.06214
  1 C    -0.32784    0.14996    0.18321
  2 C     0.25230   -0.54719    0.08527
  3 C    -0.02104   -0.40530   -0.11190
  4 C     0.45837    0.07239    0.17437
  5 C    -0.36285   -0.37619    0.04083
  6 C    -0.14411    0.13767    0.21711
  7 C     0.42562   -0.22650    0.07042
  8 C     0.51230   -0.14343   -0.46771
  9 C    -0.51836   -0.47454   -0.23538
 10 C     0.87894   -1.25278   -0.72247
 11 C     0.06061   -1.78488   -0.99165
 12 C     0.00087    0.17576    0.06907
 13 C    -0.17241   -0.34883    0.00451
 14 C     0.00520    0.41001    0.43578
 15 C    -0.19071    0.30656    0.13378
 16 C     0.45512    0.04951    0.18361
 17 C    -0.50006    0.06009    0.21255
 18 C    -0.01448   -0.24109    0.07135
 19 C     0.30196    0.27362    0.24713
 20 C     0.33500    0.61924   -0.21522
 21 C    -0.73255    0.26485    0.01722
 22 C     0.07074    1.66257    0.34090
 23 C    -0.87646    1.80231    0.31622

System changes: positions 

Initializing position-dependent things.

Density initialized from wave functions
           .--------------------------------------.  
          /|                                      |  
         / |                                      |  
        /  |                                      |  
       /   |                                      |  
      /    |                                      |  
     /     |                                      |  
    /      |                                      |  
   /       |                                      |  
  /        |          C   C                       |  
 *         |  C C   C      C   C  C               |  
 |         |C        C   C        C               |  
[...]
External:        +0.000000
XC:            -178.018884
Entropy (-ST):   -0.089427
Local:           +2.993589
--------------------------
Free energy:   -182.829864
Extrapolated:  -182.785150

Fermi level: -4.00629

 Band  Eigenvalues  Occupancy
    0    -23.21717    2.00000
    1    -22.60928    2.00000
    2    -22.18615    2.00000
    3    -21.56469    2.00000
    4    -21.02253    2.00000
    5    -20.33771    2.00000
    6    -20.08836    2.00000
    7    -19.96537    2.00000
    8    -18.97856    2.00000
    9    -18.29359    2.00000
   10    -17.55245    2.00000
   11    -16.89232    2.00000
   12    -16.36314    2.00000
   13    -16.15769    2.00000
   14    -15.21751    2.00000
   15    -15.21126    2.00000
   16    -14.22927    2.00000
   17    -14.10194    2.00000
   18    -13.59259    2.00000
   19    -13.30177    2.00000
   20    -12.94608    2.00000
   21    -12.35158    2.00000
   22    -12.05851    2.00000
   23    -10.81400    2.00000
   24    -10.70439    2.00000
   25    -10.21698    2.00000
   26    -10.19930    2.00000
   27     -9.86186    2.00000
   28     -9.67805    2.00000
   29     -9.64115    2.00000
   30     -9.39613    2.00000
   31     -9.35449    2.00000
   32     -9.26236    2.00000
   33     -8.86261    2.00000
   34     -8.13706    2.00000
   35     -7.91818    2.00000
   36     -7.79560    2.00000
   37     -7.60455    2.00000
   38     -7.55745    2.00000
   39     -7.41812    2.00000
   40     -6.60160    2.00000
   41     -6.37084    2.00000
   42     -6.32912    2.00000
   43     -5.77370    2.00000
   44     -5.69607    2.00000
   45     -5.41476    2.00000
   46     -5.07078    1.99995
   47     -4.28522    1.88419
   48     -3.72603    0.11436
   49     -3.27294    0.00131
   50     -3.01393    0.00010
   51     -2.99138    0.00008
   52     -2.83997    0.00002
   53     -2.62045    0.00000
   54     -2.09370    0.00000
   55     -1.38777    0.00000
   56     -1.29237    0.00000
   57     -0.78632    0.00000
   58     -0.32215    0.00000
   59      0.45957    0.00000
   60      0.56382    0.00000
   61      1.67006    0.00000
   62      1.79422    0.00000
   63      2.85279    0.00000
   64      2.92129    0.00000
   65      3.56947    0.00000
   66      3.60425    0.00000
   67      3.87549    0.00000
   68      3.92513    0.00000
   69      4.44178    0.00000
   70      4.81376    0.00000
   71      4.88107    0.00000
   72      4.97570    0.00000
   73      5.38263    0.00000
   74      5.69262    0.00000
   75      5.93377    0.00000
   76      6.49109    0.00000
   77      6.49844    0.00000
   78      7.60619    0.00000
   79      7.99133    0.00000
   80      8.19152    0.00000
   81      8.29939    0.00000
   82      8.68421    0.00000
   83      8.74079    0.00000
   84      8.93190    0.00000
   85      8.93916    0.00000
   86      9.00838    0.00000
   87      9.27481    0.00000
   88      9.37550    0.00000
   89      9.39608    0.00000
   90      9.75158    0.00000
   91      9.77391    0.00000
   92      9.94715    0.00000
   93      9.98453    0.00000
   94     10.10376    0.00000
   95     10.20216    0.00000
   96     10.28998    0.00000
   97     10.41370    0.00000


Forces in eV/Ang:
  0 C     0.04329   -0.04809    0.00901
  1 C    -0.02831    0.02047   -0.03392
  2 C    -0.00218   -0.04227    0.05586
  3 C     0.01345   -0.00407    0.03332
  4 C     0.05101    0.05171    0.08680
  5 C     0.05738    0.09752    0.01737
  6 C    -0.03292   -0.03084   -0.01462
  7 C    -0.00210    0.04760    0.00024
  8 C    -0.01425   -0.00580   -0.00819
  9 C    -0.03268    0.00650   -0.01419
 10 C    -0.03322   -0.04421   -0.04227
 11 C    -0.01826   -0.00388   -0.00356
 12 C     0.00906    0.05443    0.04093
 13 C    -0.05050   -0.01527   -0.04282
 14 C     0.00815    0.01166    0.04994
 15 C     0.03473   -0.00417    0.01873
 16 C     0.08194   -0.05588    0.00763
 17 C     0.10217   -0.06894   -0.04815
 18 C    -0.04173    0.01318   -0.01101
 19 C     0.02042   -0.02017   -0.04095
 20 C    -0.02660   -0.00558   -0.01364
 21 C    -0.02762    0.02740   -0.01064
 22 C    -0.08597    0.03035   -0.00165
 23 C    -0.01336   -0.04652   -0.02063

System changes: positions 

Initializing position-dependent things.

Density initialized from wave functions
           .--------------------------------------.  
          /|                                      |  
         / |                                      |  
        /  |                                      |  
       /   |                                      |  
      /    |                                      |  
     /     |                                      |  
    /      |                                      |  
   /       |                                      |  
  /        |          C  C         C              |  
 *         |    C   C       C  C                  |  
 |         | C        C  C        C               |  
 |         C----------C---C-------C---------------.  
 |        /C                C  C                 /   
 |       /   C  C   C              C            /    
 |      /             C   C                    /     
 |     /                                      /      
 |    /                                      /       
 |   /                                      /        
 |  /                                      /         
 | /                                      /          
 |/                                      /           
 *--------------------------------------*            

Positions:
   0 C      6.266017    9.564270    6.042070
   1 C      7.477731    9.892345    5.945835
   2 C      4.267077    7.940020    5.794405
   3 C      5.616245    8.319774    5.740436
   4 C     11.215567   10.137424    5.148122
   5 C      3.209737    7.263482    5.736299
   6 C      8.588326    9.087552    5.507671
   7 C      9.972820    9.359639    5.269573
   8 C      6.667871    7.410029    5.321550
   9 C      2.549264    6.112149    5.472933
  10 C      8.048057    7.808139    5.231061
  11 C     11.109095    8.736307    4.813782
  12 C      7.755728    3.981975    4.004155
  13 C      8.953027    4.366046    3.931203
  14 C      5.239124    4.321235    4.468953
  15 C      6.586260    4.701996    4.420133
  16 C     12.232531    6.346156    3.749941
  17 C      3.999174    4.332453    4.667716
  18 C      9.509266    5.652606    4.258300
  19 C     10.815972    6.227977    4.132266
  20 C      7.043159    6.022023    4.814624
  21 C      2.862564    4.956728    5.052343
  22 C      8.421080    6.429049    4.727873
  23 C     11.464458    7.421609    4.332838

Unit cell:
           periodic     x           y           z      points  spacing
  1. axis:    yes   16.000000    0.000000    0.000000    80     0.2000
  2. axis:    yes    0.000000   16.000000    0.000000    80     0.2000
  3. axis:    yes    0.000000    0.000000   10.000000    48     0.2083

Effective grid spacing dv^(1/3) = 0.2027

                     log10-error:    total        iterations:
           time      wfs    density  energy       fermi  poisson
iter:   1  10:57:08          +inf  -182.791948    2      5      
iter:   2  10:57:08         -2.77  -182.791104    2      1      
iter:   3  10:57:09         -2.84  -182.788346    2      2      
iter:   4  10:57:09         -3.06  -182.790181    2      1      
iter:   5  10:57:10         -3.12  -182.788255    2      2      
iter:   6  10:57:10         -3.04  -182.788375    2      1      
iter:   7  10:57:11         -3.14  -182.789716    2      1      
iter:   8  10:57:11         -3.29  -182.789284    2      1      
iter:   9  10:57:12         -3.95  -182.788941    2      1      
iter:  10  10:57:12         -4.26  -182.788902    2      1      

Converged after 10 iterations.

Dipole moment: (-1.417939, -0.442401, 0.208708) |e|*Ang

Energy contributions relative to reference atoms: (reference = -24663.074771)

Kinetic:       +111.192536
Potential:     -119.010579
External:        +0.000000
XC:            -177.918163
Entropy (-ST):   -0.088345
Local:           +2.991477
--------------------------
Free energy:   -182.833075
Extrapolated:  -182.788902

Fermi level: -4.00795

 Band  Eigenvalues  Occupancy
    0    -23.22064    2.00000
    1    -22.60268    2.00000
    2    -22.18257    2.00000
    3    -21.56935    2.00000
    4    -21.01372    2.00000
    5    -20.33471    2.00000
    6    -20.08915    2.00000
    7    -19.96980    2.00000
    8    -18.98294    2.00000
    9    -18.29073    2.00000
   10    -17.54894    2.00000
   11    -16.89966    2.00000
   12    -16.35612    2.00000
   13    -16.13856    2.00000
   14    -15.21492    2.00000
   15    -15.20634    2.00000
   16    -14.23453    2.00000
   17    -14.10041    2.00000
   18    -13.60185    2.00000
   19    -13.29656    2.00000
   20    -12.94275    2.00000
   21    -12.35782    2.00000
   22    -12.06797    2.00000
   23    -10.81547    2.00000
   24    -10.69773    2.00000
   25    -10.21686    2.00000
   26    -10.20163    2.00000
   27     -9.85785    2.00000
   28     -9.67290    2.00000
   29     -9.65017    2.00000
   30     -9.39418    2.00000
   31     -9.34653    2.00000
   32     -9.25246    2.00000
   33     -8.86428    2.00000
   34     -8.13792    2.00000
   35     -7.91554    2.00000
   36     -7.79690    2.00000
   37     -7.60236    2.00000
   38     -7.55784    2.00000
   39     -7.42017    2.00000
   40     -6.60156    2.00000
   41     -6.36303    2.00000
   42     -6.33478    2.00000
   43     -5.77863    2.00000
   44     -5.69748    2.00000
   45     -5.41075    2.00000
   46     -5.07058    1.99995
   47     -4.28851    1.88596
   48     -3.72620    0.11277
   49     -3.26073    0.00114
   50     -3.01331    0.00010
   51     -2.98010    0.00007
   52     -2.83103    0.00002
   53     -2.62159    0.00000
   54     -2.09182    0.00000
   55     -1.40212    0.00000
   56     -1.29743    0.00000
   57     -0.79937    0.00000
   58     -0.32292    0.00000
   59      0.46238    0.00000
   60      0.56504    0.00000
   61      1.66797    0.00000
   62      1.78764    0.00000
   63      2.88703    0.00000
   64      2.91734    0.00000
   65      3.57802    0.00000
   66      3.60017    0.00000
   67      3.87042    0.00000
   68      3.89626    0.00000
   69      4.41210    0.00000
   70      4.80479    0.00000
   71      4.87228    0.00000
   72      4.94130    0.00000
   73      5.39244    0.00000
   74      5.64294    0.00000
   75      5.92414    0.00000
   76      6.48584    0.00000
   77      6.49861    0.00000
   78      7.58939    0.00000
   79      7.97073    0.00000
   80      8.19061    0.00000
   81      8.31152    0.00000
   82      8.68444    0.00000
   83      8.73267    0.00000
   84      8.93492    0.00000
   85      8.94218    0.00000
   86      9.01970    0.00000
   87      9.27093    0.00000
   88      9.35134    0.00000
   89      9.39937    0.00000
   90      9.75283    0.00000
   91      9.78385    0.00000
   92      9.94265    0.00000
   93      9.98403    0.00000
   94     10.09881    0.00000
   95     10.19721    0.00000
   96     10.27603    0.00000
   97     10.41474    0.00000


Forces in eV/Ang:
  0 C    -0.04163   -0.01127   -0.00115
  1 C    -0.01529    0.03058   -0.01764
  2 C     0.03777    0.00637    0.05258
  3 C     0.02462    0.00882    0.03587
  4 C     0.05366    0.03829    0.06639
  5 C     0.03948    0.01336    0.00331
  6 C    -0.06360   -0.02997    0.00014
  7 C     0.04106    0.04020   -0.02279
  8 C    -0.00975    0.02039   -0.01889
  9 C     0.01903   -0.00646   -0.03115
 10 C    -0.00487   -0.09916   -0.06765
 11 C    -0.01743   -0.03937   -0.03263
 12 C     0.01724    0.00001   -0.01116
 13 C    -0.05421   -0.02540   -0.02949
 14 C     0.04208   -0.02510    0.05029
 15 C     0.02110   -0.00118   -0.01480
 16 C     0.06442   -0.04900    0.02847
 17 C     0.02016   -0.01340   -0.01494
 18 C    -0.02464   -0.00335    0.01390
 19 C     0.01772   -0.01785   -0.04739
 20 C    -0.00959    0.00374   -0.02706
 21 C     0.00497    0.04698   -0.02243
 22 C    -0.08495    0.07814    0.02799
 23 C    -0.02757    0.04370   -0.00102

System changes: positions 

Initializing position-dependent things.

Density initialized from wave functions
           .--------------------------------------.  
          /|                                      |  
         / |                                      |  
        /  |                                      |  
       /   |                                      |  
      /    |                                      |  
     /     |                                      |  
    /      |                                      |  
   /       |                                      |  
  /        |          C  C         C              |  
 *         |    C   C       C  C                  |  
 |         | C        C  C        C               |  
 |         C----------C---C-------C---------------.  
 |        /C                C  C                 /   
 |       /   C  C   C              C            /    
 |      /             C   C                    /     
 |     /                                      /      
 |    /                                      /       
 |   /                                      /        
 |  /                                      /         
 | /                                      /          
 |/                                      /           
 *--------------------------------------*            

Positions:
   0 C      6.268070    9.559378    6.046121
   1 C      7.477498    9.893320    5.943444
   2 C      4.268014    7.935060    5.796246
   3 C      5.616869    8.316432    5.743774
   4 C     11.219844   10.136707    5.155432
   5 C      3.207281    7.264044    5.735558
   6 C      8.587723    9.088610    5.503090
   7 C      9.973854    9.361838    5.266605
   8 C      6.668576    7.409601    5.321571
   9 C      2.546639    6.112033    5.472372
  10 C      8.047944    7.808980    5.226972
  11 C     11.109510    8.736560    4.813124
  12 C      7.755534    3.983360    4.009813
  13 C      8.952012    4.366534    3.928409
  14 C      5.237694    4.324388    4.471930
  15 C      6.585516    4.702559    4.423678
  16 C     12.237015    6.343361    3.754586
  17 C      3.996697    4.330604    4.665500
  18 C      9.508981    5.654185    4.253378
  19 C     10.816857    6.227426    4.128124
  20 C      7.043292    6.022477    4.814691
  21 C      2.860389    4.956718    5.051592
  22 C      8.420328    6.430367    4.724156
  23 C     11.465383    7.421036    4.331556

Unit cell:
           periodic     x           y           z      points  spacing
  1. axis:    yes   16.000000    0.000000    0.000000    80     0.2000
  2. axis:    yes    0.000000   16.000000    0.000000    80     0.2000
  3. axis:    yes    0.000000    0.000000   10.000000    48     0.2083

Effective grid spacing dv^(1/3) = 0.2027

                     log10-error:    total        iterations:
           time      wfs    density  energy       fermi  poisson
iter:   1  10:57:14          +inf  -182.792680    2      4      
iter:   2  10:57:15         -2.99  -182.792265    2      1      
iter:   3  10:57:15         -3.08  -182.790695    2      1      
iter:   4  10:57:16         -3.35  -182.790712    2      1      
iter:   5  10:57:16         -3.69  -182.790246    2      1      
iter:   6  10:57:17         -3.76  -182.790335    2      1      
iter:   7  10:57:17         -3.91  -182.790865    2      1      
iter:   8  10:57:18         -3.61  -182.790224    2      1      
iter:   9  10:57:18         -4.06  -182.790266    2      1      

Converged after 9 iterations.

Dipole moment: (-1.422509, -0.441710, 0.202507) |e|*Ang

Energy contributions relative to reference atoms: (reference = -24663.074771)

Kinetic:       +110.985409
Potential:     -118.855422
External:        +0.000000
XC:            -177.867880
Entropy (-ST):   -0.087552
Local:           +2.991402
--------------------------
Free energy:   -182.834042
Extrapolated:  -182.790266

Fermi level: -4.00884

 Band  Eigenvalues  Occupancy
    0    -23.22641    2.00000
    1    -22.59403    2.00000
    2    -22.17405    2.00000
    3    -21.57192    2.00000
    4    -21.01086    2.00000
    5    -20.33831    2.00000
    6    -20.08818    2.00000
    7    -19.96907    2.00000
    8    -18.98336    2.00000
    9    -18.28836    2.00000
   10    -17.54855    2.00000
   11    -16.90254    2.00000
   12    -16.35424    2.00000
   13    -16.12949    2.00000
   14    -15.21687    2.00000
   15    -15.20157    2.00000
   16    -14.23592    2.00000
   17    -14.09873    2.00000
   18    -13.60276    2.00000
   19    -13.29462    2.00000
   20    -12.94195    2.00000
   21    -12.36212    2.00000
   22    -12.07260    2.00000
   23    -10.81782    2.00000
   24    -10.69242    2.00000
   25    -10.21731    2.00000
   26    -10.20233    2.00000
   27     -9.85363    2.00000
   28     -9.66982    2.00000
   29     -9.65486    2.00000
   30     -9.39591    2.00000
   31     -9.34324    2.00000
   32     -9.24854    2.00000
   33     -8.86308    2.00000
   34     -8.13197    2.00000
   35     -7.91725    2.00000
   36     -7.79611    2.00000
   37     -7.60072    2.00000
   38     -7.55571    2.00000
   39     -7.42100    2.00000
   40     -6.60271    2.00000
   41     -6.36235    2.00000
   42     -6.33516    2.00000
   43     -5.78000    2.00000
   44     -5.69730    2.00000
   45     -5.41003    2.00000
   46     -5.07273    1.99995
   47     -4.29065    1.88729
   48     -3.72591    0.11152
   49     -3.25450    0.00106
   50     -3.01323    0.00009
   51     -2.97278    0.00006
   52     -2.82761    0.00001
   53     -2.62258    0.00000
   54     -2.09406    0.00000
   55     -1.40889    0.00000
   56     -1.29928    0.00000
   57     -0.80812    0.00000
   58     -0.32329    0.00000
   59      0.46581    0.00000
   60      0.56257    0.00000
   61      1.66397    0.00000
   62      1.78583    0.00000
   63      2.89895    0.00000
   64      2.91359    0.00000
   65      3.56801    0.00000
   66      3.60860    0.00000
   67      3.86876    0.00000
   68      3.88090    0.00000
   69      4.39082    0.00000
   70      4.79689    0.00000
   71      4.87682    0.00000
   72      4.92781    0.00000
   73      5.39754    0.00000
   74      5.62488    0.00000
   75      5.92243    0.00000
   76      6.48848    0.00000
   77      6.49314    0.00000
   78      7.58488    0.00000
   79      7.96690    0.00000
   80      8.19138    0.00000
   81      8.31843    0.00000
   82      8.68485    0.00000
   83      8.73115    0.00000
   84      8.93520    0.00000
   85      8.94667    0.00000
   86      9.02314    0.00000
   87      9.26923    0.00000
   88      9.34427    0.00000
   89      9.40014    0.00000
   90      9.75274    0.00000
   91      9.78953    0.00000
   92      9.94112    0.00000
   93      9.98372    0.00000
   94     10.09538    0.00000
   95     10.19426    0.00000
   96     10.27081    0.00000
   97     10.41599    0.00000


Forces in eV/Ang:
  0 C    -0.07706    0.02513   -0.00089
  1 C     0.00284    0.01937   -0.00991
  2 C     0.03008    0.02532    0.04790
  3 C     0.02101    0.00892    0.03015
  4 C     0.05660    0.00146    0.04017
  5 C     0.04975   -0.01541    0.00273
  6 C    -0.03567   -0.01451    0.00084
  7 C    -0.00316    0.02931   -0.01125
  8 C    -0.01402    0.01044   -0.02144
  9 C     0.02828   -0.00922   -0.03931
 10 C     0.00617   -0.07107   -0.06776
 11 C     0.00900   -0.03921   -0.03689
 12 C    -0.01395   -0.03753   -0.03927
 13 C    -0.00541   -0.00408   -0.01854
 14 C     0.02915   -0.04340    0.05168
 15 C     0.01012    0.00242   -0.01558
 16 C     0.01310   -0.02008    0.03886
 17 C     0.00195    0.02166    0.00585
 18 C    -0.04243   -0.02163    0.01785
 19 C     0.04241    0.01447   -0.04618
 20 C    -0.01695    0.00802   -0.02293
 21 C     0.02353    0.03914   -0.03728
 22 C    -0.04145    0.05723    0.00070
 23 C    -0.02231    0.02895   -0.00542

