
  ___ ___ ___ _ _ _  
 |   |   |_  | | | | 
 | | | | | . | | | | 
 |__ |  _|___|_____|  1.3.0b1
 |___|_|             

User:   esb@s65n84.grendel.cscaa.dk
Date:   Thu Nov  9 12:13:23 2017
Arch:   x86_64
Pid:    58243
Python: 2.7.13
gpaw:   /home/esb/DFT/gpaw_git/gpaw
_gpaw:  /home/esb/DFT/gpaw_git/build/bin.linux-x86_64-2.7/gpaw-python
ase:    /home/esb/DFT/ase_git/ase (version 3.15.0b1)
numpy:  /comm/swstack/core/python/2.7.13/lib/python2.7/site-packages/numpy (version 1.13.3)
scipy:  /comm/swstack/core/python/2.7.13/lib/python2.7/site-packages/scipy (version 0.19.1)
units:  Angstrom and eV
cores:  16
Extra parameters: {'blacs': True}

Input parameters:
  basis: dzp
  gpts: [80 80 48]
  kpts: [1 1 1]
  maxiter: 99
  mixer: {backend: pulay,
          beta: 0.05,
          method: separate,
          nmaxold: 5,
          weight: 75}
  mode: lcao
  nbands: -50
  occupations: {name: fermi-dirac,
                width: 0.1}
  poissonsolver: {eps: 1e-07,
                  name: fd,
                  nn: 3,
                  relax: GS}
  xc: PBE

System changes: positions, numbers, cell, pbc, initial_charges, initial_magmoms 

Initialize ...

C-setup:
  name: Carbon
  id: 4aa54d4b901d75f77cc0ea3eec22967b
  Z: 6
  valence: 4
  core: 2
  charge: 0.0
  file: /home/esb/DFT/gpaw-setups-0.8.7929/C.PBE.gz
  cutoffs: 0.64(comp), 1.14(filt), 1.14(core), lmax=2
  valence states:
                energy  radius
    2s(2.00)   -13.751   0.635
    2p(2.00)    -5.284   0.635
    *s          13.461   0.635
    *p          21.927   0.635
    *d           0.000   0.635

  LCAO basis set for C:
    Name: dzp
    File: /home/esb/DFT/gpaw-setups-0.8.7929/C.dzp.basis.gz
    Number of radial functions: 5
    Number of spherical harmonics: 13
      l=0, rc=5.5469 Bohr: 2s-sz confined orbital
      l=1, rc=6.6719 Bohr: 2p-sz confined orbital
      l=0, rc=3.0312 Bohr: 2s-dz split-valence wave
      l=1, rc=3.7500 Bohr: 2p-dz split-valence wave
      l=2, rc=6.6719 Bohr: d-type Gaussian polarization

Reference energy: -24663.074771

Spin-paired calculation

Occupation numbers:
  Fermi-Dirac: width=0.1000 eV

Convergence criteria:
  Maximum total energy change: 0.0005 eV / electron
  Maximum integral of absolute density change: 0.0001 electrons
  Maximum integral of absolute eigenstate change: 4e-08 eV^2
  Maximum number of iterations: 99

Symmetries present (total): 1

  ( 1  0  0)
  ( 0  1  0)
  ( 0  0  1)

1 k-point (Gamma)
1 k-point in the irreducible part of the Brillouin zone
       k-points in crystal coordinates                weights
   0:     0.00000000    0.00000000    0.00000000          1/1

Wave functions: LCAO
  Diagonalizer: Serial LAPACK
  Atomic Correction: dense with blas
  Datatype: float
  Eigensolver: None 

LCAO using direct dense diagonalizer 

Densities:
  Coarse grid: 80*80*48 grid
  Fine grid: 160*160*96 grid
  Total Charge: 0.000000 

Density mixing:
  Method: separate
  Backend: pulay
  Linear mixing parameter: 0.05
  Mixing with 5 old densities
  Damping of long wave oscillations: 75 

Hamiltonian:
  XC and Coulomb potentials evaluated on a 160*160*96 grid
  Using the PBE Exchange-Correlation functional
  Interpolation: tri-quintic (5. degree polynomial)
  Poisson solver: Gauss-Seidel solver with 6 multi-grid levels
    Coarsest grid: 5 x 5 x 3 points
    Stencil: 6*3+1=19 point O(h^6) finite-difference Laplacian
    Max iterations: 1000
    Tolerance: 1.000000e-07 

Memory estimate:
  Process memory now: 77.57 MiB
  Calculator: 15.59 MiB
    Density: 6.13 MiB
      Arrays: 3.81 MiB
      Localized functions: 0.86 MiB
      Mixer: 1.46 MiB
    Hamiltonian: 5.40 MiB
      Arrays: 2.49 MiB
      XC: 0.00 MiB
      Poisson: 2.85 MiB
      vbar: 0.07 MiB
    Wavefunctions: 4.05 MiB
      C [qnM]: 0.23 MiB
      S, T [2 x qmm]: 1.49 MiB
      P [aqMi]: 0.01 MiB
      TCI: 0.00 MiB
      BasisFunctions: 2.33 MiB
      Eigensolver: 0.00 MiB

Total number of cores used: 16
Domain decomposition: 2 x 4 x 2

Number of atoms: 24
Number of atomic orbitals: 312
Number of bands in calculation: 98
Bands to converge: occupied states only
Number of valence electrons: 96

... initialized

Initializing position-dependent things.

Density initialized from atomic densities
           .--------------------------------------.  
          /|                                      |  
         / |                                      |  
        /  |                                      |  
       /   |                                      |  
      /    |                                      |  
     /     |                                      |  
    /      |              C                       |  
   /       |           C    C   C                 |  
  /        |    C  C                              |  
 *         |  C      C  C C   C                   |  
 |         | C         C                          |  
 |         .---C---C--C---------C-----------------.  
 |        /                 C                    /   
 |       /     C          C                     /    
 |      /       C    C C                       /     
 |     /                                      /      
 |    /                                      /       
 |   /                                      /        
 |  /                                      /         
 | /                                      /          
 |/                                      /           
 *--------------------------------------*            

Positions:
   0 C     11.387525    5.236468    5.416748
   1 C      9.332627    3.767634    4.716609
   2 C      9.631439    5.061326    5.156957
   3 C     11.192638    6.320165    5.221195
   4 C      8.196483    3.245403    4.540888
   5 C      9.839798    7.923426    6.151368
   6 C      7.688418    5.998818    5.658158
   7 C      7.114052    3.602126    4.009799
   8 C      8.544142    7.221970    5.899394
   9 C      7.068234    5.245421    5.193502
  10 C     10.328497    9.398341    6.575793
  11 C      8.733037    9.889053    6.865987
  12 C      3.352049    6.358422    5.445526
  13 C      4.568295    4.148335    4.788929
  14 C      4.446234    5.501828    5.204266
  15 C      5.264640    3.374306    4.434759
  16 C      3.662923    7.114385    6.440751
  17 C      3.951804    8.747438    6.381994
  18 C      5.836822    6.007366    5.420372
  19 C      5.344271    8.523028    6.330901
  20 C      6.235516    7.374686    6.541660
  21 C      7.455503   10.300399    7.034101
  22 C      6.761873    9.152721    6.591205
  23 C      7.331085    7.889891    6.135476

Unit cell:
           periodic     x           y           z      points  spacing
  1. axis:    yes   16.000000    0.000000    0.000000    80     0.2000
  2. axis:    yes    0.000000   16.000000    0.000000    80     0.2000
  3. axis:    yes    0.000000    0.000000   10.000000    48     0.2083

Effective grid spacing dv^(1/3) = 0.2027

                     log10-error:    total        iterations:
           time      wfs    density  energy       fermi  poisson
iter:   1  12:13:25          +inf  -163.754087    2      6      
iter:   2  12:13:26         -0.86  -161.841203    3      3      
iter:   3  12:13:26         -0.90  -157.672360    4      4      
iter:   4  12:13:27         -1.08  -157.072495    3      2      
iter:   5  12:13:28         -1.13  -156.295094    33     4      
iter:   6  12:13:29         -1.40  -156.186202    2      3      
iter:   7  12:13:29         -1.47  -156.144257    4      3      
iter:   8  12:13:30         -1.66  -156.099500    3      3      
iter:   9  12:13:31         -1.77  -156.023845    3      3      
iter:  10  12:13:31         -1.94  -155.997643    3      2      
iter:  11  12:13:32         -2.12  -155.996879    2      2      
iter:  12  12:13:32         -2.18  -155.985004    3      2      
iter:  13  12:13:33         -2.42  -155.980643    2      2      
iter:  14  12:13:34         -2.68  -155.974319    3      2      
iter:  15  12:13:34         -2.82  -155.973432    2      2      
iter:  16  12:13:35         -3.03  -155.975465    2      1      
iter:  17  12:13:36         -3.09  -155.976173    2      1      
iter:  18  12:13:36         -3.21  -155.974031    2      1      
iter:  19  12:13:37         -3.27  -155.974649    2      1      
iter:  20  12:13:38         -3.36  -155.965934    2      1      
iter:  21  12:13:38         -3.68  -155.970671    2      1      
iter:  22  12:13:39         -3.91  -155.972536    2      1      
iter:  23  12:13:39         -3.98  -155.972293    2      1      
iter:  24  12:13:40         -4.13  -155.972928    2      1      

Converged after 24 iterations.

Dipole moment: (-0.267786, -0.110267, 0.051515) |e|*Ang

Energy contributions relative to reference atoms: (reference = -24663.074771)

Kinetic:       +157.067943
Potential:     -147.101471
External:        +0.000000
XC:            -168.785720
Entropy (-ST):   -0.145712
Local:           +2.919176
--------------------------
Free energy:   -156.045784
Extrapolated:  -155.972928

Fermi level: -5.18455

 Band  Eigenvalues  Occupancy
    0    -24.74856    2.00000
    1    -23.24326    2.00000
    2    -21.65512    2.00000
    3    -21.25938    2.00000
    4    -20.75873    2.00000
    5    -20.58791    2.00000
    6    -20.14482    2.00000
    7    -19.92480    2.00000
    8    -18.69062    2.00000
    9    -18.06246    2.00000
   10    -17.85084    2.00000
   11    -17.11885    2.00000
   12    -16.64580    2.00000
   13    -15.48825    2.00000
   14    -15.05750    2.00000
   15    -14.56674    2.00000
   16    -13.92634    2.00000
   17    -13.25786    2.00000
   18    -12.99388    2.00000
   19    -12.43904    2.00000
   20    -11.83638    2.00000
   21    -11.71512    2.00000
   22    -11.41079    2.00000
   23    -10.76589    2.00000
   24    -10.57668    2.00000
   25    -10.44259    2.00000
   26    -10.11178    2.00000
   27     -9.94229    2.00000
   28     -9.55533    2.00000
   29     -9.25312    2.00000
   30     -9.07736    2.00000
   31     -8.71165    2.00000
   32     -8.36795    2.00000
   33     -8.25640    2.00000
   34     -8.06220    2.00000
   35     -7.74205    2.00000
   36     -7.61798    2.00000
   37     -7.49370    2.00000
   38     -7.33313    2.00000
   39     -7.09414    2.00000
   40     -7.04908    2.00000
   41     -6.50744    2.00000
   42     -6.12357    1.99983
   43     -6.07418    1.99973
   44     -5.96159    1.99916
   45     -5.79653    1.99561
   46     -5.56280    1.95548
   47     -5.43329    1.84650
   48     -4.96682    0.20361
   49     -4.16993    0.00008
   50     -3.86981    0.00000
   51     -3.84162    0.00000
   52     -3.35720    0.00000
   53     -2.91031    0.00000
   54     -2.66271    0.00000
   55     -2.36793    0.00000
   56     -2.02561    0.00000
   57     -1.82466    0.00000
   58     -1.59084    0.00000
   59     -0.85449    0.00000
   60     -0.79346    0.00000
   61     -0.45247    0.00000
   62     -0.21171    0.00000
   63      0.45007    0.00000
   64      0.60178    0.00000
   65      1.04890    0.00000
   66      1.20090    0.00000
   67      1.51831    0.00000
   68      2.08916    0.00000
   69      2.49288    0.00000
   70      2.58979    0.00000
   71      3.06933    0.00000
   72      3.17439    0.00000
   73      3.74543    0.00000
   74      3.87737    0.00000
   75      4.67950    0.00000
   76      5.11065    0.00000
   77      5.40525    0.00000
   78      6.05077    0.00000
   79      6.67105    0.00000
   80      7.02000    0.00000
   81      7.24403    0.00000
   82      7.53893    0.00000
   83      7.82476    0.00000
   84      8.18860    0.00000
   85      8.32417    0.00000
   86      8.34002    0.00000
   87      8.44366    0.00000
   88      8.84353    0.00000
   89      8.93614    0.00000
   90      9.04617    0.00000
   91      9.27791    0.00000
   92      9.30396    0.00000
   93      9.38662    0.00000
   94      9.66734    0.00000
   95      9.78699    0.00000
   96      9.83804    0.00000
   97      9.95921    0.00000


Forces in eV/Ang:
  0 C     1.18731  -20.41276    3.52734
  1 C     3.40553    4.34809    1.42251
  2 C     4.25747   -3.50533   -0.17602
  3 C    -5.95613   22.48738   -2.21938
  4 C     1.57025   -3.59986    0.36606
  5 C     0.51350    1.09280   -0.91352
  6 C    25.79761   18.32154   10.22333
  7 C    -9.41968    1.83120    0.76132
  8 C    -1.14218   -0.02865    0.68044
  9 C   -19.61149  -18.44764  -12.66646
 10 C    -5.88919   -2.88617   -0.57558
 11 C     3.17197   -0.49392   -0.20719
 12 C     0.39774   -1.39120    0.78909
 13 C   -12.68035   14.37527    5.73340
 14 C     1.52715   -0.81090   -0.15593
 15 C    17.11127  -14.18262   -7.74036
 16 C    -2.09696    6.29620   -0.75029
 17 C     0.57267   -4.46528    1.04106
 18 C    -1.89282   -0.13308    2.93171
 19 C     1.48606    2.03581    2.65434
 20 C   -10.45662   -7.09525   -3.81573
 21 C     2.64288   -0.80256   -0.10640
 22 C    -1.05412    2.37536   -2.01449
 23 C     6.57514    5.06931    1.26555

System changes: positions 

Initializing position-dependent things.

Density initialized from wave functions
           .--------------------------------------.  
          /|                                      |  
         / |                                      |  
        /  |                                      |  
       /   |                                      |  
      /    |                                      |  
     /     |                                      |  
    /      |              C                       |  
   /       |           C    C   C                 |  
  /        |    C  C                              |  
 *         |  C      C  C C   C                   |  
 |         | C          C                         |  
 |         .---C---C------------C-----------------.  
 |        /          C      C                    /   
 |       /     C          C                     /    
 |      /       C    C C                       /     
 |     /                                      /      
 |    /                                      /       
 |   /                                      /        
 |  /                                      /         
 | /                                      /          
 |/                                      /           
 *--------------------------------------*            

Positions:
   0 C     11.388954    5.211913    5.420991
   1 C      9.336724    3.772864    4.718320
   2 C      9.636560    5.057109    5.156745
   3 C     11.185474    6.347216    5.218525
   4 C      8.198372    3.241073    4.541328
   5 C      9.840416    7.924741    6.150269
   6 C      7.719451    6.020857    5.670456
   7 C      7.102721    3.604329    4.010715
   8 C      8.542768    7.221935    5.900213
   9 C      7.044643    5.223230    5.178265
  10 C     10.321413    9.394869    6.575101
  11 C      8.736852    9.888458    6.865738
  12 C      3.352527    6.356749    5.446475
  13 C      4.553041    4.165627    4.795826
  14 C      4.448071    5.500852    5.204078
  15 C      5.285224    3.357245    4.425448
  16 C      3.660401    7.121959    6.439848
  17 C      3.952493    8.742067    6.383247
  18 C      5.834545    6.007206    5.423899
  19 C      5.346059    8.525477    6.334094
  20 C      6.222938    7.366151    6.537070
  21 C      7.458682   10.299433    7.033973
  22 C      6.760605    9.155579    6.588782
  23 C      7.338995    7.895990    6.136998

Unit cell:
           periodic     x           y           z      points  spacing
  1. axis:    yes   16.000000    0.000000    0.000000    80     0.2000
  2. axis:    yes    0.000000   16.000000    0.000000    80     0.2000
  3. axis:    yes    0.000000    0.000000   10.000000    48     0.2083

Effective grid spacing dv^(1/3) = 0.2027

                     log10-error:    total        iterations:
           time      wfs    density  energy       fermi  poisson
iter:   1  12:13:42          +inf  -160.480379    4      5      
iter:   2  12:13:43         -1.96  -160.443217    3      2      
iter:   3  12:13:44         -2.06  -160.402673    3      2      
iter:   4  12:13:44         -2.25  -160.400398    2      2      
iter:   5  12:13:45         -2.30  -160.393949    3      2      
iter:   6  12:13:46         -2.50  -160.389210    3      2      
iter:   7  12:13:46         -2.76  -160.389136    2      1      
iter:   8  12:13:47         -2.83  -160.383965    2      2      
iter:   9  12:13:47         -3.13  -160.382535    2      1      
iter:  10  12:13:48         -3.21  -160.377272    2      1      
iter:  11  12:13:49         -3.46  -160.381591    2      1      
iter:  12  12:13:49         -3.51  -160.383250    2      1      
iter:  13  12:13:50         -3.72  -160.381303    2      1      
iter:  14  12:13:50         -3.95  -160.382962    2      1      
iter:  15  12:13:51         -4.00  -160.382594    2      1      

Converged after 15 iterations.

Dipole moment: (-0.251929, -0.150528, 0.033928) |e|*Ang

Energy contributions relative to reference atoms: (reference = -24663.074771)

Kinetic:       +129.583797
Potential:     -127.860041
External:        +0.000000
XC:            -164.854394
Entropy (-ST):   -0.143672
Local:           +2.819880
--------------------------
Free energy:   -160.454430
Extrapolated:  -160.382594

Fermi level: -5.15219

 Band  Eigenvalues  Occupancy
    0    -24.61482    2.00000
    1    -22.96682    2.00000
    2    -21.69396    2.00000
    3    -21.22167    2.00000
    4    -20.73614    2.00000
    5    -20.52769    2.00000
    6    -19.99907    2.00000
    7    -19.80601    2.00000
    8    -18.64307    2.00000
    9    -18.07643    2.00000
   10    -17.84496    2.00000
   11    -17.02678    2.00000
   12    -16.58745    2.00000
   13    -15.51063    2.00000
   14    -15.06227    2.00000
   15    -14.60334    2.00000
   16    -13.93232    2.00000
   17    -13.25815    2.00000
   18    -13.02493    2.00000
   19    -12.35745    2.00000
   20    -11.86011    2.00000
   21    -11.65337    2.00000
   22    -11.42729    2.00000
   23    -10.76729    2.00000
   24    -10.54114    2.00000
   25    -10.43314    2.00000
   26    -10.06649    2.00000
   27     -9.88820    2.00000
   28     -9.53815    2.00000
   29     -9.27590    2.00000
   30     -9.02525    2.00000
   31     -8.82032    2.00000
   32     -8.36909    2.00000
   33     -8.23736    2.00000
   34     -8.03097    2.00000
   35     -7.68257    2.00000
   36     -7.55857    2.00000
   37     -7.48641    2.00000
   38     -7.33187    2.00000
   39     -7.04028    2.00000
   40     -6.90586    2.00000
   41     -6.48700    2.00000
   42     -6.13102    1.99989
   43     -6.02803    1.99969
   44     -5.92295    1.99910
   45     -5.76254    1.99554
   46     -5.55128    1.96371
   47     -5.39666    1.84034
   48     -4.93339    0.20167
   49     -4.12205    0.00007
   50     -3.86392    0.00001
   51     -3.79588    0.00000
   52     -3.32622    0.00000
   53     -2.83489    0.00000
   54     -2.63742    0.00000
   55     -2.35989    0.00000
   56     -2.11137    0.00000
   57     -1.89163    0.00000
   58     -1.68551    0.00000
   59     -0.91296    0.00000
   60     -0.83917    0.00000
   61     -0.46623    0.00000
   62     -0.34536    0.00000
   63      0.36051    0.00000
   64      0.75921    0.00000
   65      1.04388    0.00000
   66      1.22265    0.00000
   67      1.54881    0.00000
   68      1.96248    0.00000
   69      2.13639    0.00000
   70      2.34500    0.00000
   71      2.98920    0.00000
   72      3.08763    0.00000
   73      3.56426    0.00000
   74      3.89020    0.00000
   75      4.73887    0.00000
   76      5.19867    0.00000
   77      5.60812    0.00000
   78      6.21144    0.00000
   79      6.57812    0.00000
   80      7.07143    0.00000
   81      7.25331    0.00000
   82      7.47546    0.00000
   83      7.89805    0.00000
   84      8.23916    0.00000
   85      8.34039    0.00000
   86      8.36743    0.00000
   87      8.45108    0.00000
   88      8.86938    0.00000
   89      8.94037    0.00000
   90      9.05015    0.00000
   91      9.25889    0.00000
   92      9.31302    0.00000
   93      9.37642    0.00000
   94      9.69738    0.00000
   95      9.78504    0.00000
   96      9.80701    0.00000
   97      9.90657    0.00000


Forces in eV/Ang:
  0 C     0.00801  -12.57579    2.18030
  1 C     2.62538    3.71992    1.19367
  2 C     4.09052   -2.97965   -0.06532
  3 C    -4.72708   14.56510   -0.78253
  4 C     1.49676   -3.16683    0.09239
  5 C     0.67764    1.21453   -0.85749
  6 C    18.17718    8.73350    4.45146
  7 C    -8.74064    1.87428    1.37877
  8 C    -0.60322    0.34433    0.72915
  9 C   -12.16953   -9.46526   -7.15596
 10 C    -5.90514   -2.89498   -0.57610
 11 C     3.15782   -0.52747   -0.23585
 12 C     0.42616   -1.18571    0.98768
 13 C    -7.15564    7.66157    2.78256
 14 C     1.07358   -0.21123    0.02226
 15 C    11.69869   -8.13884   -4.99167
 16 C    -2.11265    6.13781   -0.95653
 17 C     0.54610   -4.40450    1.02983
 18 C    -1.44523   -0.18978    2.89626
 19 C     1.38142    1.93384    2.60014
 20 C    -8.93033   -6.42195   -4.32441
 21 C     2.63039   -0.76734   -0.14108
 22 C    -0.96078    2.28520   -1.90729
 23 C     4.79658    4.40558    1.77774

System changes: positions 

Initializing position-dependent things.

Density initialized from wave functions
           .--------------------------------------.  
          /|                                      |  
         / |                                      |  
        /  |                                      |  
       /   |                                      |  
      /    |                                      |  
     /     |                                      |  
    /      |              C                       |  
   /       |           C     C  C                 |  
  /        |    C  C                              |  
 *         |  C      C  C C   C                   |  
 |         | C          C                         |  
 |         .---C---C------------C-----------------.  
 |        /          C      C                    /   
 |       /     C          C                     /    
 |      /       C   C  C                       /     
 |     /                                      /      
 |    /                                      /       
 |   /                                      /        
 |  /                                      /         
 | /                                      /          
 |/                                      /           
 *--------------------------------------*            

Positions:
   0 C     11.383602    5.199001    5.423283
   1 C      9.343326    3.784397    4.721896
   2 C      9.651633    5.047974    5.156998
   3 C     11.172784    6.367439    5.222054
   4 C      8.203830    3.230790    4.540437
   5 C      9.843789    7.929998    6.147205
   6 C      7.755035    6.010903    5.661344
   7 C      7.071984    3.611781    4.018871
   8 C      8.542893    7.224971    5.903258
   9 C      7.031501    5.227587    5.175715
  10 C     10.298481    9.383622    6.572869
  11 C      8.749012    9.886263    6.864694
  12 C      3.354307    6.353097    5.451205
  13 C      4.550557    4.164643    4.793129
  14 C      4.450157    5.502772    5.204978
  15 C      5.305806    3.353325    4.418670
  16 C      3.652151    7.144996    6.435204
  17 C      3.954485    8.725294    6.387182
  18 C      5.830994    6.006213    5.434949
  19 C      5.350929    8.532497    6.343912
  20 C      6.195334    7.344364    6.518008
  21 C      7.468808   10.296623    7.033269
  22 C      6.757312    9.164013    6.581888
  23 C      7.349445    7.910015    6.146218

Unit cell:
           periodic     x           y           z      points  spacing
  1. axis:    yes   16.000000    0.000000    0.000000    80     0.2000
  2. axis:    yes    0.000000   16.000000    0.000000    80     0.2000
  3. axis:    yes    0.000000    0.000000   10.000000    48     0.2083

Effective grid spacing dv^(1/3) = 0.2027

                     log10-error:    total        iterations:
           time      wfs    density  energy       fermi  poisson
iter:   1  12:13:53          +inf  -163.493026    4      5      
iter:   2  12:13:54         -1.87  -163.436642    3      2      
iter:   3  12:13:55         -1.98  -163.379427    3      2      
iter:   4  12:13:55         -2.25  -163.373225    2      2      
iter:   5  12:13:56         -2.36  -163.368610    2      2      
iter:   6  12:13:57         -2.49  -163.367623    2      2      
iter:   7  12:13:57         -2.74  -163.367435    2      2      
iter:   8  12:13:58         -2.91  -163.366827    2      2      
iter:   9  12:13:59         -3.21  -163.366857    2      1      
iter:  10  12:13:59         -3.31  -163.366838    2      1      
iter:  11  12:14:00         -3.49  -163.366885    2      1      
iter:  12  12:14:00         -3.55  -163.366363    2      1      
iter:  13  12:14:01         -3.82  -163.366836    2      1      
iter:  14  12:14:02         -3.99  -163.366912    2      1      
iter:  15  12:14:02         -4.05  -163.366739    2      1      

Converged after 15 iterations.

Dipole moment: (-0.270406, -0.169650, 0.025253) |e|*Ang

Energy contributions relative to reference atoms: (reference = -24663.074771)

Kinetic:       +114.797299
Potential:     -117.511879
External:        +0.000000
XC:            -163.397455
Entropy (-ST):   -0.146166
Local:           +2.818379
--------------------------
Free energy:   -163.439822
Extrapolated:  -163.366739

Fermi level: -5.11566

 Band  Eigenvalues  Occupancy
    0    -24.35416    2.00000
    1    -22.76183    2.00000
    2    -21.67292    2.00000
    3    -21.05146    2.00000
    4    -20.68670    2.00000
    5    -20.42705    2.00000
    6    -19.92660    2.00000
    7    -19.73369    2.00000
    8    -18.67895    2.00000
    9    -18.11824    2.00000
   10    -17.76167    2.00000
   11    -16.98702    2.00000
   12    -16.53734    2.00000
   13    -15.52525    2.00000
   14    -15.05859    2.00000
   15    -14.64195    2.00000
   16    -13.89745    2.00000
   17    -13.21357    2.00000
   18    -13.07191    2.00000
   19    -12.34961    2.00000
   20    -11.84478    2.00000
   21    -11.59210    2.00000
   22    -11.39777    2.00000
   23    -10.86596    2.00000
   24    -10.53433    2.00000
   25    -10.42753    2.00000
   26    -10.08639    2.00000
   27     -9.91265    2.00000
   28     -9.55762    2.00000
   29     -9.35460    2.00000
   30     -8.95101    2.00000
   31     -8.87356    2.00000
   32     -8.43902    2.00000
   33     -8.26384    2.00000
   34     -8.04607    2.00000
   35     -7.70413    2.00000
   36     -7.51812    2.00000
   37     -7.47765    2.00000
   38     -7.29368    2.00000
   39     -7.03081    2.00000
   40     -6.87735    2.00000
   41     -6.48513    2.00000
   42     -6.15472    1.99994
   43     -6.03636    1.99980
   44     -5.86511    1.99889
   45     -5.70763    1.99464
   46     -5.53975    1.97162
   47     -5.35049    1.82558
   48     -4.90110    0.20948
   49     -4.03932    0.00004
   50     -3.82363    0.00000
   51     -3.69316    0.00000
   52     -3.28561    0.00000
   53     -2.73646    0.00000
   54     -2.58451    0.00000
   55     -2.33287    0.00000
   56     -2.13065    0.00000
   57     -1.87468    0.00000
   58     -1.68503    0.00000
   59     -0.90257    0.00000
   60     -0.82634    0.00000
   61     -0.46974    0.00000
   62     -0.30073    0.00000
   63      0.36469    0.00000
   64      0.89480    0.00000
   65      1.14990    0.00000
   66      1.43474    0.00000
   67      1.68481    0.00000
   68      1.90630    0.00000
   69      2.13637    0.00000
   70      2.43437    0.00000
   71      3.08295    0.00000
   72      3.23141    0.00000
   73      3.68218    0.00000
   74      4.07175    0.00000
   75      4.80271    0.00000
   76      5.31692    0.00000
   77      5.87475    0.00000
   78      6.41988    0.00000
   79      6.60527    0.00000
   80      7.14789    0.00000
   81      7.26269    0.00000
   82      7.51688    0.00000
   83      7.95454    0.00000
   84      8.30868    0.00000
   85      8.36660    0.00000
   86      8.41133    0.00000
   87      8.47245    0.00000
   88      8.91046    0.00000
   89      8.99481    0.00000
   90      9.09045    0.00000
   91      9.26784    0.00000
   92      9.33893    0.00000
   93      9.38608    0.00000
   94      9.71437    0.00000
   95      9.78115    0.00000
   96      9.83370    0.00000
   97      9.91571    0.00000


Forces in eV/Ang:
  0 C    -0.54474   -8.59417    1.47047
  1 C     1.42474    2.68333    0.79556
  2 C     3.83422   -2.29072    0.15786
  3 C    -4.06673   10.66444   -0.05715
  4 C     0.42976   -2.15448   -0.67312
  5 C     0.65815    1.18516   -0.87336
  6 C    17.21247    6.88241    3.30054
  7 C    -6.87174    1.26154    2.41375
  8 C    -0.51429    0.48910    0.76060
  9 C   -10.86573   -7.68662   -6.00395
 10 C    -5.89816   -2.77433   -0.50435
 11 C     3.16033   -0.62853   -0.32986
 12 C     0.39532   -0.88244    1.29775
 13 C    -5.66122    5.93701    1.96666
 14 C     0.90553   -0.40689    0.04424
 15 C    10.36507   -6.16398   -4.19133
 16 C    -2.02867    5.87567   -1.36978
 17 C     0.30194   -4.23394    1.01511
 18 C    -1.50664    0.23747    3.07695
 19 C     1.28705    1.46225    2.50169
 20 C    -6.67318   -5.29530   -5.24031
 21 C     2.61503   -0.65639   -0.22440
 22 C    -0.67663    2.06799   -1.63661
 23 C     2.57671    2.96635    2.27683

System changes: positions 

Initializing position-dependent things.

Density initialized from wave functions
           .--------------------------------------.  
          /|                                      |  
         / |                                      |  
        /  |                                      |  
       /   |                                      |  
      /    |                                      |  
     /     |                                      |  
    /      |              C                       |  
   /       |           C     C  C                 |  
  /        |    C  C                              |  
 *         |  C      C  C C   C                   |  
 |         | C          C                         |  
 |         .---C---C------------C-----------------.  
 |        /          C      C                    /   
 |       /     C          C                     /    
 |      /       C   C  C                       /     
 |     /                                      /      
 |    /                                      /       
 |   /                                      /        
 |  /                                      /         
 | /                                      /          
 |/                                      /           
 *--------------------------------------*            

Positions:
   0 C     11.376851    5.199854    5.423050
   1 C      9.343376    3.789897    4.723183
   2 C      9.664579    5.042773    5.158438
   3 C     11.163042    6.374123    5.227764
   4 C      8.202604    3.226604    4.535321
   5 C      9.846628    7.934622    6.144129
   6 C      7.793710    6.003878    5.653938
   7 C      7.053302    3.615042    4.032014
   8 C      8.542784    7.228194    5.906262
   9 C      7.016389    5.229736    5.172460
  10 C     10.276838    9.373723    6.571193
  11 C      8.760558    9.883618    6.863175
  12 C      3.355763    6.351193    5.457288
  13 C      4.549430    4.162780    4.789814
  14 C      4.451754    5.502542    5.205709
  15 C      5.324885    3.353023    4.413210
  16 C      3.644875    7.165433    6.428585
  17 C      3.954923    8.710368    6.390834
  18 C      5.826619    6.007955    5.446560
  19 C      5.355113    8.536417    6.352684
  20 C      6.180774    7.329642    6.495110
  21 C      7.478317   10.294589    7.032144
  22 C      6.755792    9.170803    6.576858
  23 C      7.348353    7.915472    6.157255

Unit cell:
           periodic     x           y           z      points  spacing
  1. axis:    yes   16.000000    0.000000    0.000000    80     0.2000
  2. axis:    yes    0.000000   16.000000    0.000000    80     0.2000
  3. axis:    yes    0.000000    0.000000   10.000000    48     0.2083

Effective grid spacing dv^(1/3) = 0.2027

                     log10-error:    total        iterations:
           time      wfs    density  energy       fermi  poisson
iter:   1  12:14:05          +inf  -165.599348    3      5      
iter:   2  12:14:05         -1.97  -165.566672    3      2      
iter:   3  12:14:06         -2.08  -165.531176    3      2      
iter:   4  12:14:06         -2.40  -165.526699    3      2      
iter:   5  12:14:07         -2.56  -165.525762    2      2      
iter:   6  12:14:08         -2.69  -165.525387    2      2      
iter:   7  12:14:08         -2.93  -165.525206    2      2      
iter:   8  12:14:09         -3.26  -165.525106    2      1      
iter:   9  12:14:10         -3.33  -165.524945    2      1      
iter:  10  12:14:10         -3.54  -165.525764    2      1      
iter:  11  12:14:11         -3.73  -165.526106    2      1      
iter:  12  12:14:12         -3.81  -165.526336    2      1      
iter:  13  12:14:12         -3.92  -165.526105    2      1      
iter:  14  12:14:13         -4.01  -165.525889    2      1      

Converged after 14 iterations.

Dipole moment: (-0.288950, -0.188456, 0.018745) |e|*Ang

Energy contributions relative to reference atoms: (reference = -24663.074771)

Kinetic:       +107.092550
Potential:     -112.210385
External:        +0.000000
XC:            -163.167399
Entropy (-ST):   -0.145875
Local:           +2.832283
--------------------------
Free energy:   -165.598826
Extrapolated:  -165.525889

Fermi level: -5.08079

 Band  Eigenvalues  Occupancy
    0    -24.21156    2.00000
    1    -22.58724    2.00000
    2    -21.65799    2.00000
    3    -20.97280    2.00000
    4    -20.65651    2.00000
    5    -20.35532    2.00000
    6    -19.89497    2.00000
    7    -19.73522    2.00000
    8    -18.71336    2.00000
    9    -18.18005    2.00000
   10    -17.74530    2.00000
   11    -16.95618    2.00000
   12    -16.53116    2.00000
   13    -15.54916    2.00000
   14    -15.06739    2.00000
   15    -14.67819    2.00000
   16    -13.87797    2.00000
   17    -13.22965    2.00000
   18    -13.11304    2.00000
   19    -12.34009    2.00000
   20    -11.89264    2.00000
   21    -11.55812    2.00000
   22    -11.36730    2.00000
   23    -10.96588    2.00000
   24    -10.53153    2.00000
   25    -10.45372    2.00000
   26    -10.10628    2.00000
   27     -9.97881    2.00000
   28     -9.57833    2.00000
   29     -9.40506    2.00000
   30     -8.91980    2.00000
   31     -8.87672    2.00000
   32     -8.53114    2.00000
   33     -8.28761    2.00000
   34     -8.07493    2.00000
   35     -7.75340    2.00000
   36     -7.51014    2.00000
   37     -7.46663    2.00000
   38     -7.27945    2.00000
   39     -7.03518    2.00000
   40     -6.85551    2.00000
   41     -6.49035    2.00000
   42     -6.18242    1.99997
   43     -6.04922    1.99988
   44     -5.81872    1.99875
   45     -5.67026    1.99451
   46     -5.53139    1.97816
   47     -5.31029    1.81692
   48     -4.86745    0.21178
   49     -3.96855    0.00003
   50     -3.79143    0.00001
   51     -3.60633    0.00000
   52     -3.25195    0.00000
   53     -2.65567    0.00000
   54     -2.52274    0.00000
   55     -2.31399    0.00000
   56     -2.12550    0.00000
   57     -1.86283    0.00000
   58     -1.66085    0.00000
   59     -0.90200    0.00000
   60     -0.80137    0.00000
   61     -0.46741    0.00000
   62     -0.22972    0.00000
   63      0.40765    0.00000
   64      1.07123    0.00000
   65      1.22706    0.00000
   66      1.59101    0.00000
   67      1.76793    0.00000
   68      2.03752    0.00000
   69      2.18821    0.00000
   70      2.55258    0.00000
   71      3.22846    0.00000
   72      3.43611    0.00000
   73      3.89910    0.00000
   74      4.21552    0.00000
   75      4.83208    0.00000
   76      5.45863    0.00000
   77      6.13427    0.00000
   78      6.53616    0.00000
   79      6.67569    0.00000
   80      7.23118    0.00000
   81      7.31596    0.00000
   82      7.55400    0.00000
   83      8.03020    0.00000
   84      8.33745    0.00000
   85      8.41490    0.00000
   86      8.44944    0.00000
   87      8.50998    0.00000
   88      8.94528    0.00000
   89      9.04083    0.00000
   90      9.12497    0.00000
   91      9.30788    0.00000
   92      9.35254    0.00000
   93      9.40397    0.00000
   94      9.73801    0.00000
   95      9.79430    0.00000
   96      9.86158    0.00000
   97      9.95180    0.00000


Forces in eV/Ang:
  0 C    -0.62808   -7.96674    1.32633
  1 C     0.80009    2.16646    0.59347
  2 C     3.50011   -2.03029    0.28706
  3 C    -3.93158   10.15550    0.08487
  4 C     0.43163   -1.71333   -0.84207
  5 C     0.57461    1.14948   -0.85902
  6 C    15.52890    4.50898    1.85280
  7 C    -6.40660    1.17533    2.78086
  8 C    -0.49344    0.66105    0.79329
  9 C    -8.88303   -5.46391   -4.55780
 10 C    -5.84513   -2.67619   -0.45307
 11 C     3.11975   -0.73219   -0.39661
 12 C     0.37785   -0.81101    1.35304
 13 C    -4.70644    4.85322    1.44487
 14 C     0.69352   -0.43849    0.11219
 15 C     9.48854   -4.90361   -3.65485
 16 C    -1.91621    5.67200   -1.55705
 17 C     0.24843   -4.04752    1.00503
 18 C    -1.38540    0.43386    3.07333
 19 C     1.07045    1.16626    2.40441
 20 C    -6.01626   -4.87285   -5.47090
 21 C     2.62143   -0.60441   -0.29146
 22 C    -0.53773    1.88926   -1.33586
 23 C     2.18426    2.36636    2.27312

System changes: positions 

Initializing position-dependent things.

Density initialized from wave functions
           .--------------------------------------.  
          /|                                      |  
         / |                                      |  
        /  |                                      |  
       /   |                                      |  
      /    |                                      |  
     /     |                                      |  
    /      |              C                       |  
   /       |           C     C  C                 |  
  /        |    C  C                              |  
 *         |  C      C  C C   C                   |  
 |         | C          C                         |  
 |         .---C---C------------C-----------------.  
 |        /          C      C                    /   
 |       /     C          C                     /    
 |      /       C   C  C                       /     
 |     /                                      /      
 |    /                                      /       
 |   /                                      /        
 |  /                                      /         
 | /                                      /          
 |/                                      /           
 *--------------------------------------*            

Positions:
   0 C     11.370888    5.194772    5.423576
   1 C      9.340235    3.792896    4.723449
   2 C      9.675657    5.038455    5.160643
   3 C     11.152381    6.387864    5.232727
   4 C      8.202013    3.224610    4.529520
   5 C      9.848743    7.938976    6.141031
   6 C      7.829520    5.990304    5.642389
   7 C      7.035907    3.618019    4.047008
   8 C      8.542195    7.232302    5.909516
   9 C      7.006978    5.237881    5.173357
  10 C     10.255072    9.364260    6.569823
  11 C      8.772099    9.880221    6.861198
  12 C      3.357109    6.349393    5.463553
  13 C      4.548624    4.160973    4.786153
  14 C      4.452385    5.501522    5.206762
  15 C      5.344465    3.354532    4.408218
  16 C      3.638235    7.185159    6.420844
  17 C      3.955129    8.696315    6.394520
  18 C      5.822592    6.011046    5.458372
  19 C      5.357941    8.538577    6.361054
  20 C      6.167911    7.316388    6.470964
  21 C      7.488130   10.292797    7.030571
  22 C      6.755022    9.176635    6.573697
  23 C      7.347417    7.918058    6.167711

Unit cell:
           periodic     x           y           z      points  spacing
  1. axis:    yes   16.000000    0.000000    0.000000    80     0.2000
  2. axis:    yes    0.000000   16.000000    0.000000    80     0.2000
  3. axis:    yes    0.000000    0.000000   10.000000    48     0.2083

Effective grid spacing dv^(1/3) = 0.2027

                     log10-error:    total        iterations:
           time      wfs    density  energy       fermi  poisson
iter:   1  12:14:15          +inf  -167.524109    4      5      
iter:   2  12:14:16         -1.97  -167.493209    3      2      
iter:   3  12:14:16         -2.08  -167.456830    3      2      
iter:   4  12:14:17         -2.43  -167.453684    3      2      
iter:   5  12:14:18         -2.57  -167.452273    2      2      
iter:   6  12:14:18         -2.69  -167.452003    2      2      
iter:   7  12:14:19         -2.93  -167.451657    2      2      
iter:   8  12:14:20         -3.29  -167.451492    2      1      
iter:   9  12:14:20         -3.37  -167.451395    2      1      
iter:  10  12:14:21         -3.58  -167.452987    2      1      
iter:  11  12:14:21         -3.74  -167.452994    2      1      
iter:  12  12:14:22         -3.80  -167.453090    1      1      
iter:  13  12:14:23         -3.90  -167.452899    2      1      
iter:  14  12:14:23         -3.97  -167.452642    2      1      
iter:  15  12:14:24         -4.02  -167.452451    1      1      

Converged after 15 iterations.

Dipole moment: (-0.289935, -0.205578, 0.015049) |e|*Ang

Energy contributions relative to reference atoms: (reference = -24663.074771)

Kinetic:       +100.901631
Potential:     -108.010519
External:        +0.000000
XC:            -163.115602
Entropy (-ST):   -0.145052
Local:           +2.844566
--------------------------
Free energy:   -167.524977
Extrapolated:  -167.452451

Fermi level: -5.03859

 Band  Eigenvalues  Occupancy
    0    -24.08018    2.00000
    1    -22.45242    2.00000
    2    -21.63486    2.00000
    3    -20.90196    2.00000
    4    -20.63903    2.00000
    5    -20.29734    2.00000
    6    -19.83916    2.00000
    7    -19.70764    2.00000
    8    -18.74924    2.00000
    9    -18.23445    2.00000
   10    -17.70693    2.00000
   11    -16.93490    2.00000
   12    -16.53294    2.00000
   13    -15.57013    2.00000
   14    -15.08183    2.00000
   15    -14.71095    2.00000
   16    -13.84545    2.00000
   17    -13.24608    2.00000
   18    -13.14961    2.00000
   19    -12.34548    2.00000
   20    -11.96355    2.00000
   21    -11.53257    2.00000
   22    -11.32039    2.00000
   23    -11.06650    2.00000
   24    -10.53292    2.00000
   25    -10.47111    2.00000
   26    -10.13370    2.00000
   27    -10.01384    2.00000
   28     -9.60506    2.00000
   29     -9.43598    2.00000
   30     -8.94073    2.00000
   31     -8.86103    2.00000
   32     -8.61823    2.00000
   33     -8.31410    2.00000
   34     -8.10009    2.00000
   35     -7.81893    2.00000
   36     -7.49401    2.00000
   37     -7.44424    2.00000
   38     -7.25670    2.00000
   39     -7.04106    2.00000
   40     -6.83830    2.00000
   41     -6.49730    2.00000
   42     -6.21241    1.99998
   43     -6.06247    1.99993
   44     -5.76680    1.99863
   45     -5.62500    1.99434
   46     -5.52606    1.98484
   47     -5.26331    1.80882
   48     -4.82612    0.21344
   49     -3.89891    0.00002
   50     -3.74312    0.00000
   51     -3.52184    0.00000
   52     -3.21710    0.00000
   53     -2.57742    0.00000
   54     -2.46515    0.00000
   55     -2.29040    0.00000
   56     -2.12638    0.00000
   57     -1.83404    0.00000
   58     -1.59297    0.00000
   59     -0.90441    0.00000
   60     -0.80716    0.00000
   61     -0.45521    0.00000
   62     -0.14280    0.00000
   63      0.47913    0.00000
   64      1.23075    0.00000
   65      1.28512    0.00000
   66      1.66480    0.00000
   67      1.77612    0.00000
   68      2.22868    0.00000
   69      2.26219    0.00000
   70      2.69240    0.00000
   71      3.42215    0.00000
   72      3.65433    0.00000
   73      4.11534    0.00000
   74      4.32712    0.00000
   75      4.84203    0.00000
   76      5.60607    0.00000
   77      6.34328    0.00000
   78      6.64594    0.00000
   79      6.77677    0.00000
   80      7.30036    0.00000
   81      7.39195    0.00000
   82      7.61747    0.00000
   83      8.12321    0.00000
   84      8.34801    0.00000
   85      8.45492    0.00000
   86      8.51925    0.00000
   87      8.56187    0.00000
   88      8.98219    0.00000
   89      9.07695    0.00000
   90      9.16520    0.00000
   91      9.35074    0.00000
   92      9.37579    0.00000
   93      9.42216    0.00000
   94      9.76815    0.00000
   95      9.82347    0.00000
   96      9.88514    0.00000
   97     10.00855    0.00000


Forces in eV/Ang:
  0 C    -0.91153   -6.06814    1.00927
  1 C     0.57127    1.93353    0.49826
  2 C     3.08396   -1.85075    0.32166
  3 C    -3.57662    8.32640    0.43843
  4 C     0.17234   -1.46557   -0.99840
  5 C     0.47814    1.05120   -0.85826
  6 C    14.98583    3.63927    1.29123
  7 C    -6.00049    1.07460    3.02058
  8 C    -0.50555    0.65451    0.78867
  9 C    -8.08017   -4.60320   -3.95833
 10 C    -5.75785   -2.56054   -0.40900
 11 C     3.04131   -0.80764   -0.45373
 12 C     0.34338   -0.76722    1.38334
 13 C    -3.88270    3.95668    1.01837
 14 C     0.55884   -0.43976    0.18812
 15 C     8.73307   -3.83692   -3.16675
 16 C    -1.82255    5.41241   -1.66443
 17 C     0.19264   -3.77528    0.97920
 18 C    -1.29822    0.58830    3.02925
 19 C     0.91585    0.88424    2.31228
 20 C    -5.48004   -4.46463   -5.56996
 21 C     2.59469   -0.57046   -0.34213
 22 C    -0.39023    1.65432   -1.08079
 23 C     1.88580    1.93704    2.19288

System changes: positions 

Initializing position-dependent things.

Density initialized from wave functions
           .--------------------------------------.  
          /|                                      |  
         / |                                      |  
        /  |                                      |  
       /   |                                      |  
      /    |                                      |  
     /     |                                      |  
    /      |              C                       |  
   /       |           C     C  C                 |  
  /        |    C  C                              |  
 *         |  C      C  C C   C                   |  
 |         | C                                    |  
 |         .---C---C----C-------C-----------------.  
 |        /          C      C                    /   
 |       /     C          C                     /    
 |      /       C   C  C                       /     
 |     /                                      /      
 |    /                                      /       
 |   /                                      /        
 |  /                                      /         
 | /                                      /          
 |/                                      /           
 *--------------------------------------*            

Positions:
   0 C     11.364071    5.196021    5.423165
   1 C      9.337714    3.795933    4.723692
   2 C      9.683310    5.034367    5.162636
   3 C     11.143396    6.395580    5.238759
   4 C      8.200776    3.222880    4.523865
   5 C      9.849894    7.942315    6.137998
   6 C      7.866365    5.978807    5.631887
   7 C      7.019084    3.620979    4.061685
   8 C      8.541037    7.235724    5.912558
   9 C      6.997739    5.244540    5.173960
  10 C     10.234591    9.355851    6.568753
  11 C      8.782672    9.876436    6.858940
  12 C      3.358147    6.347403    5.469317
  13 C      4.549308    4.158199    4.781947
  14 C      4.452398    5.500479    5.208316
  15 C      5.362386    3.358502    4.404677
  16 C      3.632436    7.202641    6.413159
  17 C      3.955243    8.684701    6.397917
  18 C      5.819233    6.014754    5.469241
  19 C      5.359594    8.539035    6.368615
  20 C      6.155503    7.304822    6.448324
  21 C      7.497498   10.291138    7.028752
  22 C      6.755058    9.180650    6.572324
  23 C      7.348502    7.919581    6.176095

Unit cell:
           periodic     x           y           z      points  spacing
  1. axis:    yes   16.000000    0.000000    0.000000    80     0.2000
  2. axis:    yes    0.000000   16.000000    0.000000    80     0.2000
  3. axis:    yes    0.000000    0.000000   10.000000    48     0.2083

Effective grid spacing dv^(1/3) = 0.2027

                     log10-error:    total        iterations:
           time      wfs    density  energy       fermi  poisson
iter:   1  12:14:26          +inf  -169.168018    3      5      
iter:   2  12:14:27         -2.01  -169.142336    2      2      
iter:   3  12:14:27         -2.12  -169.111176    3      2      
iter:   4  12:14:28         -2.49  -169.108161    2      2      
iter:   5  12:14:29         -2.72  -169.102337    2      1      
iter:   6  12:14:29         -2.81  -169.106820    2      2      
iter:   7  12:14:30         -3.15  -169.109049    2      1      
iter:   8  12:14:31         -3.17  -169.104554    2      1      
iter:   9  12:14:31         -3.48  -169.108491    2      1      
iter:  10  12:14:32         -3.56  -169.109507    2      1      
iter:  11  12:14:32         -3.68  -169.107332    2      1      
iter:  12  12:14:33         -3.77  -169.108894    2      1      
iter:  13  12:14:34         -3.91  -169.110046    2      1      
iter:  14  12:14:34         -3.92  -169.108245    2      1      
iter:  15  12:14:35         -4.38  -169.108768    2      1      

Converged after 15 iterations.

Dipole moment: (-0.290205, -0.220185, 0.010863) |e|*Ang

Energy contributions relative to reference atoms: (reference = -24663.074771)

Kinetic:        +96.544394
Potential:     -105.114083
External:        +0.000000
XC:            -163.337585
Entropy (-ST):   -0.144821
Local:           +2.870917
--------------------------
Free energy:   -169.181178
Extrapolated:  -169.108768

Fermi level: -4.99737

 Band  Eigenvalues  Occupancy
    0    -23.96491    2.00000
    1    -22.32691    2.00000
    2    -21.62043    2.00000
    3    -20.84734    2.00000
    4    -20.63390    2.00000
    5    -20.27556    2.00000
    6    -19.78287    2.00000
    7    -19.70165    2.00000
    8    -18.78719    2.00000
    9    -18.29476    2.00000
   10    -17.69311    2.00000
   11    -16.91528    2.00000
   12    -16.53392    2.00000
   13    -15.59493    2.00000
   14    -15.10677    2.00000
   15    -14.75400    2.00000
   16    -13.81070    2.00000
   17    -13.26612    2.00000
   18    -13.18713    2.00000
   19    -12.34806    2.00000
   20    -12.05043    2.00000
   21    -11.52350    2.00000
   22    -11.28454    2.00000
   23    -11.15424    2.00000
   24    -10.53453    2.00000
   25    -10.48416    2.00000
   26    -10.16233    2.00000
   27    -10.05110    2.00000
   28     -9.62228    2.00000
   29     -9.45423    2.00000
   30     -8.95107    2.00000
   31     -8.87079    2.00000
   32     -8.66971    2.00000
   33     -8.34395    2.00000
   34     -8.13799    2.00000
   35     -7.89242    2.00000
   36     -7.48646    2.00000
   37     -7.42126    2.00000
   38     -7.24415    2.00000
   39     -7.04400    2.00000
   40     -6.83066    2.00000
   41     -6.50015    2.00000
   42     -6.25624    1.99999
   43     -6.07431    1.99996
   44     -5.73064    1.99869
   45     -5.60471    1.99540
   46     -5.50787    1.98794
   47     -5.21823    1.80203
   48     -4.78622    0.21596
   49     -3.83462    0.00002
   50     -3.70033    0.00000
   51     -3.44048    0.00000
   52     -3.19082    0.00000
   53     -2.52258    0.00000
   54     -2.42711    0.00000
   55     -2.27333    0.00000
   56     -2.11904    0.00000
   57     -1.79767    0.00000
   58     -1.52234    0.00000
   59     -0.90981    0.00000
   60     -0.78740    0.00000
   61     -0.42442    0.00000
   62     -0.05967    0.00000
   63      0.53798    0.00000
   64      1.31918    0.00000
   65      1.39512    0.00000
   66      1.70988    0.00000
   67      1.87863    0.00000
   68      2.28126    0.00000
   69      2.47793    0.00000
   70      2.81956    0.00000
   71      3.62281    0.00000
   72      3.84189    0.00000
   73      4.36677    0.00000
   74      4.41173    0.00000
   75      4.84361    0.00000
   76      5.75640    0.00000
   77      6.46284    0.00000
   78      6.80426    0.00000
   79      6.85488    0.00000
   80      7.34579    0.00000
   81      7.46484    0.00000
   82      7.68345    0.00000
   83      8.20635    0.00000
   84      8.37168    0.00000
   85      8.48593    0.00000
   86      8.58206    0.00000
   87      8.64061    0.00000
   88      9.01428    0.00000
   89      9.10724    0.00000
   90      9.20453    0.00000
   91      9.37987    0.00000
   92      9.41985    0.00000
   93      9.43927    0.00000
   94      9.79109    0.00000
   95      9.85910    0.00000
   96      9.91684    0.00000
   97     10.05824    0.00000


Forces in eV/Ang:
  0 C    -1.01167   -5.46718    0.89011
  1 C     0.26762    1.61445    0.37328
  2 C     2.71032   -1.62680    0.39395
  3 C    -3.41743    7.83282    0.57450
  4 C     0.03223   -1.21039   -1.09765
  5 C     0.40561    0.95999   -0.85290
  6 C    13.97548    2.52080    0.61327
  7 C    -5.59212    1.04333    3.24229
  8 C    -0.39429    0.64519    0.76808
  9 C    -6.88248   -3.59741   -3.28474
 10 C    -5.60746   -2.47225   -0.38211
 11 C     2.91259   -0.84096   -0.49341
 12 C     0.30003   -0.73461    1.43147
 13 C    -3.45096    3.52819    0.81458
 14 C     0.47494   -0.47836    0.23092
 15 C     8.26754   -3.20914   -2.88442
 16 C    -1.75095    5.11947   -1.75477
 17 C     0.14399   -3.48717    0.96720
 18 C    -1.19783    0.64270    2.91487
 19 C     0.82712    0.65203    2.19986
 20 C    -4.83625   -4.00643   -5.54514
 21 C     2.55941   -0.53646   -0.38501
 22 C    -0.24942    1.43524   -0.89740
 23 C     1.38932    1.57935    2.15920

System changes: positions 

Initializing position-dependent things.

Density initialized from wave functions
           .--------------------------------------.  
          /|                                      |  
         / |                                      |  
        /  |                                      |  
       /   |                                      |  
      /    |                                      |  
     /     |                                      |  
    /      |              C                       |  
   /       |           C     C  C                 |  
  /        |    C  C                              |  
 *         |  C      C  C C   C                   |  
 |         | C                                    |  
 |         .---C---C----C-------C-----------------.  
 |        /          C      C                    /   
 |       /     C          C                     /    
 |      /       C   C  C                       /     
 |     /                                      /      
 |    /                                      /       
 |   /                                      /        
 |  /                                      /         
 | /                                      /          
 |/                                      /           
 *--------------------------------------*            

Positions:
   0 C     11.356877    5.195987    5.422881
   1 C      9.334325    3.797857    4.723434
   2 C      9.688675    5.031184    5.165048
   3 C     11.134210    6.405953    5.245131
   4 C      8.198688    3.221880    4.517813
   5 C      9.850563    7.944991    6.134790
   6 C      7.902011    5.965159    5.619924
   7 C      7.003070    3.624386    4.077848
   8 C      8.540801    7.238608    5.915439
   9 C      6.992361    5.252419    5.175421
  10 C     10.214333    9.347496    6.567708
  11 C      8.792624    9.872452    6.856381
  12 C      3.358844    6.345209    5.475584
  13 C      4.549000    4.157252    4.778367
  14 C      4.452387    5.498915    5.210125
  15 C      5.381667    3.362443    4.400901
  16 C      3.626667    7.218854    6.404852
  17 C      3.955140    8.674772    6.401450
  18 C      5.816281    6.018441    5.479457
  19 C      5.361148    8.538219    6.375781
  20 C      6.145732    7.295434    6.425909
  21 C      7.507062   10.289526    7.026616
  22 C      6.756007    9.183272    6.571729
  23 C      7.347058    7.920089    6.184281

Unit cell:
           periodic     x           y           z      points  spacing
  1. axis:    yes   16.000000    0.000000    0.000000    80     0.2000
  2. axis:    yes    0.000000   16.000000    0.000000    80     0.2000
  3. axis:    yes    0.000000    0.000000   10.000000    48     0.2083

Effective grid spacing dv^(1/3) = 0.2027

                     log10-error:    total        iterations:
           time      wfs    density  energy       fermi  poisson
iter:   1  12:14:37          +inf  -170.692405    3      5      
iter:   2  12:14:38         -2.03  -170.667124    2      2      
iter:   3  12:14:38         -2.14  -170.636259    3      2      
iter:   4  12:14:39         -2.51  -170.635771    2      2      
iter:   5  12:14:40         -2.70  -170.635036    2      2      
iter:   6  12:14:40         -2.82  -170.633778    2      2      
iter:   7  12:14:41         -3.00  -170.634015    2      2      
iter:   8  12:14:42         -3.41  -170.634595    2      1      
iter:   9  12:14:42         -3.48  -170.634863    2      1      
iter:  10  12:14:43         -3.61  -170.634817    2      1      
iter:  11  12:14:43         -3.79  -170.634722    2      1      
iter:  12  12:14:44         -3.86  -170.634924    2      1      
iter:  13  12:14:45         -3.97  -170.635396    2      1      
iter:  14  12:14:45         -4.13  -170.634140    2      1      

Converged after 14 iterations.

Dipole moment: (-0.277446, -0.237726, 0.005400) |e|*Ang

Energy contributions relative to reference atoms: (reference = -24663.074771)

Kinetic:        +93.004926
Potential:     -102.817597
External:        +0.000000
XC:            -163.623446
Entropy (-ST):   -0.145147
Local:           +2.874550
--------------------------
Free energy:   -170.706714
Extrapolated:  -170.634140

Fermi level: -4.95279

 Band  Eigenvalues  Occupancy
    0    -23.87633    2.00000
    1    -22.23047    2.00000
    2    -21.60108    2.00000
    3    -20.80115    2.00000
    4    -20.63952    2.00000
    5    -20.26331    2.00000
    6    -19.73574    2.00000
    7    -19.66727    2.00000
    8    -18.81342    2.00000
    9    -18.34769    2.00000
   10    -17.68201    2.00000
   11    -16.90045    2.00000
   12    -16.54368    2.00000
   13    -15.61888    2.00000
   14    -15.13878    2.00000
   15    -14.79143    2.00000
   16    -13.77500    2.00000
   17    -13.29076    2.00000
   18    -13.21498    2.00000
   19    -12.35724    2.00000
   20    -12.15034    2.00000
   21    -11.51868    2.00000
   22    -11.30038    2.00000
   23    -11.19234    2.00000
   24    -10.54620    2.00000
   25    -10.49455    2.00000
   26    -10.19574    2.00000
   27    -10.07648    2.00000
   28     -9.63598    2.00000
   29     -9.46529    2.00000
   30     -8.96874    2.00000
   31     -8.92358    2.00000
   32     -8.67503    2.00000
   33     -8.37700    2.00000
   34     -8.18442    2.00000
   35     -7.96208    2.00000
   36     -7.48138    2.00000
   37     -7.39488    2.00000
   38     -7.23565    2.00000
   39     -7.04161    2.00000
   40     -6.81720    2.00000
   41     -6.50244    2.00000
   42     -6.29442    2.00000
   43     -6.08304    1.99998
   44     -5.69459    1.99880
   45     -5.60310    1.99701
   46     -5.47767    1.98955
   47     -5.16983    1.79511
   48     -4.74349    0.21955
   49     -3.77520    0.00002
   50     -3.64992    0.00000
   51     -3.37443    0.00000
   52     -3.15914    0.00000
   53     -2.47134    0.00000
   54     -2.40611    0.00000
   55     -2.26836    0.00000
   56     -2.11533    0.00000
   57     -1.74140    0.00000
   58     -1.43273    0.00000
   59     -0.93818    0.00000
   60     -0.76442    0.00000
   61     -0.38513    0.00000
   62      0.02565    0.00000
   63      0.60779    0.00000
   64      1.31690    0.00000
   65      1.53035    0.00000
   66      1.74288    0.00000
   67      1.99999    0.00000
   68      2.32627    0.00000
   69      2.69072    0.00000
   70      2.94789    0.00000
   71      3.82108    0.00000
   72      4.00782    0.00000
   73      4.47928    0.00000
   74      4.62260    0.00000
   75      4.86430    0.00000
   76      5.91664    0.00000
   77      6.53138    0.00000
   78      6.90966    0.00000
   79      7.00952    0.00000
   80      7.39221    0.00000
   81      7.54119    0.00000
   82      7.75942    0.00000
   83      8.26792    0.00000
   84      8.40461    0.00000
   85      8.51893    0.00000
   86      8.63047    0.00000
   87      8.74520    0.00000
   88      9.04350    0.00000
   89      9.13251    0.00000
   90      9.24601    0.00000
   91      9.39248    0.00000
   92      9.45240    0.00000
   93      9.48261    0.00000
   94      9.81323    0.00000
   95      9.90840    0.00000
   96      9.94863    0.00000
   97     10.10064    0.00000


Forces in eV/Ang:
  0 C    -1.16555   -4.53960    0.73454
  1 C     0.04714    1.36585    0.27152
  2 C     2.33988   -1.46065    0.44410
  3 C    -3.19320    7.00374    0.73231
  4 C    -0.06087   -1.00031   -1.15813
  5 C     0.33117    0.84592   -0.85019
  6 C    13.30684    1.90559    0.23536
  7 C    -5.23127    1.03103    3.38488
  8 C    -0.40201    0.60880    0.74978
  9 C    -6.12150   -3.00433   -2.84885
 10 C    -5.45460   -2.37112   -0.35709
 11 C     2.73395   -0.83022   -0.49872
 12 C     0.23177   -0.73408    1.42290
 13 C    -2.79074    2.83588    0.50576
 14 C     0.38739   -0.44595    0.28861
 15 C     7.55702   -2.39817   -2.52772
 16 C    -1.67567    4.86529   -1.78153
 17 C     0.12698   -3.12772    0.94094
 18 C    -1.04906    0.62224    2.75257
 19 C     0.68520    0.48943    2.10522
 20 C    -4.42422   -3.65779   -5.45658
 21 C     2.49782   -0.49984   -0.41135
 22 C    -0.15760    1.27519   -0.72127
 23 C     1.27001    1.27022    2.03233

System changes: positions 

Initializing position-dependent things.

Density initialized from wave functions
           .--------------------------------------.  
          /|                                      |  
         / |                                      |  
        /  |                                      |  
       /   |                                      |  
      /    |                                      |  
     /     |                                      |  
    /      |              C                       |  
   /       |           C     C  C                 |  
  /        |    C  C                              |  
 *         |  C      C  C C   C                   |  
 |         | C                                    |  
 |         .---C---C----C-------C-----------------.  
 |        /          C      C                    /   
 |       /     C          C                     /    
 |      /       C   C  C                       /     
 |     /                                      /      
 |    /                                      /       
 |   /                                      /        
 |  /                                      /         
 | /                                      /          
 |/                                      /           
 *--------------------------------------*            

Positions:
   0 C     11.348945    5.197163    5.422465
   1 C      9.330379    3.798977    4.722756
   2 C      9.691772    5.028408    5.167759
   3 C     11.125430    6.416403    5.251827
   4 C      8.196686    3.221465    4.511804
   5 C      9.850715    7.946787    6.131422
   6 C      7.938328    5.952811    5.608585
   7 C      6.987615    3.628429    4.094704
   8 C      8.540086    7.240907    5.918232
   9 C      6.987751    5.258977    5.176432
  10 C     10.194434    9.339418    6.566700
  11 C      8.801330    9.868752    6.853922
  12 C      3.358915    6.342501    5.481670
  13 C      4.550950    4.154339    4.773866
  14 C      4.452135    5.497652    5.212368
  15 C      5.398768    3.369208    4.398056
  16 C      3.621077    7.234175    6.396586
  17 C      3.955190    8.667387    6.404939
  18 C      5.814420    6.021307    5.488432
  19 C      5.361793    8.536866    6.382681
  20 C      6.136201    7.287097    6.404386
  21 C      7.516485   10.288042    7.024334
  22 C      6.757297    9.185222    6.571988
  23 C      7.347445    7.919749    6.191184

Unit cell:
           periodic     x           y           z      points  spacing
  1. axis:    yes   16.000000    0.000000    0.000000    80     0.2000
  2. axis:    yes    0.000000   16.000000    0.000000    80     0.2000
  3. axis:    yes    0.000000    0.000000   10.000000    48     0.2083

Effective grid spacing dv^(1/3) = 0.2027

                     log10-error:    total        iterations:
           time      wfs    density  energy       fermi  poisson
iter:   1  12:14:48          +inf  -172.078338    3      5      
iter:   2  12:14:48         -2.02  -172.050408    2      2      
iter:   3  12:14:49         -2.14  -172.018182    2      2      
iter:   4  12:14:50         -2.51  -172.019618    2      2      
iter:   5  12:14:50         -2.67  -172.014785    2      1      
iter:   6  12:14:51         -2.74  -172.015272    2      2      
iter:   7  12:14:51         -3.00  -172.022200    2      2      
iter:   8  12:14:52         -2.92  -172.013994    3      1      
iter:   9  12:14:53         -3.50  -172.017062    2      1      
iter:  10  12:14:53         -3.54  -172.018766    2      1      
iter:  11  12:14:54         -3.53  -172.015827    2      1      
iter:  12  12:14:55         -3.63  -172.017516    2      1      
iter:  13  12:14:55         -3.80  -172.019347    2      1      
iter:  14  12:14:56         -3.70  -172.017278    2      1      
iter:  15  12:14:56         -3.96  -172.017698    2      1      
iter:  16  12:14:57         -4.22  -172.017911    2      1      

Converged after 16 iterations.

Dipole moment: (-0.265037, -0.254647, -0.000458) |e|*Ang

Energy contributions relative to reference atoms: (reference = -24663.074771)

Kinetic:        +90.395580
Potential:     -101.203643
External:        +0.000000
XC:            -164.020345
Entropy (-ST):   -0.144176
Local:           +2.882585
--------------------------
Free energy:   -172.089999
Extrapolated:  -172.017911

Fermi level: -4.91212

 Band  Eigenvalues  Occupancy
    0    -23.79269    2.00000
    1    -22.14476    2.00000
    2    -21.58626    2.00000
    3    -20.76362    2.00000
    4    -20.64762    2.00000
    5    -20.26841    2.00000
    6    -19.71535    2.00000
    7    -19.61343    2.00000
    8    -18.84084    2.00000
    9    -18.40057    2.00000
   10    -17.67509    2.00000
   11    -16.88857    2.00000
   12    -16.55000    2.00000
   13    -15.63850    2.00000
   14    -15.17712    2.00000
   15    -14.83305    2.00000
   16    -13.73584    2.00000
   17    -13.31149    2.00000
   18    -13.24294    2.00000
   19    -12.36502    2.00000
   20    -12.25105    2.00000
   21    -11.52157    2.00000
   22    -11.37176    2.00000
   23    -11.16790    2.00000
   24    -10.56549    2.00000
   25    -10.50242    2.00000
   26    -10.22793    2.00000
   27    -10.08995    2.00000
   28     -9.64695    2.00000
   29     -9.47416    2.00000
   30     -9.00650    2.00000
   31     -8.97467    2.00000
   32     -8.65576    2.00000
   33     -8.41179    2.00000
   34     -8.24616    2.00000
   35     -8.02302    2.00000
   36     -7.47933    2.00000
   37     -7.37189    2.00000
   38     -7.22825    2.00000
   39     -7.03839    2.00000
   40     -6.81752    2.00000
   41     -6.50446    2.00000
   42     -6.33436    2.00000
   43     -6.09256    1.99999
   44     -5.66646    1.99894
   45     -5.61173    1.99817
   46     -5.43888    1.98974
   47     -5.12870    1.79428
   48     -4.70247    0.21887
   49     -3.71893    0.00001
   50     -3.59483    0.00000
   51     -3.30481    0.00000
   52     -3.12867    0.00000
   53     -2.43632    0.00000
   54     -2.38448    0.00000
   55     -2.27985    0.00000
   56     -2.08457    0.00000
   57     -1.68365    0.00000
   58     -1.33288    0.00000
   59     -0.96715    0.00000
   60     -0.73295    0.00000
   61     -0.33644    0.00000
   62      0.11107    0.00000
   63      0.68161    0.00000
   64      1.29964    0.00000
   65      1.64160    0.00000
   66      1.78895    0.00000
   67      2.15690    0.00000
   68      2.39361    0.00000
   69      2.87485    0.00000
   70      3.07898    0.00000
   71      3.96989    0.00000
   72      4.14718    0.00000
   73      4.57202    0.00000
   74      4.81269    0.00000
   75      4.95240    0.00000
   76      6.06541    0.00000
   77      6.58280    0.00000
   78      6.96704    0.00000
   79      7.18032    0.00000
   80      7.42647    0.00000
   81      7.62380    0.00000
   82      7.83670    0.00000
   83      8.30442    0.00000
   84      8.44857    0.00000
   85      8.55130    0.00000
   86      8.67813    0.00000
   87      8.85463    0.00000
   88      9.06698    0.00000
   89      9.15382    0.00000
   90      9.29144    0.00000
   91      9.39750    0.00000
   92      9.47804    0.00000
   93      9.53757    0.00000
   94      9.83609    0.00000
   95      9.95738    0.00000
   96      9.98065    0.00000
   97     10.12707    0.00000


Forces in eV/Ang:
  0 C    -1.30161   -3.76849    0.60636
  1 C    -0.09861    1.16221    0.19377
  2 C     1.95585   -1.28931    0.49399
  3 C    -2.99897    6.33072    0.88424
  4 C    -0.19211   -0.83912   -1.19271
  5 C     0.30039    0.71523   -0.84507
  6 C    12.41227    1.20370   -0.18346
  7 C    -4.82863    1.05665    3.48010
  8 C    -0.30761    0.55274    0.71192
  9 C    -5.16855   -2.39658   -2.40149
 10 C    -5.15450   -2.26052   -0.35707
 11 C     2.59108   -0.80626   -0.51907
 12 C     0.20955   -0.70101    1.40579
 13 C    -2.61756    2.69578    0.44064
 14 C     0.34533   -0.50378    0.30953
 15 C     7.22787   -2.08753   -2.32529
 16 C    -1.59083    4.50784   -1.80512
 17 C     0.15517   -2.87166    0.90618
 18 C    -0.93397    0.58047    2.56657
 19 C     0.62256    0.33346    2.02527
 20 C    -3.92292   -3.29396   -5.24489
 21 C     2.37291   -0.48097   -0.42704
 22 C    -0.05860    1.09447   -0.59333
 23 C     0.97099    1.04013    1.92574

System changes: positions 

Initializing position-dependent things.

Density initialized from wave functions
           .--------------------------------------.  
          /|                                      |  
         / |                                      |  
        /  |                                      |  
       /   |                                      |  
      /    |                                      |  
     /     |                                      |  
    /      |              C                       |  
   /       |           C     C  C                 |  
  /        |    C  C                              |  
 *         |  C     C   C C   C                   |  
 |         | C                                    |  
 |         .---C---C-C--C-------C-----------------.  
 |        /                 C                    /   
 |       /     C          C                     /    
 |      /       C   C  C                       /     
 |     /                                      /      
 |    /                                      /       
 |   /                                      /        
 |  /                                      /         
 | /                                      /          
 |/                                      /           
 *--------------------------------------*            

Positions:
   0 C     11.339730    5.200437    5.421782
   1 C      9.326479    3.799820    4.721894
   2 C      9.692569    5.026069    5.170887
   3 C     11.116681    6.426516    5.259585
   4 C      8.193884    3.221157    4.505669
   5 C      9.850920    7.947612    6.127763
   6 C      7.973772    5.939050    5.596159
   7 C      6.972828    3.633602    4.112685
   8 C      8.540109    7.242558    5.920851
   9 C      6.986606    5.265777    5.177845
  10 C     10.175701    9.331375    6.565389
  11 C      8.809750    9.865262    6.851221
  12 C      3.358969    6.339650    5.487820
  13 C      4.550277    4.154861    4.770655
  14 C      4.452093    5.495564    5.214730
  15 C      5.418299    3.374126    4.394654
  16 C      3.615532    7.248063    6.387905
  17 C      3.955912    8.660819    6.408429
  18 C      5.813122    6.023397    5.496438
  19 C      5.362509    8.534893    6.389849
  20 C      6.127957    7.279748    6.383916
  21 C      7.525437   10.286407    7.021915
  22 C      6.759124    9.186305    6.572586
  23 C      7.347016    7.919227    6.197527

Unit cell:
           periodic     x           y           z      points  spacing
  1. axis:    yes   16.000000    0.000000    0.000000    80     0.2000
  2. axis:    yes    0.000000   16.000000    0.000000    80     0.2000
  3. axis:    yes    0.000000    0.000000   10.000000    48     0.2083

Effective grid spacing dv^(1/3) = 0.2027

                     log10-error:    total        iterations:
           time      wfs    density  energy       fermi  poisson
iter:   1  12:14:59          +inf  -173.338788    3      5      
iter:   2  12:15:00         -2.08  -173.318789    2      2      
iter:   3  12:15:01         -2.19  -173.294796    2      2      
iter:   4  12:15:01         -2.57  -173.295703    2      2      
iter:   5  12:15:02         -2.72  -173.294345    2      2      
iter:   6  12:15:03         -2.87  -173.293465    2      2      
iter:   7  12:15:03         -3.03  -173.293679    2      2      
iter:   8  12:15:04         -3.47  -173.294219    2      1      
iter:   9  12:15:04         -3.54  -173.294520    2      1      
iter:  10  12:15:05         -3.68  -173.294484    2      1      
iter:  11  12:15:06         -3.81  -173.294124    2      1      
iter:  12  12:15:06         -3.91  -173.294513    2      1      
iter:  13  12:15:07         -4.01  -173.295221    2      1      

Converged after 13 iterations.

Dipole moment: (-0.242697, -0.275124, -0.008481) |e|*Ang

Energy contributions relative to reference atoms: (reference = -24663.074771)

Kinetic:        +88.281728
Potential:      -99.941329
External:        +0.000000
XC:            -164.447789
Entropy (-ST):   -0.145394
Local:           +2.884866
--------------------------
Free energy:   -173.367919
Extrapolated:  -173.295221

Fermi level: -4.86777

 Band  Eigenvalues  Occupancy
    0    -23.72034    2.00000
    1    -22.08130    2.00000
    2    -21.57074    2.00000
    3    -20.73499    2.00000
    4    -20.66094    2.00000
    5    -20.27928    2.00000
    6    -19.70405    2.00000
    7    -19.55690    2.00000
    8    -18.85301    2.00000
    9    -18.44292    2.00000
   10    -17.68251    2.00000
   11    -16.87989    2.00000
   12    -16.55864    2.00000
   13    -15.66273    2.00000
   14    -15.22421    2.00000
   15    -14.86696    2.00000
   16    -13.70389    2.00000
   17    -13.33261    2.00000
   18    -13.26499    2.00000
   19    -12.38260    2.00000
   20    -12.34977    2.00000
   21    -11.52829    2.00000
   22    -11.44708    2.00000
   23    -11.13627    2.00000
   24    -10.60067    2.00000
   25    -10.50830    2.00000
   26    -10.26422    2.00000
   27    -10.10026    2.00000
   28     -9.65714    2.00000
   29     -9.48192    2.00000
   30     -9.07840    2.00000
   31     -8.99491    2.00000
   32     -8.63165    2.00000
   33     -8.45706    2.00000
   34     -8.31662    2.00000
   35     -8.07034    2.00000
   36     -7.47914    2.00000
   37     -7.34802    2.00000
   38     -7.22731    2.00000
   39     -7.02758    2.00000
   40     -6.80420    2.00000
   41     -6.50771    2.00000
   42     -6.36714    2.00000
   43     -6.09897    1.99999
   44     -5.65637    1.99925
   45     -5.61328    1.99884
   46     -5.39954    1.99024
   47     -5.08116    1.78832
   48     -4.66039    0.22334
   49     -3.67291    0.00001
   50     -3.53609    0.00000
   51     -3.26369    0.00000
   52     -3.09136    0.00000
   53     -2.43732    0.00000
   54     -2.36185    0.00000
   55     -2.30357    0.00000
   56     -2.05839    0.00000
   57     -1.61825    0.00000
   58     -1.22379    0.00000
   59     -0.99218    0.00000
   60     -0.69801    0.00000
   61     -0.27995    0.00000
   62      0.19643    0.00000
   63      0.76163    0.00000
   64      1.28256    0.00000
   65      1.72978    0.00000
   66      1.83323    0.00000
   67      2.31172    0.00000
   68      2.47365    0.00000
   69      3.02277    0.00000
   70      3.20922    0.00000
   71      4.07058    0.00000
   72      4.25875    0.00000
   73      4.72188    0.00000
   74      4.90661    0.00000
   75      5.16104    0.00000
   76      6.20798    0.00000
   77      6.63974    0.00000
   78      7.02143    0.00000
   79      7.31414    0.00000
   80      7.46158    0.00000
   81      7.73336    0.00000
   82      7.91167    0.00000
   83      8.33269    0.00000
   84      8.49631    0.00000
   85      8.58414    0.00000
   86      8.72156    0.00000
   87      8.95966    0.00000
   88      9.09060    0.00000
   89      9.17579    0.00000
   90      9.34267    0.00000
   91      9.39343    0.00000
   92      9.50992    0.00000
   93      9.59303    0.00000
   94      9.85449    0.00000
   95      9.99641    0.00000
   96     10.02805    0.00000
   97     10.14166    0.00000


Forces in eV/Ang:
  0 C    -1.41141   -3.23229    0.51974
  1 C    -0.28311    0.93193    0.10194
  2 C     1.59096   -1.13306    0.53608
  3 C    -2.81719    5.89920    0.98687
  4 C    -0.22117   -0.67437   -1.20282
  5 C     0.25851    0.56850   -0.85139
  6 C    11.77375    0.83122   -0.42685
  7 C    -4.40675    1.09369    3.55821
  8 C    -0.27032    0.46843    0.66063
  9 C    -4.52067   -2.03445   -2.10814
 10 C    -4.84500   -2.19015   -0.34220
 11 C     2.38992   -0.76222   -0.49975
 12 C     0.14606   -0.68207    1.33659
 13 C    -1.92028    1.98294    0.11540
 14 C     0.27788   -0.45344    0.35547
 15 C     6.30499   -1.32690   -1.93059
 16 C    -1.54379    4.15867   -1.81664
 17 C     0.10814   -2.51262    0.89332
 18 C    -0.76180    0.50058    2.33722
 19 C     0.54716    0.22436    1.92596
 20 C    -3.51938   -2.90537   -5.01310
 21 C     2.26063   -0.44568   -0.43022
 22 C     0.00203    0.93848   -0.46139
 23 C     0.82272    0.79507    1.78550

System changes: positions 

Initializing position-dependent things.

Density initialized from wave functions
           .--------------------------------------.  
          /|                                      |  
         / |                                      |  
        /  |                                      |  
       /   |                                      |  
      /    |                                      |  
     /     |                                      |  
    /      |              C                       |  
   /       |           C     C  C                 |  
  /        |    C  C                              |  
 *         |  C     C   C C   C                   |  
 |         | C                                    |  
 |         .---C---C-C--C-------C-----------------.  
 |        /                 C                    /   
 |       /     C          C                     /    
 |      /       C   C  C                       /     
 |     /                                      /      
[...]
External:        +0.000000
XC:            -180.364657
Entropy (-ST):   -0.201991
Local:           +3.004563
--------------------------
Free energy:   -185.901854
Extrapolated:  -185.800859

Fermi level: -4.38986

 Band  Eigenvalues  Occupancy
    0    -23.21025    2.00000
    1    -22.31504    2.00000
    2    -21.93368    2.00000
    3    -20.95849    2.00000
    4    -20.67828    2.00000
    5    -20.31319    2.00000
    6    -19.56791    2.00000
    7    -19.42975    2.00000
    8    -18.73009    2.00000
    9    -18.63372    2.00000
   10    -17.98464    2.00000
   11    -17.01742    2.00000
   12    -16.72571    2.00000
   13    -15.89355    2.00000
   14    -15.57738    2.00000
   15    -15.43142    2.00000
   16    -13.91269    2.00000
   17    -13.58105    2.00000
   18    -13.35145    2.00000
   19    -12.95076    2.00000
   20    -12.75383    2.00000
   21    -12.07139    2.00000
   22    -11.91981    2.00000
   23    -11.60251    2.00000
   24    -11.16007    2.00000
   25    -11.09502    2.00000
   26    -10.93795    2.00000
   27    -10.51733    2.00000
   28     -9.93076    2.00000
   29     -9.85276    2.00000
   30     -9.80410    2.00000
   31     -9.47794    2.00000
   32     -8.99264    2.00000
   33     -8.64701    2.00000
   34     -8.47379    2.00000
   35     -8.19528    2.00000
   36     -7.19498    2.00000
   37     -7.15083    2.00000
   38     -7.11433    2.00000
   39     -6.78133    2.00000
   40     -6.75594    2.00000
   41     -6.66181    2.00000
   42     -6.59931    2.00000
   43     -6.48640    2.00000
   44     -6.43308    2.00000
   45     -5.42316    1.99993
   46     -4.65894    1.87296
   47     -4.60907    1.79908
   48     -4.22693    0.32786
   49     -3.43899    0.00015
   50     -3.11793    0.00001
   51     -2.90966    0.00000
   52     -2.83971    0.00000
   53     -2.66849    0.00000
   54     -2.19116    0.00000
   55     -1.82599    0.00000
   56     -1.40764    0.00000
   57     -1.08663    0.00000
   58     -0.23540    0.00000
   59      0.01539    0.00000
   60      0.75228    0.00000
   61      2.16928    0.00000
   62      2.64350    0.00000
   63      3.24645    0.00000
   64      3.67974    0.00000
   65      3.80717    0.00000
   66      4.09491    0.00000
   67      4.15611    0.00000
   68      4.33972    0.00000
   69      5.05586    0.00000
   70      5.17451    0.00000
   71      5.75630    0.00000
   72      5.96133    0.00000
   73      6.44323    0.00000
   74      6.62821    0.00000
   75      6.66758    0.00000
   76      7.24749    0.00000
   77      7.40445    0.00000
   78      7.71331    0.00000
   79      7.82329    0.00000
   80      8.14438    0.00000
   81      8.26268    0.00000
   82      8.60071    0.00000
   83      8.97653    0.00000
   84      9.04789    0.00000
   85      9.08125    0.00000
   86      9.16236    0.00000
   87      9.32517    0.00000
   88      9.44823    0.00000
   89      9.48289    0.00000
   90      9.49389    0.00000
   91      9.54917    0.00000
   92      9.77441    0.00000
   93     10.18612    0.00000
   94     10.20033    0.00000
   95     10.25099    0.00000
   96     10.30091    0.00000
   97     10.44406    0.00000


Forces in eV/Ang:
  0 C    -0.03067    0.03613    0.00212
  1 C     0.00224   -0.00715   -0.03741
  2 C     0.00808    0.02162   -0.04493
  3 C    -0.01851   -0.04841    0.00289
  4 C    -0.00018    0.02628    0.01583
  5 C    -0.06816   -0.02437    0.07747
  6 C     0.07437    0.06757   -0.05360
  7 C     0.01427   -0.01295    0.00804
  8 C     0.03083    0.00500   -0.01580
  9 C    -0.01654   -0.02832    0.03044
 10 C     0.01368   -0.02055    0.03271
 11 C    -0.00022    0.00845    0.01246
 12 C    -0.05703    0.00427    0.00005
 13 C    -0.00203   -0.06963    0.01240
 14 C    -0.05119   -0.02001    0.00194
 15 C     0.00280   -0.02528    0.02310
 16 C    -0.01854    0.01054   -0.03297
 17 C    -0.07221    0.03959    0.02877
 18 C     0.00313    0.01897   -0.00233
 19 C    -0.05362   -0.03414   -0.03901
 20 C     0.06991    0.02645    0.00100
 21 C     0.02641    0.00180   -0.05755
 22 C     0.06727   -0.03188    0.04350
 23 C     0.07218    0.02443    0.00005

System changes: positions 

Initializing position-dependent things.

Density initialized from wave functions
           .--------------------------------------.  
          /|                                      |  
         / |                                      |  
        /  |                                      |  
       /   |                                      |  
      /    |                                      |  
     /     |                                      |  
    /      |              C                       |  
   /       |           C     C C                  |  
  /        |    C   C                             |  
 *         |  C     C   C C   C                   |  
 |         | C                  C                 |  
 |         .---C---C-----C-----C------------------.  
 |        /          C      C                    /   
 |       /     C    C     C                     /    
 |      /        C     C                       /     
 |     /                                      /      
 |    /                                      /       
 |   /                                      /        
 |  /                                      /         
 | /                                      /          
 |/                                      /           
 *--------------------------------------*            

Positions:
   0 C     10.822810    5.677256    5.381870
   1 C      9.304174    3.663398    4.676184
   2 C      9.636889    4.940349    5.139136
   3 C     10.914985    6.877031    5.752788
   4 C      8.158890    3.185731    4.437191
   5 C      9.903963    7.825611    6.053779
   6 C      8.413912    5.747781    5.404460
   7 C      6.921134    3.813919    4.612900
   8 C      8.592275    7.125673    5.873793
   9 C      7.077126    5.184083    5.172297
  10 C      9.910784    9.169127    6.478763
  11 C      8.829945    9.828245    6.760784
  12 C      3.386479    6.304496    5.637880
  13 C      4.554254    4.186422    4.671154
  14 C      4.462289    5.474829    5.259541
  15 C      5.559842    3.477785    4.402443
  16 C      3.555932    7.490119    6.137159
  17 C      4.040340    8.666091    6.598322
  18 C      5.863377    5.947900    5.475016
  19 C      5.427244    8.446956    6.470794
  20 C      6.092209    7.233631    5.994681
  21 C      7.560996   10.241631    6.990596
  22 C      6.846664    9.078133    6.635432
  23 C      7.396072    7.804326    6.164481

Unit cell:
           periodic     x           y           z      points  spacing
  1. axis:    yes   16.000000    0.000000    0.000000    80     0.2000
  2. axis:    yes    0.000000   16.000000    0.000000    80     0.2000
  3. axis:    yes    0.000000    0.000000   10.000000    48     0.2083

Effective grid spacing dv^(1/3) = 0.2027

                     log10-error:    total        iterations:
           time      wfs    density  energy       fermi  poisson
iter:   1  12:20:44          +inf  -185.802310    3      4      
iter:   2  12:20:44         -2.87  -185.801874    2      1      
iter:   3  12:20:45         -3.10  -185.801728    2      1      
iter:   4  12:20:45         -3.29  -185.801758    2      1      
iter:   5  12:20:46         -3.49  -185.801977    2      1      
iter:   6  12:20:47         -3.56  -185.802147    2      1      
iter:   7  12:20:47         -3.72  -185.802238    3      1      
iter:   8  12:20:48         -3.23  -185.802130    2      1      
iter:   9  12:20:49         -4.12  -185.801864    2      1      

Converged after 9 iterations.

Dipole moment: (0.371231, -0.753402, -0.277960) |e|*Ang

Energy contributions relative to reference atoms: (reference = -24663.074771)

Kinetic:       +118.145351
Potential:     -126.524640
External:        +0.000000
XC:            -180.326702
Entropy (-ST):   -0.203515
Local:           +3.005883
--------------------------
Free energy:   -185.903622
Extrapolated:  -185.801864

Fermi level: -4.38920

 Band  Eigenvalues  Occupancy
    0    -23.20005    2.00000
    1    -22.30958    2.00000
    2    -21.93334    2.00000
    3    -20.95694    2.00000
    4    -20.67575    2.00000
    5    -20.31004    2.00000
    6    -19.56749    2.00000
    7    -19.42846    2.00000
    8    -18.72842    2.00000
    9    -18.63110    2.00000
   10    -17.98305    2.00000
   11    -17.01410    2.00000
   12    -16.72430    2.00000
   13    -15.89506    2.00000
   14    -15.57707    2.00000
   15    -15.42948    2.00000
   16    -13.91257    2.00000
   17    -13.58052    2.00000
   18    -13.35181    2.00000
   19    -12.95037    2.00000
   20    -12.75180    2.00000
   21    -12.07064    2.00000
   22    -11.92081    2.00000
   23    -11.60357    2.00000
   24    -11.15964    2.00000
   25    -11.09498    2.00000
   26    -10.93290    2.00000
   27    -10.51985    2.00000
   28     -9.92659    2.00000
   29     -9.84939    2.00000
   30     -9.80346    2.00000
   31     -9.47703    2.00000
   32     -8.99179    2.00000
   33     -8.64669    2.00000
   34     -8.47286    2.00000
   35     -8.19357    2.00000
   36     -7.19550    2.00000
   37     -7.14960    2.00000
   38     -7.11457    2.00000
   39     -6.77838    2.00000
   40     -6.75640    2.00000
   41     -6.66243    2.00000
   42     -6.60050    2.00000
   43     -6.48648    2.00000
   44     -6.43245    2.00000
   45     -5.42298    1.99994
   46     -4.65688    1.87128
   47     -4.60725    1.79697
   48     -4.22765    0.33166
   49     -3.43501    0.00014
   50     -3.11669    0.00001
   51     -2.90696    0.00000
   52     -2.83689    0.00000
   53     -2.66942    0.00000
   54     -2.19000    0.00000
   55     -1.82438    0.00000
   56     -1.41099    0.00000
   57     -1.08877    0.00000
   58     -0.23450    0.00000
   59      0.01441    0.00000
   60      0.75578    0.00000
   61      2.17127    0.00000
   62      2.64541    0.00000
   63      3.23454    0.00000
   64      3.68609    0.00000
   65      3.80390    0.00000
   66      4.08900    0.00000
   67      4.15418    0.00000
   68      4.34029    0.00000
   69      5.05731    0.00000
   70      5.15197    0.00000
   71      5.75353    0.00000
   72      5.96241    0.00000
   73      6.44596    0.00000
   74      6.63105    0.00000
   75      6.67403    0.00000
   76      7.24170    0.00000
   77      7.40474    0.00000
   78      7.71719    0.00000
   79      7.82184    0.00000
   80      8.14327    0.00000
   81      8.26430    0.00000
   82      8.60030    0.00000
   83      8.97860    0.00000
   84      9.04708    0.00000
   85      9.07930    0.00000
   86      9.16366    0.00000
   87      9.32280    0.00000
   88      9.44800    0.00000
   89      9.48430    0.00000
   90      9.49519    0.00000
   91      9.55518    0.00000
   92      9.77539    0.00000
   93     10.18700    0.00000
   94     10.19862    0.00000
   95     10.24946    0.00000
   96     10.29532    0.00000
   97     10.44461    0.00000


Forces in eV/Ang:
  0 C    -0.00721   -0.02265   -0.01176
  1 C     0.02195   -0.00173   -0.04016
  2 C    -0.03469    0.01325   -0.04630
  3 C     0.02456   -0.01406   -0.00666
  4 C     0.00372    0.02391    0.01335
  5 C    -0.09259   -0.00899    0.08390
  6 C     0.09509    0.06922   -0.00356
  7 C    -0.01058   -0.02635   -0.00003
  8 C     0.00268    0.02963   -0.01608
  9 C    -0.01823   -0.02944    0.00134
 10 C     0.02535    0.02969    0.03899
 11 C     0.01178   -0.00042    0.00786
 12 C    -0.04183    0.02554   -0.01920
 13 C    -0.02346   -0.04689    0.04099
 14 C    -0.03274   -0.01205    0.00386
 15 C     0.01214   -0.00243    0.01749
 16 C    -0.00297   -0.01280   -0.00964
 17 C    -0.04687    0.04203    0.02189
 18 C    -0.00744    0.01281   -0.00199
 19 C    -0.01241   -0.05732   -0.04759
 20 C     0.04232    0.00815   -0.00398
 21 C     0.01452    0.00583   -0.03165
 22 C     0.07070   -0.04677    0.01997
 23 C     0.00436    0.01924    0.00393

System changes: positions 

Initializing position-dependent things.

Density initialized from wave functions
           .--------------------------------------.  
          /|                                      |  
         / |                                      |  
        /  |                                      |  
       /   |                                      |  
      /    |                                      |  
     /     |                                      |  
    /      |              C                       |  
   /       |           C     C C                  |  
  /        |    C   C                             |  
 *         |  C     C   C C   C                   |  
 |         | C                  C                 |  
 |         .---C---C-----C-----C------------------.  
 |        /          C      C                    /   
 |       /     C    C     C                     /    
 |      /        C     C                       /     
 |     /                                      /      
 |    /                                      /       
 |   /                                      /        
 |  /                                      /         
 | /                                      /          
 |/                                      /           
 *--------------------------------------*            

Positions:
   0 C     10.822199    5.677973    5.380319
   1 C      9.304898    3.663756    4.674291
   2 C      9.637231    4.941268    5.135587
   3 C     10.914807    6.876288    5.755507
   4 C      8.159193    3.185869    4.438597
   5 C      9.903213    7.823796    6.057234
   6 C      8.414933    5.749198    5.400666
   7 C      6.921353    3.813288    4.614792
   8 C      8.593027    7.125454    5.872978
   9 C      7.077356    5.184232    5.172950
  10 C      9.910179    9.167439    6.480938
  11 C      8.830419    9.828435    6.761173
  12 C      3.384615    6.303895    5.637690
  13 C      4.554627    4.184803    4.671817
  14 C      4.461360    5.474515    5.259199
  15 C      5.560337    3.475714    4.405648
  16 C      3.554508    7.490666    6.134617
  17 C      4.037299    8.667053    6.599266
  18 C      5.863309    5.948971    5.474300
  19 C      5.425749    8.446681    6.470411
  20 C      6.093473    7.235000    5.994160
  21 C      7.561341   10.242683    6.987928
  22 C      6.847543    9.077530    6.637547
  23 C      7.397086    7.804958    6.165101

Unit cell:
           periodic     x           y           z      points  spacing
  1. axis:    yes   16.000000    0.000000    0.000000    80     0.2000
  2. axis:    yes    0.000000   16.000000    0.000000    80     0.2000
  3. axis:    yes    0.000000    0.000000   10.000000    48     0.2083

Effective grid spacing dv^(1/3) = 0.2027

                     log10-error:    total        iterations:
           time      wfs    density  energy       fermi  poisson
iter:   1  12:20:51          +inf  -185.807954    3      4      
iter:   2  12:20:51         -2.83  -185.806418    2      1      
iter:   3  12:20:52         -3.12  -185.804990    2      1      
iter:   4  12:20:53         -3.42  -185.804127    2      1      
iter:   5  12:20:53         -3.56  -185.803858    2      1      
iter:   6  12:20:54         -3.71  -185.804361    2      1      
iter:   7  12:20:54         -3.73  -185.804420    2      1      
iter:   8  12:20:55         -3.24  -185.803940    2      1      
iter:   9  12:20:56         -3.50  -185.803513    2      1      
iter:  10  12:20:56         -4.18  -185.803605    2      1      

Converged after 10 iterations.

Dipole moment: (0.373952, -0.755864, -0.278913) |e|*Ang

Energy contributions relative to reference atoms: (reference = -24663.074771)

Kinetic:       +117.950052
Potential:     -126.378191
External:        +0.000000
XC:            -180.278091
Entropy (-ST):   -0.202065
Local:           +3.003658
--------------------------
Free energy:   -185.904637
Extrapolated:  -185.803605

Fermi level: -4.38923

 Band  Eigenvalues  Occupancy
    0    -23.19881    2.00000
    1    -22.30969    2.00000
    2    -21.93409    2.00000
    3    -20.95705    2.00000
    4    -20.67552    2.00000
    5    -20.30882    2.00000
    6    -19.56736    2.00000
    7    -19.42817    2.00000
    8    -18.72846    2.00000
    9    -18.63108    2.00000
   10    -17.98338    2.00000
   11    -17.01466    2.00000
   12    -16.72085    2.00000
   13    -15.89500    2.00000
   14    -15.57860    2.00000
   15    -15.43207    2.00000
   16    -13.91007    2.00000
   17    -13.58099    2.00000
   18    -13.34972    2.00000
   19    -12.95298    2.00000
   20    -12.75308    2.00000
   21    -12.07004    2.00000
   22    -11.92241    2.00000
   23    -11.60336    2.00000
   24    -11.15890    2.00000
   25    -11.09503    2.00000
   26    -10.93270    2.00000
   27    -10.51995    2.00000
   28     -9.92696    2.00000
   29     -9.84639    2.00000
   30     -9.80352    2.00000
   31     -9.47921    2.00000
   32     -8.98941    2.00000
   33     -8.64664    2.00000
   34     -8.47347    2.00000
   35     -8.19270    2.00000
   36     -7.19624    2.00000
   37     -7.14997    2.00000
   38     -7.11577    2.00000
   39     -6.77815    2.00000
   40     -6.75920    2.00000
   41     -6.66366    2.00000
   42     -6.59961    2.00000
   43     -6.48656    2.00000
   44     -6.43299    2.00000
   45     -5.42444    1.99994
   46     -4.65797    1.87256
   47     -4.60859    1.79934
   48     -4.22636    0.32802
   49     -3.43583    0.00014
   50     -3.11651    0.00001
   51     -2.90718    0.00000
   52     -2.83691    0.00000
   53     -2.67165    0.00000
   54     -2.19250    0.00000
   55     -1.82563    0.00000
   56     -1.41328    0.00000
   57     -1.08790    0.00000
   58     -0.23761    0.00000
   59      0.01400    0.00000
   60      0.75400    0.00000
   61      2.17043    0.00000
   62      2.64597    0.00000
   63      3.23832    0.00000
   64      3.68541    0.00000
   65      3.79623    0.00000
   66      4.08554    0.00000
   67      4.15855    0.00000
   68      4.33250    0.00000
   69      5.05552    0.00000
   70      5.13635    0.00000
   71      5.74784    0.00000
   72      5.95828    0.00000
   73      6.43783    0.00000
   74      6.62958    0.00000
   75      6.66967    0.00000
   76      7.23964    0.00000
   77      7.40150    0.00000
   78      7.71405    0.00000
   79      7.81297    0.00000
   80      8.13897    0.00000
   81      8.26216    0.00000
   82      8.59947    0.00000
   83      8.97801    0.00000
   84      9.04306    0.00000
   85      9.07773    0.00000
   86      9.16299    0.00000
   87      9.32016    0.00000
   88      9.44715    0.00000
   89      9.48436    0.00000
   90      9.49409    0.00000
   91      9.55234    0.00000
   92      9.77349    0.00000
   93     10.18665    0.00000
   94     10.19665    0.00000
   95     10.24748    0.00000
   96     10.29140    0.00000
   97     10.44410    0.00000


Forces in eV/Ang:
  0 C     0.01675   -0.02159   -0.00983
  1 C     0.03041   -0.00438   -0.04545
  2 C    -0.03951    0.01786   -0.04268
  3 C     0.03402   -0.01677   -0.01861
  4 C    -0.00080    0.02069    0.00820
  5 C    -0.05825    0.00498    0.07155
  6 C     0.06524    0.04515    0.02659
  7 C    -0.01136   -0.02172    0.00676
  8 C    -0.03046    0.04523   -0.00317
  9 C    -0.02242   -0.01925   -0.02451
 10 C     0.05190    0.04253    0.04150
 11 C     0.00479    0.00496    0.01103
 12 C    -0.00423    0.02681   -0.03337
 13 C    -0.03580   -0.00996    0.06153
 14 C    -0.01069   -0.00232    0.00587
 15 C     0.01948   -0.00626    0.01718
 16 C     0.01550   -0.00757    0.01334
 17 C     0.02632   -0.03795   -0.01979
 18 C    -0.00511   -0.00046   -0.00161
 19 C    -0.00950   -0.04416   -0.02830
 20 C    -0.01831   -0.02584   -0.01961
 21 C    -0.00517    0.03917    0.00642
 22 C     0.04205   -0.01922    0.00373
 23 C    -0.00434    0.00035    0.00377

