
  ___ ___ ___ _ _ _  
 |   |   |_  | | | | 
 | | | | | . | | | | 
 |__ |  _|___|_____|  1.3.0b1
 |___|_|             

User:   esb@s65n82.grendel.cscaa.dk
Date:   Thu Nov  9 10:43:00 2017
Arch:   x86_64
Pid:    65279
Python: 2.7.13
gpaw:   /home/esb/DFT/gpaw_git/gpaw
_gpaw:  /home/esb/DFT/gpaw_git/build/bin.linux-x86_64-2.7/gpaw-python
ase:    /home/esb/DFT/ase_git/ase (version 3.15.0b1)
numpy:  /comm/swstack/core/python/2.7.13/lib/python2.7/site-packages/numpy (version 1.13.3)
scipy:  /comm/swstack/core/python/2.7.13/lib/python2.7/site-packages/scipy (version 0.19.1)
units:  Angstrom and eV
cores:  16
Extra parameters: {'blacs': True}

Input parameters:
  basis: dzp
  gpts: [80 80 48]
  kpts: [1 1 1]
  maxiter: 99
  mixer: {backend: pulay,
          beta: 0.05,
          method: separate,
          nmaxold: 5,
          weight: 75}
  mode: lcao
  nbands: -50
  occupations: {name: fermi-dirac,
                width: 0.1}
  poissonsolver: {eps: 1e-07,
                  name: fd,
                  nn: 3,
                  relax: GS}
  xc: PBE

System changes: positions, numbers, cell, pbc, initial_charges, initial_magmoms 

Initialize ...

C-setup:
  name: Carbon
  id: 4aa54d4b901d75f77cc0ea3eec22967b
  Z: 6
  valence: 4
  core: 2
  charge: 0.0
  file: /home/esb/DFT/gpaw-setups-0.8.7929/C.PBE.gz
  cutoffs: 0.64(comp), 1.14(filt), 1.14(core), lmax=2
  valence states:
                energy  radius
    2s(2.00)   -13.751   0.635
    2p(2.00)    -5.284   0.635
    *s          13.461   0.635
    *p          21.927   0.635
    *d           0.000   0.635

  LCAO basis set for C:
    Name: dzp
    File: /home/esb/DFT/gpaw-setups-0.8.7929/C.dzp.basis.gz
    Number of radial functions: 5
    Number of spherical harmonics: 13
      l=0, rc=5.5469 Bohr: 2s-sz confined orbital
      l=1, rc=6.6719 Bohr: 2p-sz confined orbital
      l=0, rc=3.0312 Bohr: 2s-dz split-valence wave
      l=1, rc=3.7500 Bohr: 2p-dz split-valence wave
      l=2, rc=6.6719 Bohr: d-type Gaussian polarization

Reference energy: -24663.074771

Spin-paired calculation

Occupation numbers:
  Fermi-Dirac: width=0.1000 eV

Convergence criteria:
  Maximum total energy change: 0.0005 eV / electron
  Maximum integral of absolute density change: 0.0001 electrons
  Maximum integral of absolute eigenstate change: 4e-08 eV^2
  Maximum number of iterations: 99

Symmetries present (total): 1

  ( 1  0  0)
  ( 0  1  0)
  ( 0  0  1)

1 k-point (Gamma)
1 k-point in the irreducible part of the Brillouin zone
       k-points in crystal coordinates                weights
   0:     0.00000000    0.00000000    0.00000000          1/1

Wave functions: LCAO
  Diagonalizer: Serial LAPACK
  Atomic Correction: dense with blas
  Datatype: float
  Eigensolver: None 

LCAO using direct dense diagonalizer 

Densities:
  Coarse grid: 80*80*48 grid
  Fine grid: 160*160*96 grid
  Total Charge: 0.000000 

Density mixing:
  Method: separate
  Backend: pulay
  Linear mixing parameter: 0.05
  Mixing with 5 old densities
  Damping of long wave oscillations: 75 

Hamiltonian:
  XC and Coulomb potentials evaluated on a 160*160*96 grid
  Using the PBE Exchange-Correlation functional
  Interpolation: tri-quintic (5. degree polynomial)
  Poisson solver: Gauss-Seidel solver with 6 multi-grid levels
    Coarsest grid: 5 x 5 x 3 points
    Stencil: 6*3+1=19 point O(h^6) finite-difference Laplacian
    Max iterations: 1000
    Tolerance: 1.000000e-07 

Memory estimate:
  Process memory now: 77.57 MiB
  Calculator: 15.59 MiB
    Density: 6.13 MiB
      Arrays: 3.81 MiB
      Localized functions: 0.86 MiB
      Mixer: 1.46 MiB
    Hamiltonian: 5.40 MiB
      Arrays: 2.49 MiB
      XC: 0.00 MiB
      Poisson: 2.85 MiB
      vbar: 0.07 MiB
    Wavefunctions: 4.05 MiB
      C [qnM]: 0.23 MiB
      S, T [2 x qmm]: 1.49 MiB
      P [aqMi]: 0.01 MiB
      TCI: 0.00 MiB
      BasisFunctions: 2.33 MiB
      Eigensolver: 0.00 MiB

Total number of cores used: 16
Domain decomposition: 2 x 4 x 2

Number of atoms: 24
Number of atomic orbitals: 312
Number of bands in calculation: 98
Bands to converge: occupied states only
Number of valence electrons: 96

... initialized

Initializing position-dependent things.

Density initialized from atomic densities
           .--------------------------------------.  
          /|                                      |  
         / |                                      |  
        /  |                                      |  
       /   |                                      |  
      /    |                                      |  
     /     |                                      |  
    /      |                                      |  
   /       |                                      |  
  /        |           C  CC  C                   |  
 *         |  C C   C          C                  |  
 |         | C       C   C  C    C                |  
 |         .---C---C-C--------C-------------------.  
 |        /    C    C         C                  /   
 |       /       C     C  C                     /    
 |      /                                      /     
 |     /                                      /      
 |    /                                      /       
 |   /                                      /        
 |  /                                      /         
 | /                                      /          
 |/                                      /           
 *--------------------------------------*            

Positions:
   0 C      5.495636    8.689150    5.818119
   1 C      5.610078    3.318896    5.305737
   2 C      3.537909    7.528178    5.687544
   3 C      7.622854    9.807095    5.802140
   4 C      6.375922    9.789677    5.940044
   5 C      5.833599    6.079579    5.484298
   6 C      7.778894    7.476540    5.450777
   7 C      4.474201    5.498887    5.461761
   8 C      6.313855    7.469667    5.597377
   9 C      6.950910    3.769821    5.309245
  10 C      4.071908    8.709465    5.847802
  11 C      4.616837    4.088007    5.355297
  12 C      3.259175    6.251518    5.560335
  13 C      7.010492    5.237664    5.381104
  14 C     10.726437    5.232759    5.649679
  15 C      9.804456    8.588518    6.205694
  16 C      8.231229    3.193640    5.166810
  17 C      9.566873    6.171946    5.751354
  18 C      8.187501    6.278243    5.673598
  19 C      9.489486    3.319451    5.320676
  20 C     10.382163    7.408801    6.006993
  21 C      8.422937    8.818233    6.022144
  22 C     11.454974    6.415528    5.935323
  23 C     10.697761    3.903902    5.296983

Unit cell:
           periodic     x           y           z      points  spacing
  1. axis:    yes   16.000000    0.000000    0.000000    80     0.2000
  2. axis:    yes    0.000000   16.000000    0.000000    80     0.2000
  3. axis:    yes    0.000000    0.000000   10.000000    48     0.2083

Effective grid spacing dv^(1/3) = 0.2027

                     log10-error:    total        iterations:
           time      wfs    density  energy       fermi  poisson
iter:   1  10:43:01          +inf  -186.032387    2      6      
iter:   2  10:43:02         -0.90  -185.077994    3      3      
iter:   3  10:43:03         -0.93  -182.957404    34     3      
iter:   4  10:43:03         -1.07  -182.247922    4      3      
iter:   5  10:43:04         -1.18  -181.879311    34     4      
iter:   6  10:43:05         -1.49  -181.806923    3      2      
iter:   7  10:43:05         -1.58  -181.870826    2      3      
iter:   8  10:43:06         -1.73  -181.828018    3      2      
iter:   9  10:43:07         -1.81  -181.706015    3      2      
iter:  10  10:43:07         -2.05  -181.681376    3      2      
iter:  11  10:43:08         -2.27  -181.697800    3      2      
iter:  12  10:43:08         -2.31  -181.672409    3      2      
iter:  13  10:43:09         -2.59  -181.673891    3      2      
iter:  14  10:43:10         -2.78  -181.689474    3      1      
iter:  15  10:43:10         -2.89  -181.686492    3      1      
iter:  16  10:43:11         -3.01  -181.670306    3      2      
iter:  17  10:43:12         -3.11  -181.669342    2      1      
iter:  18  10:43:12         -3.17  -181.656925    3      1      
iter:  19  10:43:13         -3.41  -181.663758    3      1      
iter:  20  10:43:13         -3.54  -181.670286    2      1      
iter:  21  10:43:14         -3.76  -181.666992    2      1      
iter:  22  10:43:14         -3.99  -181.670022    2      1      
iter:  23  10:43:15         -4.05  -181.669136    2      1      

Converged after 23 iterations.

Dipole moment: (0.407070, 0.019273, 0.050160) |e|*Ang

Energy contributions relative to reference atoms: (reference = -24663.074771)

Kinetic:       +131.699580
Potential:     -134.899316
External:        +0.000000
XC:            -181.401745
Entropy (-ST):   -0.246510
Local:           +3.055600
--------------------------
Free energy:   -181.792390
Extrapolated:  -181.669136

Fermi level: -4.47602

 Band  Eigenvalues  Occupancy
    0    -23.55849    2.00000
    1    -22.65526    2.00000
    2    -21.74720    2.00000
    3    -21.08748    2.00000
    4    -20.66538    2.00000
    5    -20.36671    2.00000
    6    -19.63989    2.00000
    7    -19.39075    2.00000
    8    -18.54479    2.00000
    9    -18.32772    2.00000
   10    -17.70746    2.00000
   11    -17.21632    2.00000
   12    -16.54126    2.00000
   13    -16.11319    2.00000
   14    -15.26107    2.00000
   15    -14.66322    2.00000
   16    -14.37714    2.00000
   17    -13.82700    2.00000
   18    -13.42976    2.00000
   19    -12.63583    2.00000
   20    -12.33575    2.00000
   21    -12.31790    2.00000
   22    -11.80207    2.00000
   23    -11.24945    2.00000
   24    -11.08674    2.00000
   25    -10.90526    2.00000
   26    -10.78106    2.00000
   27    -10.48557    2.00000
   28    -10.28521    2.00000
   29     -9.97949    2.00000
   30     -9.59300    2.00000
   31     -9.34319    2.00000
   32     -9.17298    2.00000
   33     -8.66991    2.00000
   34     -8.54502    2.00000
   35     -8.22600    2.00000
   36     -7.47637    2.00000
   37     -7.13391    2.00000
   38     -7.04554    2.00000
   39     -7.00741    2.00000
   40     -6.49963    2.00000
   41     -6.44607    2.00000
   42     -6.32962    2.00000
   43     -5.92007    2.00000
   44     -5.52915    1.99995
   45     -5.06433    1.99444
   46     -4.70299    1.81267
   47     -4.67892    1.76761
   48     -4.34204    0.41506
   49     -3.94938    0.01027
   50     -3.10209    0.00000
   51     -3.06372    0.00000
   52     -2.88020    0.00000
   53     -2.74853    0.00000
   54     -2.46345    0.00000
   55     -1.12838    0.00000
   56     -1.02934    0.00000
   57     -0.81861    0.00000
   58     -0.43204    0.00000
   59      0.18412    0.00000
   60      0.41709    0.00000
   61      1.96788    0.00000
   62      2.16558    0.00000
   63      2.65644    0.00000
   64      2.98977    0.00000
   65      3.52923    0.00000
   66      3.83436    0.00000
   67      4.18138    0.00000
   68      4.62472    0.00000
   69      5.03057    0.00000
   70      5.41992    0.00000
   71      5.56077    0.00000
   72      6.18045    0.00000
   73      6.22631    0.00000
   74      6.65780    0.00000
   75      6.94853    0.00000
   76      7.33949    0.00000
   77      7.52096    0.00000
   78      7.88357    0.00000
   79      8.18739    0.00000
   80      8.31753    0.00000
   81      8.53081    0.00000
   82      8.73256    0.00000
   83      8.81516    0.00000
   84      8.97718    0.00000
   85      9.13137    0.00000
   86      9.27494    0.00000
   87      9.30042    0.00000
   88      9.44426    0.00000
   89      9.57224    0.00000
   90      9.72354    0.00000
   91      9.74851    0.00000
   92      9.90903    0.00000
   93     10.09427    0.00000
   94     10.25305    0.00000
   95     10.25878    0.00000
   96     10.37839    0.00000
   97     10.51667    0.00000


Forces in eV/Ang:
  0 C     0.09151    0.39496   -0.25833
  1 C     0.30619   -0.09601   -0.01783
  2 C    -0.29801    0.24963    0.26495
  3 C    -2.88885    4.30581    0.48344
  4 C    -1.19987    0.21947   -0.48333
  5 C     0.69905   -0.47641   -0.40005
  6 C    -5.52216    8.87834    2.50935
  7 C    -0.75521   -0.31706    0.08187
  8 C    -0.68820    0.35475   -0.98483
  9 C     1.30862    0.90100   -0.19744
 10 C     0.02813   -0.20483   -0.02159
 11 C    -0.11504    0.32103    0.04454
 12 C     0.45045   -0.15990   -0.24840
 13 C     0.20142    1.21878    1.42382
 14 C    -0.11137   -0.30388   -0.03873
 15 C    -0.07609    0.07948    0.19078
 16 C    -0.04318   -0.57523    0.04088
 17 C     1.40377   -0.36379    0.36762
 18 C     2.37081   -8.44209   -1.16068
 19 C    -0.49408   -0.08066   -0.09141
 20 C    -0.19489   -0.47882    0.08918
 21 C     5.10641   -5.64311   -1.86721
 22 C     0.36935    0.03340    0.07795
 23 C     0.17329    0.21890    0.08503

System changes: positions 

Initializing position-dependent things.

Density initialized from wave functions
           .--------------------------------------.  
          /|                                      |  
         / |                                      |  
        /  |                                      |  
       /   |                                      |  
      /    |                                      |  
     /     |                                      |  
    /      |                                      |  
   /       |                                      |  
  /        |           C  CC  C                   |  
 *         |  C C   C          C                  |  
 |         | C       C   C  C    C                |  
 |         .---C---C-C--------C-------------------.  
 |        /    C    C         C                  /   
 |       /       C     C  C                     /    
 |      /                                      /     
 |     /                                      /      
 |    /                                      /       
 |   /                                      /        
 |  /                                      /         
 | /                                      /          
 |/                                      /           
 *--------------------------------------*            

Positions:
   0 C      5.495976    8.690619    5.817158
   1 C      5.611217    3.318539    5.305671
   2 C      3.536801    7.529106    5.688529
   3 C      7.612108    9.823113    5.803938
   4 C      6.371459    9.790493    5.938246
   5 C      5.836199    6.077807    5.482809
   6 C      7.758351    7.509568    5.460112
   7 C      4.471392    5.497707    5.462066
   8 C      6.311295    7.470987    5.593713
   9 C      6.955778    3.773173    5.308510
  10 C      4.072013    8.708703    5.847722
  11 C      4.616409    4.089201    5.355463
  12 C      3.260851    6.250923    5.559411
  13 C      7.011241    5.242198    5.386401
  14 C     10.726023    5.231629    5.649535
  15 C      9.804173    8.588814    6.206403
  16 C      8.231069    3.191501    5.166962
  17 C      9.572095    6.170592    5.752721
  18 C      8.196321    6.246838    5.669280
  19 C      9.487648    3.319150    5.320336
  20 C     10.381438    7.407019    6.007324
  21 C      8.441933    8.797240    6.015197
  22 C     11.456348    6.415652    5.935613
  23 C     10.698406    3.904716    5.297300

Unit cell:
           periodic     x           y           z      points  spacing
  1. axis:    yes   16.000000    0.000000    0.000000    80     0.2000
  2. axis:    yes    0.000000   16.000000    0.000000    80     0.2000
  3. axis:    yes    0.000000    0.000000   10.000000    48     0.2083

Effective grid spacing dv^(1/3) = 0.2027

                     log10-error:    total        iterations:
           time      wfs    density  energy       fermi  poisson
iter:   1  10:43:17          +inf  -182.538929    2      5      
iter:   2  10:43:18         -2.30  -182.533780    3      1      
iter:   3  10:43:19         -2.37  -182.525869    3      2      
iter:   4  10:43:19         -2.60  -182.523091    3      2      
iter:   5  10:43:20         -2.73  -182.526050    3      2      
iter:   6  10:43:21         -2.70  -182.524852    3      2      
iter:   7  10:43:21         -2.65  -182.522510    3      2      
iter:   8  10:43:22         -3.22  -182.521967    2      1      
iter:   9  10:43:22         -3.46  -182.521948    2      1      
iter:  10  10:43:23         -3.65  -182.522230    1      1      
iter:  11  10:43:24         -3.74  -182.522225    2      1      
iter:  12  10:43:24         -3.87  -182.522279    2      1      
iter:  13  10:43:25         -3.98  -182.522345    2      1      
iter:  14  10:43:25         -4.14  -182.522349    2      1      

Converged after 14 iterations.

Dipole moment: (0.409271, -0.016999, 0.047325) |e|*Ang

Energy contributions relative to reference atoms: (reference = -24663.074771)

Kinetic:       +126.625562
Potential:     -131.231790
External:        +0.000000
XC:            -180.772377
Entropy (-ST):   -0.255884
Local:           +2.984199
--------------------------
Free energy:   -182.650291
Extrapolated:  -182.522349

Fermi level: -4.51615

 Band  Eigenvalues  Occupancy
    0    -23.51946    2.00000
    1    -22.59426    2.00000
    2    -21.70329    2.00000
    3    -20.97959    2.00000
    4    -20.56790    2.00000
    5    -20.38802    2.00000
    6    -19.66253    2.00000
    7    -19.37394    2.00000
    8    -18.47568    2.00000
    9    -18.30982    2.00000
   10    -17.69019    2.00000
   11    -17.25611    2.00000
   12    -16.51076    2.00000
   13    -16.11757    2.00000
   14    -15.18619    2.00000
   15    -14.68409    2.00000
   16    -14.38119    2.00000
   17    -13.77498    2.00000
   18    -13.38915    2.00000
   19    -12.62870    2.00000
   20    -12.32912    2.00000
   21    -12.30685    2.00000
   22    -11.80105    2.00000
   23    -11.26484    2.00000
   24    -10.98277    2.00000
   25    -10.90088    2.00000
   26    -10.71012    2.00000
   27    -10.43042    2.00000
   28    -10.34555    2.00000
   29     -9.97999    2.00000
   30     -9.56423    2.00000
   31     -9.34173    2.00000
   32     -9.23881    2.00000
   33     -8.64641    2.00000
   34     -8.46322    2.00000
   35     -8.18613    2.00000
   36     -7.50112    2.00000
   37     -7.12266    2.00000
   38     -7.04475    2.00000
   39     -7.03316    2.00000
   40     -6.43677    2.00000
   41     -6.41019    2.00000
   42     -6.32083    2.00000
   43     -5.91567    2.00000
   44     -5.57065    1.99995
   45     -5.09078    1.99363
   46     -4.73806    1.80390
   47     -4.71191    1.75254
   48     -4.38896    0.43787
   49     -4.00613    0.01212
   50     -3.08689    0.00000
   51     -2.99248    0.00000
   52     -2.87849    0.00000
   53     -2.71736    0.00000
   54     -2.40774    0.00000
   55     -1.15766    0.00000
   56     -1.03172    0.00000
   57     -0.83899    0.00000
   58     -0.37009    0.00000
   59      0.19644    0.00000
   60      0.43376    0.00000
   61      1.99643    0.00000
   62      2.16850    0.00000
   63      2.92553    0.00000
   64      3.06585    0.00000
   65      3.53878    0.00000
   66      3.89351    0.00000
   67      4.26960    0.00000
   68      4.67486    0.00000
   69      5.00285    0.00000
   70      5.42750    0.00000
   71      5.57457    0.00000
   72      6.24605    0.00000
   73      6.35423    0.00000
   74      6.71465    0.00000
   75      6.94749    0.00000
   76      7.34929    0.00000
   77      7.59646    0.00000
   78      7.84024    0.00000
   79      8.25597    0.00000
   80      8.32402    0.00000
   81      8.54292    0.00000
   82      8.74389    0.00000
   83      8.85455    0.00000
   84      8.96360    0.00000
   85      9.07085    0.00000
   86      9.23041    0.00000
   87      9.29980    0.00000
   88      9.46969    0.00000
   89      9.59175    0.00000
   90      9.74110    0.00000
   91      9.79391    0.00000
   92      9.89623    0.00000
   93     10.11951    0.00000
   94     10.28639    0.00000
   95     10.33700    0.00000
   96     10.40703    0.00000
   97     10.54842    0.00000


Forces in eV/Ang:
  0 C    -0.16962    0.32028   -0.27332
  1 C     0.34103    0.05767   -0.01935
  2 C    -0.37853    0.13288    0.24114
  3 C    -0.87594    2.47722    0.81446
  4 C    -1.34343    0.29000   -0.36330
  5 C     0.54839   -0.38544   -0.35303
  6 C    -3.41041    4.51298    2.94840
  7 C    -0.53791   -0.31083    0.05390
  8 C    -0.85849    0.52609   -0.83738
  9 C     0.94830    0.83929   -0.18112
 10 C     0.09632   -0.17408   -0.01832
 11 C     0.00902    0.14862    0.03942
 12 C     0.40684   -0.01949   -0.22026
 13 C     0.39921    0.89386    1.28618
 14 C     0.22356   -0.37684   -0.00039
 15 C     0.58991   -0.09806    0.26628
 16 C    -0.05364   -0.54921    0.03042
 17 C     1.03193   -0.38811    0.27903
 18 C     0.93449   -4.34586   -1.65645
 19 C    -0.28735   -0.08858   -0.07766
 20 C    -0.00438   -0.45008    0.07563
 21 C     2.31882   -3.24911   -2.27713
 22 C     0.17726    0.02848    0.05552
 23 C     0.01583    0.20614    0.07800

System changes: positions 

Initializing position-dependent things.

Density initialized from wave functions
           .--------------------------------------.  
          /|                                      |  
         / |                                      |  
        /  |                                      |  
       /   |                                      |  
      /    |                                      |  
     /     |                                      |  
    /      |                                      |  
   /       |                                      |  
  /        |           C  CC  C                   |  
 *         |  C C   C          C                  |  
 |         | C       C   C  C    C                |  
 |         .---C---C-C--------C-------------------.  
 |        /    C    C         C                  /   
 |       /       C     C  C                     /    
 |      /                                      /     
 |     /                                      /      
 |    /                                      /       
 |   /                                      /        
 |  /                                      /         
 | /                                      /          
 |/                                      /           
 *--------------------------------------*            

Positions:
   0 C      5.493230    8.693118    5.814653
   1 C      5.614419    3.319780    5.305491
   2 C      3.533049    7.529737    5.690564
   3 C      7.613830    9.836523    5.812758
   4 C      6.358815    9.793410    5.935578
   5 C      5.840370    6.074804    5.479888
   6 C      7.737970    7.529107    5.488447
   7 C      4.467629    5.494968    5.462413
   8 C      6.302844    7.476483    5.586953
   9 C      6.962519    3.780355    5.306974
  10 C      4.073193    8.707298    5.847574
  11 C      4.617076    4.089709    5.355790
  12 C      3.264268    6.251414    5.557582
  13 C      7.015732    5.248622    5.397204
  14 C     10.729598    5.227927    5.649713
  15 C      9.812577    8.587100    6.209132
  16 C      8.230542    3.186733    5.167183
  17 C      9.579526    6.167021    5.754787
  18 C      8.197848    6.227514    5.652183
  19 C      9.486067    3.318324    5.319709
  20 C     10.382300    7.403147    6.007934
  21 C      8.449395    8.779630    5.992979
  22 C     11.457018    6.415883    5.936001
  23 C     10.697802    3.906492    5.297961

Unit cell:
           periodic     x           y           z      points  spacing
  1. axis:    yes   16.000000    0.000000    0.000000    80     0.2000
  2. axis:    yes    0.000000   16.000000    0.000000    80     0.2000
  3. axis:    yes    0.000000    0.000000   10.000000    48     0.2083

Effective grid spacing dv^(1/3) = 0.2027

                     log10-error:    total        iterations:
           time      wfs    density  energy       fermi  poisson
iter:   1  10:43:28          +inf  -183.075676    3      5      
iter:   2  10:43:28         -2.17  -183.061754    3      2      
iter:   3  10:43:29         -2.35  -183.053356    3      2      
iter:   4  10:43:30         -2.51  -183.049507    3      2      
iter:   5  10:43:30         -2.63  -183.046408    3      2      
iter:   6  10:43:31         -2.82  -183.045848    3      2      
iter:   7  10:43:32         -3.08  -183.045323    2      1      
iter:   8  10:43:32         -3.18  -183.045274    2      1      
iter:   9  10:43:33         -3.31  -183.044609    2      1      
iter:  10  10:43:33         -3.65  -183.045271    2      1      
iter:  11  10:43:34         -3.77  -183.045525    2      1      
iter:  12  10:43:35         -3.88  -183.045568    2      1      
iter:  13  10:43:35         -3.97  -183.045483    2      1      
iter:  14  10:43:36         -4.13  -183.045666    2      1      

Converged after 14 iterations.

Dipole moment: (0.403046, -0.042599, 0.039529) |e|*Ang

Energy contributions relative to reference atoms: (reference = -24663.074771)

Kinetic:       +123.671724
Potential:     -129.111816
External:        +0.000000
XC:            -180.464883
Entropy (-ST):   -0.265546
Local:           +2.992083
--------------------------
Free energy:   -183.178439
Extrapolated:  -183.045666

Fermi level: -4.54065

 Band  Eigenvalues  Occupancy
    0    -23.51915    2.00000
    1    -22.57961    2.00000
    2    -21.67092    2.00000
    3    -20.95588    2.00000
    4    -20.49565    2.00000
    5    -20.38678    2.00000
    6    -19.66495    2.00000
    7    -19.37257    2.00000
    8    -18.39537    2.00000
    9    -18.29587    2.00000
   10    -17.68324    2.00000
   11    -17.29487    2.00000
   12    -16.50526    2.00000
   13    -16.10398    2.00000
   14    -15.15026    2.00000
   15    -14.68281    2.00000
   16    -14.38994    2.00000
   17    -13.76213    2.00000
   18    -13.39625    2.00000
   19    -12.61231    2.00000
   20    -12.33559    2.00000
   21    -12.27780    2.00000
   22    -11.80058    2.00000
   23    -11.28946    2.00000
   24    -10.95296    2.00000
   25    -10.90020    2.00000
   26    -10.69177    2.00000
   27    -10.41523    2.00000
   28    -10.39166    2.00000
   29     -9.98466    2.00000
   30     -9.54518    2.00000
   31     -9.39793    2.00000
   32     -9.24866    2.00000
   33     -8.65258    2.00000
   34     -8.43472    2.00000
   35     -8.13349    2.00000
   36     -7.52028    2.00000
   37     -7.11674    2.00000
   38     -7.05985    2.00000
   39     -7.04148    2.00000
   40     -6.39521    2.00000
   41     -6.35792    2.00000
   42     -6.28308    2.00000
   43     -5.89857    2.00000
   44     -5.60663    1.99995
   45     -5.10409    1.99288
   46     -4.76104    1.80121
   47     -4.72518    1.72716
   48     -4.42150    0.46598
   49     -4.03633    0.01282
   50     -3.09701    0.00000
   51     -2.95653    0.00000
   52     -2.87141    0.00000
   53     -2.75211    0.00000
   54     -2.43637    0.00000
   55     -1.18823    0.00000
   56     -0.98469    0.00000
   57     -0.84991    0.00000
   58     -0.33986    0.00000
   59      0.23878    0.00000
   60      0.49455    0.00000
   61      2.02225    0.00000
   62      2.18114    0.00000
   63      3.07315    0.00000
   64      3.17918    0.00000
   65      3.56672    0.00000
   66      4.00551    0.00000
   67      4.37650    0.00000
   68      4.75543    0.00000
   69      5.00015    0.00000
   70      5.41927    0.00000
   71      5.60192    0.00000
   72      6.30763    0.00000
   73      6.42338    0.00000
   74      6.78319    0.00000
   75      6.94879    0.00000
   76      7.34844    0.00000
   77      7.65144    0.00000
   78      7.84853    0.00000
   79      8.29950    0.00000
   80      8.34502    0.00000
   81      8.56557    0.00000
   82      8.75740    0.00000
   83      8.87376    0.00000
   84      8.94450    0.00000
   85      9.02732    0.00000
   86      9.23246    0.00000
   87      9.32626    0.00000
   88      9.48481    0.00000
   89      9.61706    0.00000
   90      9.75735    0.00000
   91      9.85391    0.00000
   92      9.89084    0.00000
   93     10.17097    0.00000
   94     10.29724    0.00000
   95     10.36939    0.00000
   96     10.47857    0.00000
   97     10.55057    0.00000


Forces in eV/Ang:
  0 C    -0.31514    0.31114   -0.30064
  1 C     0.42189    0.19238   -0.02748
  2 C    -0.34766    0.18018    0.21227
  3 C    -1.30247    1.65312    0.95089
  4 C     0.04194    0.45963   -0.36272
  5 C     0.24416   -0.16236   -0.26102
  6 C    -2.20124    2.48305    2.63576
  7 C    -0.24239   -0.26434    0.00874
  8 C    -0.86212    0.37746   -0.60627
  9 C     0.61858    0.69841   -0.12046
 10 C    -0.10459   -0.21824   -0.01669
 11 C     0.10550   -0.00776    0.03727
 12 C     0.31232    0.01287   -0.17834
 13 C     0.42211    0.57239    1.00341
 14 C     0.39474   -0.25991    0.07928
 15 C     0.49852   -0.05190    0.18606
 16 C    -0.03427   -0.50379    0.00646
 17 C     0.34627   -0.36530    0.12049
 18 C     0.79417   -2.48104   -1.47778
 19 C    -0.12051   -0.07239   -0.06147
 20 C     0.09090   -0.40349    0.07642
 21 C     1.37266   -2.03447   -2.01157
 22 C     0.10794   -0.08473    0.00941
 23 C    -0.09846   -0.00230    0.01962

System changes: positions 

Initializing position-dependent things.

Density initialized from wave functions
           .--------------------------------------.  
          /|                                      |  
         / |                                      |  
        /  |                                      |  
       /   |                                      |  
      /    |                                      |  
     /     |                                      |  
    /      |                                      |  
   /       |                                      |  
  /        |           C  CC  C                   |  
 *         |  C C   C          C                  |  
 |         | C       C   C  C    C                |  
 |         .---C---C-C--------C-------------------.  
 |        /    C    C         C                  /   
 |       /       C     C  C                     /    
 |      /                                      /     
 |     /                                      /      
 |    /                                      /       
 |   /                                      /        
 |  /                                      /         
 | /                                      /          
 |/                                      /           
 *--------------------------------------*            

Positions:
   0 C      5.488226    8.696678    5.810858
   1 C      5.619856    3.322884    5.305135
   2 C      3.528535    7.531623    5.693052
   3 C      7.604122    9.849309    5.825819
   4 C      6.360915    9.799569    5.931528
   5 C      5.842398    6.073455    5.476974
   6 C      7.719994    7.541515    5.521956
   7 C      4.465841    5.491805    5.462356
   8 C      6.291632    7.481501    5.580345
   9 C      6.968393    3.788531    5.305638
  10 C      4.071840    8.704651    5.847382
  11 C      4.618950    4.088781    5.356228
  12 C      3.267821    6.252107    5.555546
  13 C      7.021650    5.254062    5.408659
  14 C     10.735876    5.224650    5.650941
  15 C      9.820886    8.585916    6.211564
  16 C      8.230112    3.180687    5.167191
  17 C      9.581472    6.162472    5.755726
  18 C      8.202442    6.213950    5.632536
  19 C      9.485550    3.317430    5.319024
  20 C     10.384222    7.398348    6.008829
  21 C      8.455222    8.764693    5.967186
  22 C     11.457578    6.414652    5.935970
  23 C     10.695872    3.906106    5.298090

Unit cell:
           periodic     x           y           z      points  spacing
  1. axis:    yes   16.000000    0.000000    0.000000    80     0.2000
  2. axis:    yes    0.000000   16.000000    0.000000    80     0.2000
  3. axis:    yes    0.000000    0.000000   10.000000    48     0.2083

Effective grid spacing dv^(1/3) = 0.2027

                     log10-error:    total        iterations:
           time      wfs    density  energy       fermi  poisson
iter:   1  10:43:38          +inf  -183.421399    3      5      
iter:   2  10:43:39         -2.21  -183.414969    3      2      
iter:   3  10:43:39         -2.46  -183.410047    3      1      
iter:   4  10:43:40         -2.58  -183.407924    3      1      
iter:   5  10:43:41         -2.68  -183.408599    3      2      
iter:   6  10:43:41         -2.86  -183.407426    2      2      
iter:   7  10:43:42         -2.69  -183.409670    3      2      
iter:   8  10:43:42         -2.92  -183.408011    2      1      
iter:   9  10:43:43         -3.36  -183.407373    2      1      
iter:  10  10:43:44         -3.43  -183.407059    2      1      
iter:  11  10:43:44         -3.69  -183.407902    2      1      
iter:  12  10:43:45         -3.71  -183.408054    2      1      
iter:  13  10:43:45         -3.80  -183.407873    2      1      
iter:  14  10:43:46         -3.80  -183.407768    2      1      
iter:  15  10:43:47         -4.03  -183.407777    2      1      

Converged after 15 iterations.

Dipole moment: (0.392406, -0.064226, 0.032004) |e|*Ang

Energy contributions relative to reference atoms: (reference = -24663.074771)

Kinetic:       +122.964660
Potential:     -128.700257
External:        +0.000000
XC:            -180.544854
Entropy (-ST):   -0.271342
Local:           +3.008346
--------------------------
Free energy:   -183.543448
Extrapolated:  -183.407777

Fermi level: -4.55124

 Band  Eigenvalues  Occupancy
    0    -23.50542    2.00000
    1    -22.56437    2.00000
    2    -21.65045    2.00000
    3    -20.94909    2.00000
    4    -20.47277    2.00000
    5    -20.35204    2.00000
    6    -19.66359    2.00000
    7    -19.37839    2.00000
    8    -18.36299    2.00000
    9    -18.29116    2.00000
   10    -17.66366    2.00000
   11    -17.33447    2.00000
   12    -16.48487    2.00000
   13    -16.11944    2.00000
   14    -15.13414    2.00000
   15    -14.67441    2.00000
   16    -14.42543    2.00000
   17    -13.74674    2.00000
   18    -13.39419    2.00000
   19    -12.60033    2.00000
   20    -12.33777    2.00000
   21    -12.25312    2.00000
   22    -11.81462    2.00000
   23    -11.30117    2.00000
   24    -10.95269    2.00000
   25    -10.88072    2.00000
   26    -10.68274    2.00000
   27    -10.47320    2.00000
   28    -10.37371    2.00000
   29     -9.98289    2.00000
   30     -9.53819    2.00000
   31     -9.43292    2.00000
   32     -9.22849    2.00000
   33     -8.65914    2.00000
   34     -8.43264    2.00000
   35     -8.08353    2.00000
   36     -7.53477    2.00000
   37     -7.11025    2.00000
   38     -7.08421    2.00000
   39     -7.05540    2.00000
   40     -6.39643    2.00000
   41     -6.33453    2.00000
   42     -6.30015    2.00000
   43     -5.90338    2.00000
   44     -5.62972    1.99996
   45     -5.11590    1.99297
   46     -4.77325    1.80409
   47     -4.72746    1.70698
   48     -4.43623    0.48097
   49     -4.06292    0.01503
   50     -3.08447    0.00000
   51     -2.91590    0.00000
   52     -2.85464    0.00000
   53     -2.73632    0.00000
   54     -2.42106    0.00000
   55     -1.21056    0.00000
   56     -0.97236    0.00000
   57     -0.82710    0.00000
   58     -0.31385    0.00000
   59      0.28362    0.00000
   60      0.60124    0.00000
   61      2.06779    0.00000
   62      2.19602    0.00000
   63      3.10475    0.00000
   64      3.25919    0.00000
   65      3.60182    0.00000
   66      4.13751    0.00000
   67      4.47351    0.00000
   68      4.83948    0.00000
   69      4.99934    0.00000
   70      5.42394    0.00000
   71      5.62842    0.00000
   72      6.34791    0.00000
   73      6.47336    0.00000
   74      6.84003    0.00000
   75      6.97086    0.00000
   76      7.32916    0.00000
   77      7.67554    0.00000
   78      7.89711    0.00000
   79      8.27960    0.00000
   80      8.33777    0.00000
   81      8.56674    0.00000
   82      8.75691    0.00000
   83      8.85550    0.00000
   84      8.94601    0.00000
   85      9.01483    0.00000
   86      9.22382    0.00000
   87      9.35309    0.00000
   88      9.48803    0.00000
   89      9.63938    0.00000
   90      9.75956    0.00000
   91      9.86428    0.00000
   92      9.90901    0.00000
   93     10.21523    0.00000
   94     10.30400    0.00000
   95     10.38842    0.00000
   96     10.52425    0.00000
   97     10.56113    0.00000


Forces in eV/Ang:
  0 C    -0.23296    0.46965   -0.28648
  1 C     0.45012    0.25297   -0.03674
  2 C    -0.38307   -0.00621    0.16072
  3 C     0.28443    0.85035    0.88513
  4 C    -0.93980    0.24519   -0.25016
  5 C     0.07743   -0.03690   -0.18182
  6 C    -1.36359    1.20664    2.10291
  7 C    -0.06057   -0.19946   -0.02485
  8 C    -0.80236    0.31202   -0.33362
  9 C     0.48268    0.51642   -0.04639
 10 C    -0.12564   -0.02812   -0.00127
 11 C     0.13070   -0.08451    0.03851
 12 C     0.24002    0.05048   -0.13565
 13 C     0.31104    0.36643    0.68589
 14 C     0.39753   -0.25157    0.10929
 15 C     0.26505    0.00640    0.06165
 16 C    -0.00621   -0.43392   -0.01632
 17 C     0.22267   -0.32866    0.01687
 18 C     0.49399   -1.32246   -1.14918
 19 C    -0.13140   -0.10642   -0.04955
 20 C     0.08705   -0.37475    0.08365
 21 C     0.67123   -0.91744   -1.63482
 22 C     0.08913   -0.13433   -0.02573
 23 C    -0.07433   -0.04603   -0.00561

System changes: positions 

Initializing position-dependent things.

Density initialized from wave functions
           .--------------------------------------.  
          /|                                      |  
         / |                                      |  
        /  |                                      |  
       /   |                                      |  
      /    |                                      |  
     /     |                                      |  
    /      |                                      |  
   /       |                                      |  
  /        |           C  CC  C                   |  
 *         |  C C   C          C                  |  
 |         | C       C  CC  C    C                |  
 |         .---C---C-C--------C-------------------.  
 |        /    C    C         C                  /   
 |       /       C     C  C                     /    
 |      /                                      /     
 |     /                                      /      
 |    /                                      /       
 |   /                                      /        
 |  /                                      /         
 | /                                      /          
 |/                                      /           
 *--------------------------------------*            

Positions:
   0 C      5.483527    8.703788    5.806129
   1 C      5.627298    3.327422    5.304540
   2 C      3.522366    7.531781    5.695629
   3 C      7.608222    9.859419    5.841088
   4 C      6.350602    9.804438    5.927498
   5 C      5.842992    6.073299    5.474193
   6 C      7.702941    7.551037    5.556864
   7 C      4.465586    5.488589    5.461866
   8 C      6.278295    7.486603    5.575251
   9 C      6.975029    3.796755    5.304920
  10 C      4.069510    8.703790    5.847342
  11 C      4.621446    4.086903    5.356832
  12 C      3.271527    6.253168    5.553428
  13 C      7.027266    5.259039    5.419407
  14 C     10.743253    5.220727    5.652896
  15 C      9.826545    8.585706    6.212738
  16 C      8.229986    3.173719    5.166897
  17 C      9.583053    6.157122    5.755672
  18 C      8.208132    6.201934    5.612961
  19 C      9.484202    3.315804    5.318266
  20 C     10.386184    7.392418    6.010141
  21 C      8.460300    8.754800    5.940052
  22 C     11.458553    6.412312    5.935476
  23 C     10.694090    3.904942    5.297900

Unit cell:
           periodic     x           y           z      points  spacing
  1. axis:    yes   16.000000    0.000000    0.000000    80     0.2000
  2. axis:    yes    0.000000   16.000000    0.000000    80     0.2000
  3. axis:    yes    0.000000    0.000000   10.000000    48     0.2083

Effective grid spacing dv^(1/3) = 0.2027

                     log10-error:    total        iterations:
           time      wfs    density  energy       fermi  poisson
iter:   1  10:43:49          +inf  -183.674708    3      5      
iter:   2  10:43:50         -2.19  -183.659047    3      2      
iter:   3  10:43:50         -2.45  -183.653819    3      1      
iter:   4  10:43:51         -2.62  -183.652313    3      1      
iter:   5  10:43:51         -2.69  -183.649961    3      2      
iter:   6  10:43:52         -2.86  -183.651432    3      2      
iter:   7  10:43:53         -2.67  -183.650699    3      2      
iter:   8  10:43:53         -2.86  -183.649353    2      1      
iter:   9  10:43:54         -3.33  -183.648753    2      1      
iter:  10  10:43:55         -3.35  -183.648713    2      1      
iter:  11  10:43:55         -3.74  -183.649016    2      1      
iter:  12  10:43:56         -3.85  -183.648911    2      1      
iter:  13  10:43:56         -3.96  -183.649005    2      1      
iter:  14  10:43:57         -4.08  -183.648915    2      1      

Converged after 14 iterations.

Dipole moment: (0.378548, -0.081411, 0.024459) |e|*Ang

Energy contributions relative to reference atoms: (reference = -24663.074771)

Kinetic:       +121.147101
Potential:     -127.347529
External:        +0.000000
XC:            -180.312415
Entropy (-ST):   -0.275885
Local:           +3.001871
--------------------------
Free energy:   -183.786857
Extrapolated:  -183.648915

Fermi level: -4.55637

 Band  Eigenvalues  Occupancy
    0    -23.48967    2.00000
    1    -22.54715    2.00000
    2    -21.63422    2.00000
    3    -20.94676    2.00000
    4    -20.46175    2.00000
    5    -20.30801    2.00000
    6    -19.65945    2.00000
    7    -19.37587    2.00000
    8    -18.32974    2.00000
    9    -18.27439    2.00000
   10    -17.66559    2.00000
   11    -17.34852    2.00000
   12    -16.48223    2.00000
   13    -16.10388    2.00000
   14    -15.14192    2.00000
   15    -14.66336    2.00000
   16    -14.42993    2.00000
   17    -13.75759    2.00000
   18    -13.40004    2.00000
   19    -12.59025    2.00000
   20    -12.34535    2.00000
   21    -12.23708    2.00000
   22    -11.81817    2.00000
   23    -11.31107    2.00000
   24    -10.96935    2.00000
   25    -10.85042    2.00000
   26    -10.66982    2.00000
   27    -10.53617    2.00000
   28    -10.36394    2.00000
   29     -9.98083    2.00000
   30     -9.55584    2.00000
   31     -9.44097    2.00000
   32     -9.18555    2.00000
   33     -8.66469    2.00000
   34     -8.43186    2.00000
   35     -8.03904    2.00000
   36     -7.54462    2.00000
   37     -7.11401    2.00000
   38     -7.10480    2.00000
   39     -7.05888    2.00000
   40     -6.38041    2.00000
   41     -6.31106    2.00000
   42     -6.26562    2.00000
   43     -5.87853    2.00000
   44     -5.63797    1.99996
   45     -5.13606    1.99394
   46     -4.78088    1.80845
   47     -4.72468    1.68663
   48     -4.44480    0.49362
   49     -4.08278    0.01740
   50     -3.08601    0.00000
   51     -2.89675    0.00000
   52     -2.85074    0.00000
   53     -2.77844    0.00000
   54     -2.46984    0.00000
   55     -1.23753    0.00000
   56     -0.98632    0.00000
   57     -0.78659    0.00000
   58     -0.29297    0.00000
   59      0.30338    0.00000
   60      0.64001    0.00000
   61      2.08135    0.00000
   62      2.21277    0.00000
   63      3.11577    0.00000
   64      3.27714    0.00000
   65      3.62702    0.00000
   66      4.22313    0.00000
   67      4.56131    0.00000
   68      4.90008    0.00000
   69      4.99445    0.00000
   70      5.43802    0.00000
   71      5.63234    0.00000
   72      6.37613    0.00000
   73      6.51022    0.00000
   74      6.89842    0.00000
   75      6.98704    0.00000
   76      7.31528    0.00000
   77      7.69032    0.00000
   78      7.93547    0.00000
   79      8.30068    0.00000
   80      8.36499    0.00000
   81      8.57452    0.00000
   82      8.75654    0.00000
   83      8.84424    0.00000
   84      8.95134    0.00000
   85      9.01299    0.00000
   86      9.21551    0.00000
   87      9.36777    0.00000
   88      9.48664    0.00000
   89      9.65996    0.00000
   90      9.76495    0.00000
   91      9.86467    0.00000
   92      9.94215    0.00000
   93     10.23475    0.00000
   94     10.30982    0.00000
   95     10.39859    0.00000
   96     10.49946    0.00000
   97     10.60494    0.00000


Forces in eV/Ang:
  0 C    -0.40156    0.38450   -0.30466
  1 C     0.42182    0.27405   -0.03746
  2 C    -0.30576    0.09644    0.14971
  3 C    -0.53352    0.44404    0.78494
  4 C     0.32461    0.39566   -0.24455
  5 C    -0.02115    0.03630   -0.11014
  6 C    -0.77514    0.16381    1.45606
  7 C     0.03624   -0.15441   -0.05389
  8 C    -0.52265    0.19155   -0.09114
  9 C     0.39871    0.33651    0.00510
 10 C    -0.27443   -0.04257   -0.00941
 11 C     0.14790   -0.12977    0.04054
 12 C     0.19090   -0.03825   -0.10788
 13 C     0.20688    0.21665    0.43780
 14 C     0.32593   -0.24680    0.12583
 15 C     0.21818   -0.15301   -0.06753
 16 C    -0.05350   -0.34731   -0.04216
 17 C     0.20569   -0.29328   -0.06051
 18 C     0.15485   -0.38288   -0.75884
 19 C    -0.02255   -0.10545   -0.02992
 20 C     0.00847   -0.22097    0.09687
 21 C     0.36796   -0.22585   -1.11466
 22 C     0.11271   -0.13773   -0.03512
 23 C    -0.05849   -0.12291   -0.03124

System changes: positions 

Initializing position-dependent things.

Density initialized from wave functions
           .--------------------------------------.  
          /|                                      |  
         / |                                      |  
        /  |                                      |  
       /   |                                      |  
      /    |                                      |  
     /     |                                      |  
    /      |                                      |  
   /       |                                      |  
  /        |           C  CC  C                   |  
 *         |  C C   C          C                  |  
 |         | C       C  CC  C    C                |  
 |         .---C---C-C--------C-------------------.  
 |        /    C    C         C                  /   
 |       /       C     C  C                     /    
 |      /                                      /     
 |     /                                      /      
 |    /                                      /       
 |   /                                      /        
 |  /                                      /         
 | /                                      /          
 |/                                      /           
 *--------------------------------------*            

Positions:
   0 C      5.475277    8.712541    5.799530
   1 C      5.636715    3.333487    5.303722
   2 C      3.515188    7.533254    5.698941
   3 C      7.602885    9.869161    5.859167
   4 C      6.351201    9.812438    5.922245
   5 C      5.842874    6.073814    5.471465
   6 C      7.685341    7.554988    5.592566
   7 C      4.466120    5.484981    5.460804
   8 C      6.265240    7.491613    5.572178
   9 C      6.983790    3.804977    5.304784
  10 C      4.064336    8.702954    5.847180
  11 C      4.624737    4.084100    5.357704
  12 C      3.275913    6.252935    5.550953
  13 C      7.032557    5.264189    5.430118
  14 C     10.751132    5.215208    5.655608
  15 C      9.832350    8.582945    6.212007
  16 C      8.229037    3.165700    5.166094
  17 C      9.587249    6.150489    5.754647
  18 C      8.211594    6.193407    5.593774
  19 C      9.483394    3.313482    5.317526
  20 C     10.386982    7.386834    6.012180
  21 C      8.466747    8.749019    5.912512
  22 C     11.460685    6.409315    5.934732
  23 C     10.692550    3.902634    5.297341

Unit cell:
           periodic     x           y           z      points  spacing
  1. axis:    yes   16.000000    0.000000    0.000000    80     0.2000
  2. axis:    yes    0.000000   16.000000    0.000000    80     0.2000
  3. axis:    yes    0.000000    0.000000   10.000000    48     0.2083

Effective grid spacing dv^(1/3) = 0.2027

                     log10-error:    total        iterations:
           time      wfs    density  energy       fermi  poisson
iter:   1  10:43:59          +inf  -183.808371    3      5      
iter:   2  10:44:00         -2.26  -183.804497    3      2      
iter:   3  10:44:01         -2.54  -183.801274    2      1      
iter:   4  10:44:01         -2.64  -183.800239    2      1      
iter:   5  10:44:02         -2.71  -183.800746    3      2      
iter:   6  10:44:02         -2.90  -183.798268    2      2      
iter:   7  10:44:03         -2.61  -183.799868    2      1      
iter:   8  10:44:04         -2.99  -183.799645    2      1      
iter:   9  10:44:04         -3.29  -183.799087    2      1      
iter:  10  10:44:05         -3.46  -183.799328    2      1      
iter:  11  10:44:05         -3.69  -183.798950    2      1      
iter:  12  10:44:06         -3.60  -183.799318    1      1      
iter:  13  10:44:07         -4.02  -183.799518    2      1      

Converged after 13 iterations.

Dipole moment: (0.366492, -0.092039, 0.019377) |e|*Ang

Energy contributions relative to reference atoms: (reference = -24663.074771)

Kinetic:       +120.262646
Potential:     -126.714550
External:        +0.000000
XC:            -180.216795
Entropy (-ST):   -0.277907
Local:           +3.008135
--------------------------
Free energy:   -183.938471
Extrapolated:  -183.799518

Fermi level: -4.55814

 Band  Eigenvalues  Occupancy
    0    -23.47782    2.00000
    1    -22.53160    2.00000
    2    -21.61227    2.00000
    3    -20.94156    2.00000
    4    -20.45878    2.00000
    5    -20.27028    2.00000
    6    -19.64861    2.00000
    7    -19.38376    2.00000
    8    -18.31164    2.00000
    9    -18.26132    2.00000
   10    -17.64976    2.00000
   11    -17.36233    2.00000
   12    -16.46940    2.00000
   13    -16.11006    2.00000
   14    -15.14307    2.00000
   15    -14.64909    2.00000
   16    -14.45358    2.00000
   17    -13.74297    2.00000
   18    -13.39690    2.00000
   19    -12.58207    2.00000
   20    -12.35017    2.00000
   21    -12.22880    2.00000
   22    -11.81379    2.00000
   23    -11.31724    2.00000
   24    -10.99458    2.00000
   25    -10.81863    2.00000
   26    -10.65963    2.00000
   27    -10.57812    2.00000
   28    -10.33854    2.00000
   29     -9.98070    2.00000
   30     -9.57265    2.00000
   31     -9.43337    2.00000
   32     -9.15230    2.00000
   33     -8.67011    2.00000
   34     -8.43392    2.00000
   35     -8.00664    2.00000
   36     -7.54947    2.00000
   37     -7.12655    2.00000
   38     -7.10781    2.00000
   39     -7.07240    2.00000
   40     -6.37832    2.00000
   41     -6.29690    2.00000
   42     -6.27504    2.00000
   43     -5.87258    2.00000
   44     -5.64436    1.99996
   45     -5.14222    1.99420
   46     -4.78844    1.81825
   47     -4.71940    1.66755
   48     -4.44878    0.50191
   49     -4.08870    0.01813
   50     -3.07326    0.00000
   51     -2.88560    0.00000
   52     -2.82200    0.00000
   53     -2.77181    0.00000
   54     -2.48307    0.00000
   55     -1.26785    0.00000
   56     -1.01184    0.00000
   57     -0.75392    0.00000
   58     -0.28536    0.00000
   59      0.33989    0.00000
   60      0.69300    0.00000
   61      2.09818    0.00000
   62      2.22353    0.00000
   63      3.10072    0.00000
   64      3.28917    0.00000
   65      3.65119    0.00000
   66      4.28783    0.00000
   67      4.62096    0.00000
   68      4.90759    0.00000
   69      5.03543    0.00000
   70      5.45286    0.00000
   71      5.63697    0.00000
   72      6.39260    0.00000
   73      6.53564    0.00000
   74      6.91197    0.00000
   75      7.00202    0.00000
   76      7.28560    0.00000
   77      7.69477    0.00000
   78      7.95251    0.00000
   79      8.23585    0.00000
   80      8.36695    0.00000
   81      8.56558    0.00000
   82      8.73954    0.00000
   83      8.83540    0.00000
   84      8.96505    0.00000
   85      9.01954    0.00000
   86      9.20757    0.00000
   87      9.37515    0.00000
   88      9.48142    0.00000
   89      9.67649    0.00000
   90      9.75426    0.00000
   91      9.86828    0.00000
   92      9.97348    0.00000
   93     10.23118    0.00000
   94     10.31156    0.00000
   95     10.40386    0.00000
   96     10.47473    0.00000
   97     10.61970    0.00000


Forces in eV/Ang:
  0 C    -0.27108    0.41693   -0.24775
  1 C     0.37778    0.27356   -0.03418
  2 C    -0.29953   -0.04155    0.10151
  3 C     0.31616    0.00952    0.61211
  4 C    -0.26608    0.24597   -0.20946
  5 C    -0.08991    0.06440   -0.04466
  6 C    -0.12128   -0.35254    0.77180
  7 C     0.11176   -0.10699   -0.07566
  8 C    -0.38394    0.15724    0.15313
  9 C     0.24898    0.17420    0.04356
 10 C    -0.30342    0.07956   -0.01711
 11 C     0.15326   -0.15971    0.04216
 12 C     0.14674    0.01125   -0.06750
 13 C     0.07555    0.05243    0.15428
 14 C     0.25623   -0.21781    0.12866
 15 C     0.00920   -0.10988   -0.20985
 16 C     0.04686   -0.26054   -0.05262
 17 C     0.01428   -0.19431   -0.12652
 18 C     0.07861    0.24599   -0.30027
 19 C    -0.01097   -0.12234   -0.02580
 20 C     0.04382   -0.27294    0.08921
 21 C    -0.01046    0.32355   -0.60609
 22 C     0.10422   -0.13148   -0.04204
 23 C    -0.03530   -0.20155   -0.04452

System changes: positions 

Initializing position-dependent things.

Density initialized from wave functions
           .--------------------------------------.  
          /|                                      |  
         / |                                      |  
        /  |                                      |  
       /   |                                      |  
      /    |                                      |  
     /     |                                      |  
    /      |                                      |  
   /       |                                      |  
  /        |           C  CC  C                   |  
 *         |  C C   C          C                  |  
 |         | C       C  CC  C    C                |  
 |         .---C---C-C--------C-------------------.  
 |        /    C    C        C                   /   
 |       /       C     C  C                     /    
 |      /                                      /     
 |     /                                      /      
 |    /                                      /       
 |   /                                      /        
 |  /                                      /         
 | /                                      /          
 |/                                      /           
 *--------------------------------------*            

Positions:
   0 C      5.465397    8.726184    5.790679
   1 C      5.649867    3.342392    5.302569
   2 C      3.504832    7.533291    5.703022
   3 C      7.604234    9.877920    5.881958
   4 C      6.345137    9.822082    5.914531
   5 C      5.841472    6.075003    5.468788
   6 C      7.669667    7.556775    5.629324
   7 C      4.468155    5.480550    5.458695
   8 C      6.249703    7.497925    5.573146
   9 C      6.994482    3.813684    5.305451
  10 C      4.055129    8.704001    5.846673
  11 C      4.629660    4.079473    5.359095
  12 C      3.281704    6.253053    5.548045
  13 C      7.037074    5.268849    5.440033
  14 C     10.760628    5.207519    5.659733
  15 C      9.835491    8.579303    6.207216
  16 C      8.229725    3.155535    5.164599
  17 C      9.590294    6.142730    5.751684
  18 C      8.217286    6.187711    5.576710
  19 C      9.482428    3.309614    5.316502
  20 C     10.388374    7.377469    6.015186
  21 C      8.473739    8.748197    5.883989
  22 C     11.464271    6.405012    5.933533
  23 C     10.691063    3.897129    5.296163

Unit cell:
           periodic     x           y           z      points  spacing
  1. axis:    yes   16.000000    0.000000    0.000000    80     0.2000
  2. axis:    yes    0.000000   16.000000    0.000000    80     0.2000
  3. axis:    yes    0.000000    0.000000   10.000000    48     0.2083

Effective grid spacing dv^(1/3) = 0.2027

                     log10-error:    total        iterations:
           time      wfs    density  energy       fermi  poisson
iter:   1  10:44:09          +inf  -183.897077    3      5      
iter:   2  10:44:10         -2.20  -183.889675    3      2      
iter:   3  10:44:10         -2.48  -183.885455    3      1      
iter:   4  10:44:11         -2.59  -183.883715    3      1      
iter:   5  10:44:11         -2.66  -183.882886    3      2      
iter:   6  10:44:12         -2.84  -183.880270    2      2      
iter:   7  10:44:13         -2.50  -183.883600    2      2      
iter:   8  10:44:13         -2.90  -183.881927    2      1      
iter:   9  10:44:14         -3.35  -183.880968    2      1      
iter:  10  10:44:14         -3.46  -183.881153    2      1      
iter:  11  10:44:15         -3.65  -183.880783    2      1      
iter:  12  10:44:16         -3.74  -183.880829    2      1      
iter:  13  10:44:16         -3.92  -183.881167    2      1      
iter:  14  10:44:17         -3.70  -183.880949    2      1      
iter:  15  10:44:17         -4.30  -183.880933    2      1      

Converged after 15 iterations.

Dipole moment: (0.351445, -0.100491, 0.014958) |e|*Ang

Energy contributions relative to reference atoms: (reference = -24663.074771)

Kinetic:       +118.293464
Potential:     -125.196275
External:        +0.000000
XC:            -179.841771
Entropy (-ST):   -0.281026
Local:           +3.004162
--------------------------
Free energy:   -184.021446
Extrapolated:  -183.880933

Fermi level: -4.55375

 Band  Eigenvalues  Occupancy
    0    -23.45609    2.00000
    1    -22.50309    2.00000
    2    -21.58972    2.00000
    3    -20.93099    2.00000
    4    -20.45480    2.00000
    5    -20.22912    2.00000
    6    -19.63949    2.00000
    7    -19.38017    2.00000
    8    -18.28926    2.00000
    9    -18.24539    2.00000
   10    -17.65018    2.00000
   11    -17.35028    2.00000
   12    -16.46248    2.00000
   13    -16.09956    2.00000
   14    -15.15277    2.00000
   15    -14.63414    2.00000
   16    -14.45489    2.00000
   17    -13.73805    2.00000
   18    -13.39487    2.00000
   19    -12.56928    2.00000
   20    -12.35768    2.00000
   21    -12.22945    2.00000
   22    -11.80240    2.00000
   23    -11.31647    2.00000
   24    -11.02096    2.00000
   25    -10.78325    2.00000
   26    -10.64795    2.00000
   27    -10.61519    2.00000
   28    -10.31384    2.00000
   29     -9.97647    2.00000
   30     -9.58895    2.00000
   31     -9.42219    2.00000
   32     -9.10474    2.00000
   33     -8.67139    2.00000
   34     -8.43511    2.00000
   35     -7.97671    2.00000
   36     -7.55444    2.00000
   37     -7.14771    2.00000
   38     -7.11144    2.00000
   39     -7.07672    2.00000
   40     -6.36977    2.00000
   41     -6.28303    2.00000
   42     -6.25703    2.00000
   43     -5.85050    2.00000
   44     -5.63705    1.99996
   45     -5.15891    1.99530
   46     -4.78936    1.82684
   47     -4.70679    1.64414
   48     -4.44756    0.51392
   49     -4.09344    0.01984
   50     -3.06689    0.00000
   51     -2.87319    0.00000
   52     -2.80817    0.00000
   53     -2.78945    0.00000
   54     -2.52420    0.00000
   55     -1.30296    0.00000
   56     -1.03397    0.00000
   57     -0.73687    0.00000
   58     -0.28773    0.00000
   59      0.35636    0.00000
   60      0.69904    0.00000
   61      2.10086    0.00000
   62      2.22542    0.00000
   63      3.06289    0.00000
   64      3.26789    0.00000
   65      3.67119    0.00000
   66      4.30513    0.00000
   67      4.66680    0.00000
   68      4.87285    0.00000
   69      5.08678    0.00000
   70      5.42507    0.00000
   71      5.65013    0.00000
   72      6.37260    0.00000
   73      6.58330    0.00000
   74      6.90551    0.00000
   75      7.02025    0.00000
   76      7.26280    0.00000
   77      7.70211    0.00000
   78      7.96680    0.00000
   79      8.21526    0.00000
   80      8.36926    0.00000
   81      8.56286    0.00000
   82      8.71949    0.00000
   83      8.80797    0.00000
   84      8.97840    0.00000
   85      9.02599    0.00000
   86      9.19675    0.00000
   87      9.36436    0.00000
   88      9.47580    0.00000
   89      9.69389    0.00000
   90      9.74271    0.00000
   91      9.88304    0.00000
   92      9.99841    0.00000
   93     10.20949    0.00000
   94     10.30860    0.00000
   95     10.39792    0.00000
   96     10.45907    0.00000
   97     10.62350    0.00000


Forces in eV/Ang:
  0 C    -0.31442    0.30655   -0.21821
  1 C     0.30238    0.19025   -0.03345
  2 C    -0.19321    0.03271    0.03916
  3 C    -0.02135   -0.27054    0.37825
  4 C     0.26411    0.25404   -0.16972
  5 C    -0.10436    0.07265    0.03204
  6 C     0.28789   -0.59406    0.11800
  7 C     0.12967   -0.07764   -0.08662
  8 C    -0.05355    0.07935    0.33985
  9 C     0.18720    0.01849    0.05967
 10 C    -0.34128    0.12665   -0.04823
 11 C     0.08854   -0.12336    0.03754
 12 C     0.06360   -0.07124   -0.03561
 13 C     0.03033    0.02653   -0.06849
 14 C     0.10237   -0.22343    0.09236
 15 C     0.01693   -0.20771   -0.32006
 16 C    -0.01008   -0.16176   -0.03450
 17 C     0.03112   -0.12342   -0.14522
 18 C    -0.21432    0.70243    0.12024
 19 C     0.07962   -0.12706   -0.01972
 20 C    -0.01448   -0.12426    0.06811
 21 C    -0.34351    0.55310   -0.08922
 22 C     0.11693   -0.12845   -0.03755
 23 C    -0.00741   -0.15699   -0.01583

System changes: positions 

Initializing position-dependent things.

Density initialized from wave functions
           .--------------------------------------.  
          /|                                      |  
         / |                                      |  
        /  |                                      |  
       /   |                                      |  
      /    |                                      |  
     /     |                                      |  
    /      |                                      |  
   /       |                                      |  
  /        |           C  CC  C                   |  
 *         |  C C   C   C      C                  |  
 |         | C       C   C  C    C                |  
 |         .---C---C-C--------C-------------------.  
 |        /    C    C        C                   /   
 |       /       C     C  C                     /    
 |      /                                      /     
 |     /                                      /      
 |    /                                      /       
 |   /                                      /        
 |  /                                      /         
 | /                                      /          
 |/                                      /           
 *--------------------------------------*            

Positions:
   0 C      5.455823    8.737763    5.782860
   1 C      5.660994    3.349230    5.301464
   2 C      3.496829    7.534113    5.705571
   3 C      7.602475    9.880812    5.898331
   4 C      6.345034    9.830635    5.907885
   5 C      5.839826    6.076243    5.467936
   6 C      7.662879    7.556515    5.648498
   7 C      4.470488    5.477001    5.456337
   8 C      6.242018    7.502339    5.578893
   9 C      7.003713    3.818387    5.306604
  10 C      4.045275    8.706749    5.845515
  11 C      4.633014    4.075788    5.360391
  12 C      3.285607    6.251550    5.545975
  13 C      7.039662    5.272657    5.444124
  14 C     10.766000    5.199880    5.662973
  15 C      9.837042    8.574039    6.199484
  16 C      8.229694    3.147914    5.163454
  17 C      9.593894    6.136999    5.748247
  18 C      8.217765    6.189297    5.571160
  19 C      9.482975    3.305579    5.315618
  20 C     10.388388    7.371008    6.017713
  21 C      8.475276    8.751982    5.869210
  22 C     11.468290    6.400956    5.932452
  23 C     10.690593    3.892465    5.295573

Unit cell:
           periodic     x           y           z      points  spacing
  1. axis:    yes   16.000000    0.000000    0.000000    80     0.2000
  2. axis:    yes    0.000000   16.000000    0.000000    80     0.2000
  3. axis:    yes    0.000000    0.000000   10.000000    48     0.2083

Effective grid spacing dv^(1/3) = 0.2027

                     log10-error:    total        iterations:
           time      wfs    density  energy       fermi  poisson
iter:   1  10:44:20          +inf  -183.921057    3      5      
iter:   2  10:44:20         -2.54  -183.916252    2      1      
iter:   3  10:44:21         -2.69  -183.915563    2      1      
iter:   4  10:44:22         -2.80  -183.916062    2      1      
iter:   5  10:44:22         -2.92  -183.916165    2      1      
iter:   6  10:44:23         -3.10  -183.916744    2      2      
iter:   7  10:44:23         -3.10  -183.915829    2      1      
iter:   8  10:44:24         -3.39  -183.915503    2      1      
iter:   9  10:44:25         -3.59  -183.915550    2      1      
iter:  10  10:44:25         -3.74  -183.914937    2      1      
iter:  11  10:44:26         -3.82  -183.915161    2      1      
iter:  12  10:44:26         -4.02  -183.915102    2      1      

Converged after 12 iterations.

Dipole moment: (0.344270, -0.098186, 0.014421) |e|*Ang

Energy contributions relative to reference atoms: (reference = -24663.074771)

Kinetic:       +116.989033
Potential:     -124.188895
External:        +0.000000
XC:            -179.572857
Entropy (-ST):   -0.282560
Local:           +2.998898
--------------------------
Free energy:   -184.056382
Extrapolated:  -183.915102

Fermi level: -4.54935

 Band  Eigenvalues  Occupancy
    0    -23.43581    2.00000
    1    -22.48271    2.00000
    2    -21.57625    2.00000
    3    -20.91593    2.00000
    4    -20.45340    2.00000
    5    -20.21388    2.00000
    6    -19.62468    2.00000
    7    -19.38507    2.00000
    8    -18.27529    2.00000
    9    -18.23018    2.00000
   10    -17.64455    2.00000
   11    -17.34098    2.00000
   12    -16.45707    2.00000
   13    -16.09668    2.00000
   14    -15.14972    2.00000
   15    -14.61743    2.00000
   16    -14.46767    2.00000
   17    -13.72774    2.00000
   18    -13.39198    2.00000
   19    -12.55707    2.00000
   20    -12.36106    2.00000
   21    -12.23366    2.00000
   22    -11.79410    2.00000
   23    -11.31667    2.00000
   24    -11.03829    2.00000
   25    -10.76110    2.00000
   26    -10.64314    2.00000
   27    -10.61917    2.00000
   28    -10.29902    2.00000
   29     -9.96775    2.00000
   30     -9.58468    2.00000
   31     -9.41320    2.00000
   32     -9.10458    2.00000
   33     -8.67042    2.00000
   34     -8.43459    2.00000
   35     -7.96548    2.00000
   36     -7.55190    2.00000
   37     -7.15740    2.00000
   38     -7.10785    2.00000
   39     -7.07971    2.00000
   40     -6.36483    2.00000
   41     -6.27501    2.00000
   42     -6.26249    2.00000
   43     -5.84134    2.00000
   44     -5.63129    1.99996
   45     -5.16225    1.99565
   46     -4.78655    1.82934
   47     -4.69854    1.63275
   48     -4.44559    0.52324
   49     -4.08498    0.01906
   50     -3.06169    0.00000
   51     -2.87212    0.00000
   52     -2.80495    0.00000
   53     -2.76676    0.00000
   54     -2.54459    0.00000
   55     -1.33225    0.00000
   56     -1.05340    0.00000
   57     -0.72698    0.00000
   58     -0.30603    0.00000
   59      0.36705    0.00000
   60      0.71388    0.00000
   61      2.10031    0.00000
   62      2.22391    0.00000
   63      3.01509    0.00000
   64      3.28477    0.00000
   65      3.67815    0.00000
   66      4.30859    0.00000
   67      4.67083    0.00000
   68      4.84897    0.00000
   69      5.12041    0.00000
   70      5.38169    0.00000
   71      5.66524    0.00000
   72      6.33959    0.00000
   73      6.62960    0.00000
   74      6.87625    0.00000
   75      7.01244    0.00000
   76      7.24680    0.00000
   77      7.69006    0.00000
   78      7.97874    0.00000
   79      8.17568    0.00000
   80      8.35779    0.00000
   81      8.56366    0.00000
   82      8.69551    0.00000
   83      8.79006    0.00000
   84      8.98816    0.00000
   85      9.03025    0.00000
   86      9.19260    0.00000
   87      9.35682    0.00000
   88      9.47682    0.00000
   89      9.70336    0.00000
   90      9.72673    0.00000
   91      9.89743    0.00000
   92     10.00565    0.00000
   93     10.19330    0.00000
   94     10.30596    0.00000
   95     10.39547    0.00000
   96     10.46124    0.00000
   97     10.61949    0.00000


Forces in eV/Ang:
  0 C    -0.16724    0.18643   -0.11469
  1 C     0.13660    0.18842   -0.02161
  2 C    -0.12910   -0.05783   -0.00903
  3 C     0.18238   -0.32364    0.24670
  4 C    -0.03487    0.14109   -0.17000
  5 C    -0.04178    0.07634    0.07262
  6 C     0.44028   -0.50347   -0.17624
  7 C     0.09231   -0.01942   -0.07698
  8 C     0.01599    0.08262    0.38325
  9 C     0.07297   -0.01482    0.07094
 10 C    -0.27966    0.14669   -0.06745
 11 C     0.11727   -0.15262    0.01848
 12 C     0.06800    0.01942    0.01040
 13 C     0.00773    0.01897   -0.14116
 14 C     0.02415   -0.03985    0.08710
 15 C    -0.12984   -0.12194   -0.33356
 16 C     0.11553   -0.14334   -0.03579
 17 C    -0.11449   -0.08192   -0.11863
 18 C    -0.13998    0.74130    0.29685
 19 C     0.04652   -0.13232   -0.02383
 20 C     0.04388   -0.13408    0.01955
 21 C    -0.38436    0.47182    0.19482
 22 C     0.08124   -0.15862   -0.04423
 23 C     0.02773   -0.23001   -0.01405

System changes: positions 

Initializing position-dependent things.

Density initialized from wave functions
           .--------------------------------------.  
          /|                                      |  
         / |                                      |  
        /  |                                      |  
       /   |                                      |  
      /    |                                      |  
     /     |                                      |  
    /      |                                      |  
   /       |                                      |  
  /        |           C  CC  C                   |  
 *         |  C C   C   C      C                  |  
 |         | C       C   C  C    C                |  
 |         .---C---C-C--------C-------------------.  
 |        /    C    C        C                   /   
 |       /       C     C  C                     /    
 |      /                                      /     
 |     /                                      /      
 |    /                                      /       
 |   /                                      /        
 |  /                                      /         
 | /                                      /          
 |/                                      /           
 *--------------------------------------*            

Positions:
   0 C      5.444278    8.751982    5.773541
   1 C      5.673488    3.359236    5.300043
   2 C      3.486927    7.533622    5.707745
   3 C      7.601454    9.880917    5.918045
   4 C      6.342734    9.841197    5.897756
   5 C      5.838443    6.078497    5.468514
   6 C      7.660996    7.555472    5.662629
   7 C      4.473596    5.473337    5.452687
   8 C      6.235361    7.508332    5.591568
   9 C      7.014504    3.822949    5.309025
  10 C      4.030611    8.712206    5.842921
  11 C      4.638494    4.069466    5.361923
  12 C      3.291030    6.250697    5.544280
  13 C      7.042106    5.277695    5.445792
  14 C     10.770716    5.192588    5.667668
  15 C      9.834824    8.567002    6.185419
  16 C      8.232566    3.137569    5.161683
  17 C      9.595730    6.129948    5.743093
  18 C      8.217973    6.197626    5.572528
  19 C      9.483850    3.299026    5.314216
  20 C     10.389245    7.361921    6.020309
  21 C      8.474058    8.759168    5.859906
  22 C     11.473951    6.393874    5.930601
  23 C     10.691157    3.883260    5.294828

Unit cell:
           periodic     x           y           z      points  spacing
  1. axis:    yes   16.000000    0.000000    0.000000    80     0.2000
  2. axis:    yes    0.000000   16.000000    0.000000    80     0.2000
  3. axis:    yes    0.000000    0.000000   10.000000    48     0.2083

Effective grid spacing dv^(1/3) = 0.2027

                     log10-error:    total        iterations:
           time      wfs    density  energy       fermi  poisson
iter:   1  10:44:29          +inf  -183.961240    3      5      
iter:   2  10:44:29         -2.42  -183.953789    2      1      
iter:   3  10:44:30         -2.57  -183.951774    2      1      
iter:   4  10:44:31         -2.69  -183.951665    2      1      
iter:   5  10:44:31         -2.85  -183.951437    2      1      
iter:   6  10:44:32         -2.99  -183.952816    2      2      
iter:   7  10:44:32         -2.98  -183.951602    2      1      
iter:   8  10:44:33         -3.27  -183.951134    2      1      
iter:   9  10:44:34         -3.45  -183.951582    2      1      
iter:  10  10:44:34         -3.58  -183.950792    2      1      
iter:  11  10:44:35         -3.77  -183.950817    2      1      
iter:  12  10:44:35         -3.93  -183.950737    2      1      
iter:  13  10:44:36         -4.05  -183.950614    2      1      

Converged after 13 iterations.

Dipole moment: (0.333790, -0.088809, 0.017403) |e|*Ang

Energy contributions relative to reference atoms: (reference = -24663.074771)

Kinetic:       +115.702329
Potential:     -123.212507
External:        +0.000000
XC:            -179.299468
Entropy (-ST):   -0.286644
Local:           +3.002354
--------------------------
Free energy:   -184.093936
Extrapolated:  -183.950614

Fermi level: -4.54259

 Band  Eigenvalues  Occupancy
    0    -23.41093    2.00000
    1    -22.46217    2.00000
    2    -21.56831    2.00000
    3    -20.90031    2.00000
    4    -20.44470    2.00000
    5    -20.21053    2.00000
    6    -19.61742    2.00000
    7    -19.37371    2.00000
    8    -18.25913    2.00000
    9    -18.22064    2.00000
   10    -17.64979    2.00000
   11    -17.32641    2.00000
   12    -16.45285    2.00000
   13    -16.09250    2.00000
   14    -15.14469    2.00000
   15    -14.60993    2.00000
   16    -14.46714    2.00000
   17    -13.72776    2.00000
   18    -13.39031    2.00000
   19    -12.54251    2.00000
   20    -12.36357    2.00000
   21    -12.24337    2.00000
   22    -11.79127    2.00000
   23    -11.30944    2.00000
   24    -11.04486    2.00000
   25    -10.74125    2.00000
   26    -10.64325    2.00000
   27    -10.61763    2.00000
   28    -10.30007    2.00000
   29     -9.95174    2.00000
   30     -9.57469    2.00000
   31     -9.40270    2.00000
   32     -9.12970    2.00000
   33     -8.67016    2.00000
   34     -8.43184    2.00000
   35     -7.96565    2.00000
   36     -7.54997    2.00000
   37     -7.16675    2.00000
   38     -7.10955    2.00000
   39     -7.07610    2.00000
   40     -6.36814    2.00000
   41     -6.27829    2.00000
   42     -6.26248    2.00000
   43     -5.83625    2.00000
   44     -5.62111    1.99996
   45     -5.16974    1.99623
   46     -4.77660    1.82429
   47     -4.68814    1.62169
   48     -4.44279    0.53868
   49     -4.07877    0.01917
   50     -3.05790    0.00000
   51     -2.87185    0.00000
   52     -2.78706    0.00000
   53     -2.74708    0.00000
   54     -2.57224    0.00000
   55     -1.36015    0.00000
   56     -1.06225    0.00000
   57     -0.72886    0.00000
   58     -0.32215    0.00000
   59      0.37586    0.00000
   60      0.72953    0.00000
   61      2.09764    0.00000
   62      2.22872    0.00000
   63      2.95593    0.00000
   64      3.30567    0.00000
   65      3.68208    0.00000
   66      4.30796    0.00000
   67      4.65504    0.00000
   68      4.83980    0.00000
   69      5.15277    0.00000
   70      5.31676    0.00000
   71      5.68301    0.00000
   72      6.28592    0.00000
   73      6.66879    0.00000
   74      6.84792    0.00000
   75      6.98300    0.00000
   76      7.23688    0.00000
   77      7.68138    0.00000
   78      8.00885    0.00000
   79      8.14222    0.00000
   80      8.34491    0.00000
   81      8.55512    0.00000
   82      8.65614    0.00000
   83      8.77360    0.00000
   84      8.99879    0.00000
   85      9.03335    0.00000
   86      9.18755    0.00000
   87      9.34582    0.00000
   88      9.48049    0.00000
   89      9.70780    0.00000
   90      9.70968    0.00000
   91      9.90827    0.00000
   92     10.00405    0.00000
   93     10.16726    0.00000
   94     10.30191    0.00000
   95     10.39347    0.00000
   96     10.46703    0.00000
   97     10.61742    0.00000


Forces in eV/Ang:
  0 C    -0.07716    0.02817   -0.04817
  1 C     0.18194   -0.01169   -0.03076
  2 C    -0.00683    0.05232   -0.01378
  3 C     0.03871   -0.21142    0.09299
  4 C    -0.09734    0.06252   -0.11870
  5 C     0.01320    0.08834    0.10737
  6 C     0.25440   -0.16240   -0.29638
  7 C     0.06582   -0.02293   -0.05798
  8 C     0.11132    0.05370    0.29929
  9 C     0.08986   -0.02165    0.03467
 10 C    -0.16874    0.11010   -0.09884
 11 C    -0.12487    0.10619   -0.00125
 12 C     0.04189   -0.03008    0.03287
 13 C     0.05637    0.02803   -0.15074
 14 C    -0.13446   -0.08367    0.00271
 15 C    -0.04399   -0.17746   -0.30029
 16 C    -0.04968   -0.09153   -0.05226
 17 C    -0.12399   -0.02969   -0.05452
 18 C    -0.10785    0.47682    0.31314
 19 C     0.19253   -0.09535   -0.00180
 20 C     0.01846    0.00985   -0.04510
 21 C    -0.29829    0.19271    0.36794
 22 C     0.08568   -0.11365   -0.01701
 23 C     0.10119   -0.13470    0.02298

System changes: positions 

Initializing position-dependent things.

Density initialized from wave functions
           .--------------------------------------.  
          /|                                      |  
         / |                                      |  
        /  |                                      |  
       /   |                                      |  
      /    |                                      |  
     /     |                                      |  
    /      |                                      |  
   /       |                                      |  
  /        |           C  CC  C                   |  
 *         |  C C   C   C      C                  |  
 |         | C       C   C  C    C                |  
 |         .---C---C-C--------C-------------------.  
 |        /    C     C       C                   /   
 |       /       C     C  C                     /    
 |      /                                      /     
 |     /                                      /      
 |    /                                      /       
 |   /                                      /        
 |  /                                      /         
 | /                                      /          
 |/                                      /           
 *--------------------------------------*            

Positions:
   0 C      5.432974    8.764377    5.764616
   1 C      5.688493    3.366463    5.298118
   2 C      3.478787    7.535076    5.709367
   3 C      7.599219    9.878150    5.935936
[...]

Fermi level: -4.56873

 Band  Eigenvalues  Occupancy
    0    -23.40299    2.00000
    1    -22.49732    2.00000
    2    -21.59031    2.00000
    3    -20.92394    2.00000
    4    -20.42866    2.00000
    5    -20.23794    2.00000
    6    -19.62169    2.00000
    7    -19.39013    2.00000
    8    -18.27812    2.00000
    9    -18.17928    2.00000
   10    -17.68084    2.00000
   11    -17.34810    2.00000
   12    -16.47345    2.00000
   13    -16.11287    2.00000
   14    -15.15426    2.00000
   15    -14.64256    2.00000
   16    -14.43673    2.00000
   17    -13.78330    2.00000
   18    -13.40057    2.00000
   19    -12.56581    2.00000
   20    -12.37160    2.00000
   21    -12.25409    2.00000
   22    -11.79722    2.00000
   23    -11.32099    2.00000
   24    -11.04877    2.00000
   25    -10.74408    2.00000
   26    -10.68165    2.00000
   27    -10.62671    2.00000
   28    -10.33460    2.00000
   29     -9.95550    2.00000
   30     -9.55379    2.00000
   31     -9.42622    2.00000
   32     -9.20068    2.00000
   33     -8.69811    2.00000
   34     -8.42480    2.00000
   35     -7.99355    2.00000
   36     -7.47866    2.00000
   37     -7.18140    2.00000
   38     -7.12893    2.00000
   39     -7.08975    2.00000
   40     -6.37686    2.00000
   41     -6.30311    2.00000
   42     -6.28759    2.00000
   43     -5.82848    1.99999
   44     -5.59789    1.99993
   45     -5.17039    1.99514
   46     -4.75001    1.71938
   47     -4.71076    1.61077
   48     -4.49975    0.66815
   49     -3.99820    0.00663
   50     -3.05868    0.00000
   51     -2.90774    0.00000
   52     -2.78067    0.00000
   53     -2.74456    0.00000
   54     -2.59466    0.00000
   55     -1.39915    0.00000
   56     -1.05306    0.00000
   57     -0.74474    0.00000
   58     -0.30300    0.00000
   59      0.37805    0.00000
   60      0.79084    0.00000
   61      2.11870    0.00000
   62      2.27431    0.00000
   63      2.89910    0.00000
   64      3.30752    0.00000
   65      3.62273    0.00000
   66      4.37177    0.00000
   67      4.64185    0.00000
   68      4.90427    0.00000
   69      5.16624    0.00000
   70      5.33022    0.00000
   71      5.76144    0.00000
   72      6.18012    0.00000
   73      6.63725    0.00000
   74      6.84468    0.00000
   75      6.96006    0.00000
   76      7.19719    0.00000
   77      7.59560    0.00000
   78      7.91582    0.00000
   79      8.16941    0.00000
   80      8.38236    0.00000
   81      8.51990    0.00000
   82      8.60466    0.00000
   83      8.75888    0.00000
   84      9.00864    0.00000
   85      9.02442    0.00000
   86      9.18946    0.00000
   87      9.35292    0.00000
   88      9.46926    0.00000
   89      9.67202    0.00000
   90      9.69311    0.00000
   91      9.92380    0.00000
   92     10.02976    0.00000
   93     10.11828    0.00000
   94     10.28524    0.00000
   95     10.36946    0.00000
   96     10.40435    0.00000
   97     10.62794    0.00000


Forces in eV/Ang:
  0 C    -0.00461    0.01323    0.04137
  1 C    -0.07040    0.02552   -0.03479
  2 C    -0.00807   -0.06760   -0.08572
  3 C    -0.06631    0.00597    0.04024
  4 C     0.04098    0.01043   -0.02292
  5 C    -0.00854   -0.00634    0.04464
  6 C    -0.06634    0.08296    0.01798
  7 C    -0.01451   -0.00346   -0.04966
  8 C    -0.03246   -0.00282    0.06960
  9 C     0.02317   -0.00980    0.02357
 10 C     0.06684   -0.03912   -0.04302
 11 C     0.02035   -0.05081    0.02332
 12 C     0.03638    0.05804    0.00680
 13 C    -0.02187    0.00011    0.01375
 14 C    -0.01188    0.00749   -0.00230
 15 C     0.04646   -0.00815   -0.03357
 16 C    -0.00433   -0.04605    0.00056
 17 C     0.02064    0.00186   -0.06832
 18 C     0.00617   -0.09126    0.00112
 19 C    -0.02314    0.00940   -0.00798
 20 C    -0.00248    0.03831   -0.02119
 21 C     0.08206   -0.05469   -0.02661
 22 C     0.05300    0.03620    0.01410
 23 C     0.05365    0.01244    0.03107

System changes: positions 

Initializing position-dependent things.

Density initialized from wave functions
           .--------------------------------------.  
          /|                                      |  
         / |                                      |  
        /  |                                      |  
       /   |                                      |  
      /    |                                      |  
     /     |                                      |  
    /      |                                      |  
   /       |                                      |  
  /        |           C  CC  C                   |  
 *         |  C C   C   C      C                  |  
 |         | C       C   C  C    C                |  
 |         .---C---C--C-------C-------------------.  
 |        /    C     C        C                  /   
 |       /       C     C  C                     /    
 |      /                                      /     
 |     /                                      /      
 |    /                                      /       
 |   /                                      /        
 |  /                                      /         
 | /                                      /          
 |/                                      /           
 *--------------------------------------*            

Positions:
   0 C      5.413719    8.769653    5.761347
   1 C      5.714682    3.376683    5.277079
   2 C      3.476376    7.549717    5.683839
   3 C      7.575168    9.887639    5.971251
   4 C      6.315673    9.853994    5.904506
   5 C      5.849458    6.091460    5.507337
   6 C      7.649914    7.572108    5.725576
   7 C      4.495421    5.476115    5.465350
   8 C      6.225145    7.524155    5.651671
   9 C      7.054560    3.844743    5.297152
  10 C      3.989693    8.752599    5.756211
  11 C      4.667593    4.075322    5.344100
  12 C      3.319572    6.262644    5.539546
  13 C      7.057914    5.299661    5.458106
  14 C     10.742904    5.153315    5.648327
  15 C      9.833655    8.547241    6.074986
  16 C      8.265535    3.141707    5.153820
  17 C      9.585385    6.104302    5.714063
  18 C      8.209393    6.228612    5.631624
  19 C      9.522526    3.254161    5.309343
  20 C     10.396196    7.352456    5.933475
  21 C      8.448266    8.774461    5.924759
  22 C     11.455600    6.345920    5.922951
  23 C     10.747086    3.812098    5.334085

Unit cell:
           periodic     x           y           z      points  spacing
  1. axis:    yes   16.000000    0.000000    0.000000    80     0.2000
  2. axis:    yes    0.000000   16.000000    0.000000    80     0.2000
  3. axis:    yes    0.000000    0.000000   10.000000    48     0.2083

Effective grid spacing dv^(1/3) = 0.2027

                     log10-error:    total        iterations:
           time      wfs    density  energy       fermi  poisson
iter:   1  10:46:17          +inf  -184.032380    3      5      
iter:   2  10:46:18         -2.23  -184.027777    2      2      
iter:   3  10:46:18         -2.66  -184.024040    2      1      
iter:   4  10:46:19         -2.82  -184.022146    3      1      
iter:   5  10:46:20         -2.90  -184.023256    2      1      
iter:   6  10:46:20         -2.97  -184.022289    3      2      
iter:   7  10:46:21         -3.34  -184.022970    2      1      
iter:   8  10:46:21         -3.37  -184.022288    2      1      
iter:   9  10:46:22         -3.67  -184.022261    2      1      
iter:  10  10:46:23         -3.85  -184.022411    2      1      
iter:  11  10:46:23         -3.92  -184.022335    2      1      
iter:  12  10:46:24         -4.04  -184.022315    2      1      

Converged after 12 iterations.

Dipole moment: (0.273711, -0.017220, 0.046836) |e|*Ang

Energy contributions relative to reference atoms: (reference = -24663.074771)

Kinetic:       +115.265070
Potential:     -122.885862
External:        +0.000000
XC:            -179.248395
Entropy (-ST):   -0.321589
Local:           +3.007667
--------------------------
Free energy:   -184.183110
Extrapolated:  -184.022315

Fermi level: -4.57564

 Band  Eigenvalues  Occupancy
    0    -23.41551    2.00000
    1    -22.50525    2.00000
    2    -21.59060    2.00000
    3    -20.93047    2.00000
    4    -20.42244    2.00000
    5    -20.23861    2.00000
    6    -19.62394    2.00000
    7    -19.39064    2.00000
    8    -18.28483    2.00000
    9    -18.17420    2.00000
   10    -17.68361    2.00000
   11    -17.35291    2.00000
   12    -16.47502    2.00000
   13    -16.11690    2.00000
   14    -15.15688    2.00000
   15    -14.65075    2.00000
   16    -14.43041    2.00000
   17    -13.78625    2.00000
   18    -13.40204    2.00000
   19    -12.56290    2.00000
   20    -12.37312    2.00000
   21    -12.24073    2.00000
   22    -11.79805    2.00000
   23    -11.33298    2.00000
   24    -11.05684    2.00000
   25    -10.74577    2.00000
   26    -10.68352    2.00000
   27    -10.63175    2.00000
   28    -10.33008    2.00000
   29     -9.96126    2.00000
   30     -9.55318    2.00000
   31     -9.43122    2.00000
   32     -9.19873    2.00000
   33     -8.70537    2.00000
   34     -8.42122    2.00000
   35     -7.99336    2.00000
   36     -7.46477    2.00000
   37     -7.19196    2.00000
   38     -7.13058    2.00000
   39     -7.09397    2.00000
   40     -6.37692    2.00000
   41     -6.30661    2.00000
   42     -6.29049    2.00000
   43     -5.83159    1.99999
   44     -5.59367    1.99992
   45     -5.17381    1.99496
   46     -4.75029    1.70302
   47     -4.71283    1.59536
   48     -4.51406    0.70146
   49     -3.98216    0.00528
   50     -3.06011    0.00000
   51     -2.90578    0.00000
   52     -2.79881    0.00000
   53     -2.74215    0.00000
   54     -2.59816    0.00000
   55     -1.40614    0.00000
   56     -1.04752    0.00000
   57     -0.75242    0.00000
   58     -0.29576    0.00000
   59      0.37341    0.00000
   60      0.79051    0.00000
   61      2.11863    0.00000
   62      2.28096    0.00000
   63      2.91617    0.00000
   64      3.30798    0.00000
   65      3.61818    0.00000
   66      4.37487    0.00000
   67      4.64256    0.00000
   68      4.91214    0.00000
   69      5.16480    0.00000
   70      5.32781    0.00000
   71      5.77201    0.00000
   72      6.17430    0.00000
   73      6.62504    0.00000
   74      6.81308    0.00000
   75      6.96715    0.00000
   76      7.17012    0.00000
   77      7.54745    0.00000
   78      7.91539    0.00000
   79      8.17239    0.00000
   80      8.38519    0.00000
   81      8.51041    0.00000
   82      8.60314    0.00000
   83      8.76214    0.00000
   84      9.00304    0.00000
   85      9.01848    0.00000
   86      9.18733    0.00000
   87      9.34903    0.00000
   88      9.46392    0.00000
   89      9.67044    0.00000
   90      9.69339    0.00000
   91      9.91417    0.00000
   92     10.02979    0.00000
   93     10.10901    0.00000
   94     10.27889    0.00000
   95     10.34822    0.00000
   96     10.39967    0.00000
   97     10.62730    0.00000


Forces in eV/Ang:
  0 C    -0.01793    0.01176    0.08737
  1 C    -0.11537    0.12798   -0.01382
  2 C     0.02303    0.00865   -0.07748
  3 C    -0.03658   -0.01189    0.04881
  4 C     0.02530    0.04487   -0.06147
  5 C    -0.04185   -0.02975    0.02822
  6 C    -0.03664   -0.04793   -0.00044
  7 C    -0.00974   -0.00971   -0.04525
  8 C    -0.05856   -0.03721    0.03209
  9 C     0.03613   -0.04955    0.00835
 10 C     0.04219   -0.02236   -0.01236
 11 C     0.07530   -0.04458    0.01359
 12 C     0.00399   -0.06079   -0.01003
 13 C    -0.06018   -0.05995    0.04226
 14 C     0.00322    0.03499   -0.02794
 15 C     0.05846    0.04108   -0.00644
 16 C    -0.00892   -0.03016    0.02807
 17 C     0.04763    0.01128   -0.04848
 18 C    -0.03221   -0.02906   -0.06738
 19 C    -0.01828    0.05080   -0.02282
 20 C     0.09885   -0.02846    0.03645
 21 C     0.06910    0.03022   -0.04767
 22 C     0.03128    0.01300    0.01792
 23 C    -0.04107    0.05778    0.03250

System changes: positions 

Initializing position-dependent things.

Density initialized from wave functions
           .--------------------------------------.  
          /|                                      |  
         / |                                      |  
        /  |                                      |  
       /   |                                      |  
      /    |                                      |  
     /     |                                      |  
    /      |                                      |  
   /       |                                      |  
  /        |           C  CC  C                   |  
 *         |  C C   C   C      C                  |  
 |         | C       C   C  C    C                |  
 |         .---C---C--C-------C-------------------.  
 |        /    C     C        C                  /   
 |       /       C     C  C                     /    
 |      /                                      /     
 |     /                                      /      
 |    /                                      /       
 |   /                                      /        
 |  /                                      /         
 | /                                      /          
 |/                                      /           
 *--------------------------------------*            

Positions:
   0 C      5.414498    8.769420    5.763029
   1 C      5.712538    3.377699    5.279085
   2 C      3.476789    7.548349    5.685836
   3 C      7.575635    9.886595    5.969888
   4 C      6.316459    9.854823    5.900203
   5 C      5.848561    6.090903    5.504800
   6 C      7.650056    7.571601    5.719947
   7 C      4.494344    5.475717    5.462961
   8 C      6.224830    7.523591    5.648830
   9 C      7.053318    3.843133    5.298666
  10 C      3.991482    8.749954    5.762968
  11 C      4.665559    4.074721    5.345745
  12 C      3.318271    6.261030    5.540220
  13 C      7.056956    5.298407    5.456903
  14 C     10.743848    5.156092    5.650343
  15 C      9.833911    8.547115    6.081207
  16 C      8.263192    3.139097    5.154150
  17 C      9.586173    6.105641    5.716420
  18 C      8.209701    6.227650    5.626498
  19 C      9.519997    3.256877    5.309322
  20 C     10.397747    7.351749    5.941557
  21 C      8.450138    8.774140    5.920432
  22 C     11.459043    6.348020    5.923688
  23 C     10.742813    3.817011    5.330610

Unit cell:
           periodic     x           y           z      points  spacing
  1. axis:    yes   16.000000    0.000000    0.000000    80     0.2000
  2. axis:    yes    0.000000   16.000000    0.000000    80     0.2000
  3. axis:    yes    0.000000    0.000000   10.000000    48     0.2083

Effective grid spacing dv^(1/3) = 0.2027

                     log10-error:    total        iterations:
           time      wfs    density  energy       fermi  poisson
iter:   1  10:46:26          +inf  -184.025789    3      4      
iter:   2  10:46:27         -2.94  -184.024988    2      1      
iter:   3  10:46:27         -3.08  -184.025045    2      1      
iter:   4  10:46:28         -3.24  -184.025320    2      1      
iter:   5  10:46:28         -3.31  -184.025014    2      1      
iter:   6  10:46:29         -3.48  -184.024971    2      1      
iter:   7  10:46:30         -3.62  -184.025310    2      1      
iter:   8  10:46:30         -3.88  -184.025165    2      1      
iter:   9  10:46:31         -3.97  -184.025179    2      1      
iter:  10  10:46:31         -4.15  -184.025191    2      1      

Converged after 10 iterations.

Dipole moment: (0.278658, -0.018337, 0.046038) |e|*Ang

Energy contributions relative to reference atoms: (reference = -24663.074771)

Kinetic:       +115.270618
Potential:     -122.897924
External:        +0.000000
XC:            -179.249112
Entropy (-ST):   -0.320407
Local:           +3.011431
--------------------------
Free energy:   -184.185394
Extrapolated:  -184.025191

Fermi level: -4.57334

 Band  Eigenvalues  Occupancy
    0    -23.41066    2.00000
    1    -22.50035    2.00000
    2    -21.58826    2.00000
    3    -20.92777    2.00000
    4    -20.42311    2.00000
    5    -20.23643    2.00000
    6    -19.62243    2.00000
    7    -19.38897    2.00000
    8    -18.28170    2.00000
    9    -18.17688    2.00000
   10    -17.67980    2.00000
   11    -17.35034    2.00000
   12    -16.47233    2.00000
   13    -16.11533    2.00000
   14    -15.15563    2.00000
   15    -14.64699    2.00000
   16    -14.43226    2.00000
   17    -13.78209    2.00000
   18    -13.40088    2.00000
   19    -12.56577    2.00000
   20    -12.37083    2.00000
   21    -12.24642    2.00000
   22    -11.79573    2.00000
   23    -11.32879    2.00000
   24    -11.05355    2.00000
   25    -10.74344    2.00000
   26    -10.68312    2.00000
   27    -10.62980    2.00000
   28    -10.32843    2.00000
   29     -9.95940    2.00000
   30     -9.55598    2.00000
   31     -9.42832    2.00000
   32     -9.19653    2.00000
   33     -8.70264    2.00000
   34     -8.42124    2.00000
   35     -7.99260    2.00000
   36     -7.47001    2.00000
   37     -7.18814    2.00000
   38     -7.12999    2.00000
   39     -7.09168    2.00000
   40     -6.37622    2.00000
   41     -6.30441    2.00000
   42     -6.29025    2.00000
   43     -5.83067    1.99999
   44     -5.59823    1.99993
   45     -5.17031    1.99490
   46     -4.75059    1.70953
   47     -4.71071    1.59595
   48     -4.51002    0.69354
   49     -3.99513    0.00615
   50     -3.05864    0.00000
   51     -2.90772    0.00000
   52     -2.78923    0.00000
   53     -2.73848    0.00000
   54     -2.59783    0.00000
   55     -1.40407    0.00000
   56     -1.05197    0.00000
   57     -0.74953    0.00000
   58     -0.29611    0.00000
   59      0.37734    0.00000
   60      0.78880    0.00000
   61      2.12023    0.00000
   62      2.27988    0.00000
   63      2.91863    0.00000
   64      3.30764    0.00000
   65      3.62458    0.00000
   66      4.37283    0.00000
   67      4.63959    0.00000
   68      4.91052    0.00000
   69      5.16632    0.00000
   70      5.32307    0.00000
   71      5.76641    0.00000
   72      6.17941    0.00000
   73      6.62835    0.00000
   74      6.83023    0.00000
   75      6.95862    0.00000
   76      7.18066    0.00000
   77      7.57092    0.00000
   78      7.91497    0.00000
   79      8.16773    0.00000
   80      8.38144    0.00000
   81      8.51327    0.00000
   82      8.59920    0.00000
   83      8.76049    0.00000
   84      9.00446    0.00000
   85      9.02084    0.00000
   86      9.18852    0.00000
   87      9.34864    0.00000
   88      9.46607    0.00000
   89      9.67008    0.00000
   90      9.69401    0.00000
   91      9.91791    0.00000
   92     10.02894    0.00000
   93     10.11560    0.00000
   94     10.28293    0.00000
   95     10.35629    0.00000
   96     10.40154    0.00000
   97     10.62777    0.00000


Forces in eV/Ang:
  0 C    -0.00664    0.00699    0.06002
  1 C    -0.04790    0.07383   -0.01416
  2 C     0.01336   -0.00107   -0.07437
  3 C    -0.00847   -0.02308    0.03382
  4 C     0.01159    0.03142   -0.04846
  5 C    -0.03211   -0.03084    0.02253
  6 C    -0.01592   -0.03315   -0.01226
  7 C    -0.00177   -0.00500   -0.03014
  8 C    -0.02745   -0.02508    0.03324
  9 C     0.00544   -0.04351    0.00790
 10 C     0.02640   -0.01067    0.00093
 11 C     0.02640   -0.02848    0.01302
 12 C    -0.00755   -0.02889   -0.00925
 13 C    -0.04146   -0.04136    0.03616
 14 C     0.01141    0.00520   -0.01330
 15 C     0.06116   -0.00116   -0.02096
 16 C     0.00090   -0.03092    0.01738
 17 C     0.01153    0.01728   -0.03738
 18 C    -0.01941   -0.00615   -0.03998
 19 C    -0.01137    0.04248   -0.01499
 20 C     0.05069    0.02222   -0.00639
 21 C     0.01550    0.03629   -0.02020
 22 C     0.04152    0.00062    0.00704
 23 C    -0.03332    0.04179    0.01069

