
  ___ ___ ___ _ _ _  
 |   |   |_  | | | | 
 | | | | | . | | | | 
 |__ |  _|___|_____|  1.3.0b1
 |___|_|             

User:   esb@s65n11.grendel.cscaa.dk
Date:   Thu Nov  9 10:43:00 2017
Arch:   x86_64
Pid:    76274
Python: 2.7.13
gpaw:   /home/esb/DFT/gpaw_git/gpaw
_gpaw:  /home/esb/DFT/gpaw_git/build/bin.linux-x86_64-2.7/gpaw-python
ase:    /home/esb/DFT/ase_git/ase (version 3.15.0b1)
numpy:  /comm/swstack/core/python/2.7.13/lib/python2.7/site-packages/numpy (version 1.13.3)
scipy:  /comm/swstack/core/python/2.7.13/lib/python2.7/site-packages/scipy (version 0.19.1)
units:  Angstrom and eV
cores:  16
Extra parameters: {'blacs': True}

Input parameters:
  basis: dzp
  gpts: [80 80 48]
  kpts: [1 1 1]
  maxiter: 99
  mixer: {backend: pulay,
          beta: 0.05,
          method: separate,
          nmaxold: 5,
          weight: 75}
  mode: lcao
  nbands: -50
  occupations: {name: fermi-dirac,
                width: 0.1}
  poissonsolver: {eps: 1e-07,
                  name: fd,
                  nn: 3,
                  relax: GS}
  xc: PBE

System changes: positions, numbers, cell, pbc, initial_charges, initial_magmoms 

Initialize ...

C-setup:
  name: Carbon
  id: 4aa54d4b901d75f77cc0ea3eec22967b
  Z: 6
  valence: 4
  core: 2
  charge: 0.0
  file: /home/esb/DFT/gpaw-setups-0.8.7929/C.PBE.gz
  cutoffs: 0.64(comp), 1.14(filt), 1.14(core), lmax=2
  valence states:
                energy  radius
    2s(2.00)   -13.751   0.635
    2p(2.00)    -5.284   0.635
    *s          13.461   0.635
    *p          21.927   0.635
    *d           0.000   0.635

  LCAO basis set for C:
    Name: dzp
    File: /home/esb/DFT/gpaw-setups-0.8.7929/C.dzp.basis.gz
    Number of radial functions: 5
    Number of spherical harmonics: 13
      l=0, rc=5.5469 Bohr: 2s-sz confined orbital
      l=1, rc=6.6719 Bohr: 2p-sz confined orbital
      l=0, rc=3.0312 Bohr: 2s-dz split-valence wave
      l=1, rc=3.7500 Bohr: 2p-dz split-valence wave
      l=2, rc=6.6719 Bohr: d-type Gaussian polarization

Reference energy: -24663.074771

Spin-paired calculation

Occupation numbers:
  Fermi-Dirac: width=0.1000 eV

Convergence criteria:
  Maximum total energy change: 0.0005 eV / electron
  Maximum integral of absolute density change: 0.0001 electrons
  Maximum integral of absolute eigenstate change: 4e-08 eV^2
  Maximum number of iterations: 99

Symmetries present (total): 1

  ( 1  0  0)
  ( 0  1  0)
  ( 0  0  1)

1 k-point (Gamma)
1 k-point in the irreducible part of the Brillouin zone
       k-points in crystal coordinates                weights
   0:     0.00000000    0.00000000    0.00000000          1/1

Wave functions: LCAO
  Diagonalizer: Serial LAPACK
  Atomic Correction: dense with blas
  Datatype: float
  Eigensolver: None 

LCAO using direct dense diagonalizer 

Densities:
  Coarse grid: 80*80*48 grid
  Fine grid: 160*160*96 grid
  Total Charge: 0.000000 

Density mixing:
  Method: separate
  Backend: pulay
  Linear mixing parameter: 0.05
  Mixing with 5 old densities
  Damping of long wave oscillations: 75 

Hamiltonian:
  XC and Coulomb potentials evaluated on a 160*160*96 grid
  Using the PBE Exchange-Correlation functional
  Interpolation: tri-quintic (5. degree polynomial)
  Poisson solver: Gauss-Seidel solver with 6 multi-grid levels
    Coarsest grid: 5 x 5 x 3 points
    Stencil: 6*3+1=19 point O(h^6) finite-difference Laplacian
    Max iterations: 1000
    Tolerance: 1.000000e-07 

Memory estimate:
  Process memory now: 77.56 MiB
  Calculator: 15.59 MiB
    Density: 6.13 MiB
      Arrays: 3.81 MiB
      Localized functions: 0.86 MiB
      Mixer: 1.46 MiB
    Hamiltonian: 5.40 MiB
      Arrays: 2.49 MiB
      XC: 0.00 MiB
      Poisson: 2.85 MiB
      vbar: 0.07 MiB
    Wavefunctions: 4.05 MiB
      C [qnM]: 0.23 MiB
      S, T [2 x qmm]: 1.49 MiB
      P [aqMi]: 0.01 MiB
      TCI: 0.00 MiB
      BasisFunctions: 2.33 MiB
      Eigensolver: 0.00 MiB

Total number of cores used: 16
Domain decomposition: 2 x 4 x 2

Number of atoms: 24
Number of atomic orbitals: 312
Number of bands in calculation: 98
Bands to converge: occupied states only
Number of valence electrons: 96

... initialized

Initializing position-dependent things.

Density initialized from atomic densities
           .--------------------------------------.  
          /|                                      |  
         / |                                      |  
        /  |                                      |  
       /   |                                      |  
      /    |                                      |  
     /     |                                      |  
    /      |                                      |  
   /       |                                      |  
  /        |                                      |  
 *         |  C  C  C C  C  C C                   |  
 |         |    C   C        CC   C               |  
 |         .--C-C----C---C--CC---CC---------------.  
 |        /       C  C  C  C                     /   
 |       /                                      /    
 |      /                                      /     
 |     /                                      /      
 |    /                                      /       
 |   /                                      /        
 |  /                                      /         
 | /                                      /          
 |/                                      /           
 *--------------------------------------*            

Positions:
   0 C     11.800996    5.108547    5.343198
   1 C     11.985390    6.396024    5.180474
   2 C     11.499205    7.619818    5.045835
   3 C     10.374948    4.866626    5.403511
   4 C      9.701391    3.626037    5.569670
   5 C     10.056582    7.435461    5.102261
   6 C      9.500400    6.078773    5.277858
   7 C      8.418039    3.469673    5.611555
   8 C      9.160730    8.535773    4.974009
   9 C      8.096512    6.039501    5.309670
  10 C      7.087566    3.675466    5.628731
  11 C      9.435229    9.924971    4.778218
  12 C      3.328999    8.318028    5.279464
  13 C      4.046057    9.403713    5.120747
  14 C      5.222755    9.997551    4.998618
  15 C      4.235898    7.192307    5.357328
  16 C      3.916196    5.817666    5.526149
  17 C      6.180257    8.903945    5.073100
  18 C      5.695608    7.520158    5.249235
  19 C      4.773157    4.850478    5.584135
  20 C      7.581860    9.133903    4.962131
  21 C      6.720550    6.560762    5.299318
  22 C      5.905679    4.123206    5.619840
  23 C      8.299269   10.355312    4.769672

Unit cell:
           periodic     x           y           z      points  spacing
  1. axis:    yes   16.000000    0.000000    0.000000    80     0.2000
  2. axis:    yes    0.000000   16.000000    0.000000    80     0.2000
  3. axis:    yes    0.000000    0.000000   10.000000    48     0.2083

Effective grid spacing dv^(1/3) = 0.2027

                     log10-error:    total        iterations:
           time      wfs    density  energy       fermi  poisson
iter:   1  10:43:01          +inf  -179.982804    3      6      
iter:   2  10:43:02         -0.89  -179.011741    3      3      
iter:   3  10:43:02         -0.93  -177.371862    34     4      
iter:   4  10:43:03         -1.08  -177.168175    3      2      
iter:   5  10:43:03         -1.10  -175.894196    32     3      
iter:   6  10:43:04         -1.33  -176.059254    32     3      
iter:   7  10:43:05         -1.56  -175.981202    3      2      
iter:   8  10:43:05         -1.64  -175.800180    4      3      
iter:   9  10:43:06         -1.99  -175.783388    3      2      
iter:  10  10:43:06         -2.12  -175.771956    4      2      
iter:  11  10:43:07         -2.36  -175.765986    3      2      
iter:  12  10:43:07         -2.52  -175.765702    3      2      
iter:  13  10:43:08         -2.67  -175.762093    3      2      
iter:  14  10:43:08         -2.77  -175.760865    2      2      
iter:  15  10:43:09         -2.91  -175.757317    2      2      
iter:  16  10:43:09         -3.23  -175.753451    2      1      
iter:  17  10:43:10         -3.32  -175.744076    3      1      
iter:  18  10:43:10         -3.63  -175.753358    2      1      
iter:  19  10:43:11         -3.78  -175.757186    2      1      
iter:  20  10:43:11         -3.94  -175.755261    2      1      
iter:  21  10:43:12         -4.08  -175.756909    2      1      

Converged after 21 iterations.

Dipole moment: (-0.074746, -0.218609, 0.015008) |e|*Ang

Energy contributions relative to reference atoms: (reference = -24663.074771)

Kinetic:        +98.912279
Potential:     -107.243445
External:        +0.000000
XC:            -170.203013
Entropy (-ST):   -0.439061
Local:           +2.996801
--------------------------
Free energy:   -175.976440
Extrapolated:  -175.756909

Fermi level: -4.49911

 Band  Eigenvalues  Occupancy
    0    -23.09901    2.00000
    1    -21.95355    2.00000
    2    -21.94415    2.00000
    3    -20.70293    2.00000
    4    -20.27751    2.00000
    5    -19.72318    2.00000
    6    -19.52980    2.00000
    7    -19.44876    2.00000
    8    -18.60123    2.00000
    9    -18.20875    2.00000
   10    -17.08828    2.00000
   11    -17.02628    2.00000
   12    -16.62948    2.00000
   13    -16.21898    2.00000
   14    -15.24395    2.00000
   15    -14.91005    2.00000
   16    -14.11226    2.00000
   17    -13.92231    2.00000
   18    -13.85084    2.00000
   19    -12.64893    2.00000
   20    -12.34307    2.00000
   21    -12.03343    2.00000
   22    -11.38596    2.00000
   23    -11.12155    2.00000
   24    -10.90170    2.00000
   25    -10.49436    2.00000
   26    -10.37797    2.00000
   27    -10.32245    2.00000
   28     -9.73903    2.00000
   29     -9.63501    2.00000
   30     -9.32046    2.00000
   31     -9.10047    2.00000
   32     -8.93621    2.00000
   33     -8.24305    2.00000
   34     -7.82463    2.00000
   35     -7.61986    2.00000
   36     -7.26692    2.00000
   37     -7.23912    2.00000
   38     -7.07716    2.00000
   39     -7.03134    2.00000
   40     -6.44861    2.00000
   41     -6.33499    2.00000
   42     -6.05671    2.00000
   43     -5.93099    2.00000
   44     -5.50061    1.99991
   45     -5.05540    1.99235
   46     -4.60398    1.48106
   47     -4.57576    1.36554
   48     -4.50507    1.02980
   49     -4.20606    0.10133
   50     -4.07892    0.02949
   51     -3.67165    0.00051
   52     -3.29890    0.00001
   53     -2.25198    0.00000
   54     -2.05325    0.00000
   55     -1.56269    0.00000
   56     -1.44751    0.00000
   57     -1.42488    0.00000
   58     -1.34489    0.00000
   59     -0.38861    0.00000
   60     -0.10584    0.00000
   61      0.83075    0.00000
   62      1.24077    0.00000
   63      1.36621    0.00000
   64      1.59432    0.00000
   65      2.41093    0.00000
   66      2.97268    0.00000
   67      3.78606    0.00000
   68      4.11067    0.00000
   69      4.34141    0.00000
   70      5.07232    0.00000
   71      5.21262    0.00000
   72      5.65280    0.00000
   73      6.10352    0.00000
   74      6.35849    0.00000
   75      6.45270    0.00000
   76      7.03373    0.00000
   77      7.22464    0.00000
   78      7.66019    0.00000
   79      7.93031    0.00000
   80      8.18996    0.00000
   81      8.19611    0.00000
   82      8.66745    0.00000
   83      8.68420    0.00000
   84      8.81763    0.00000
   85      8.85224    0.00000
   86      8.98452    0.00000
   87      9.09493    0.00000
   88      9.19476    0.00000
   89      9.29146    0.00000
   90      9.36903    0.00000
   91      9.61898    0.00000
   92      9.68969    0.00000
   93     10.00209    0.00000
   94     10.15026    0.00000
   95     10.25242    0.00000
   96     10.31434    0.00000
   97     10.35861    0.00000


Forces in eV/Ang:
  0 C    -1.06442   -0.45808    0.07907
  1 C     0.13250    0.84743   -0.10035
  2 C    -0.09491   -0.41851    0.02592
  3 C     1.67932    0.28270   -0.06547
  4 C    -2.00153    0.34784   -0.00190
  5 C    -0.69778    0.92599   -0.14694
  6 C    -1.65875   -0.31232    0.06795
  7 C     0.15333    0.05658    0.01370
  8 C    -1.04665   -0.82268    0.19185
  9 C    -6.37147    3.37456   -0.10919
 10 C     0.88245   -1.51591    0.14641
 11 C     7.75711   -1.48014   -0.11715
 12 C     0.49822   -1.04132    0.09203
 13 C     0.47130    0.71242   -0.09781
 14 C    -0.20270   -0.36746    0.02797
 15 C    -1.04296    1.33284   -0.09545
 16 C     1.73671   -1.06137    0.02663
 17 C     1.14285    0.20820   -0.13601
 18 C     1.07344   -1.32812    0.08397
 19 C    -0.05955    0.13702    0.02275
 20 C     0.21385   -1.26784    0.19568
 21 C     6.97091   -1.67306   -0.02675
 22 C    -1.66781   -0.54475    0.14022
 23 C    -6.75333    4.04873   -0.22894

System changes: positions 

Initializing position-dependent things.

Density initialized from wave functions
           .--------------------------------------.  
          /|                                      |  
         / |                                      |  
        /  |                                      |  
       /   |                                      |  
      /    |                                      |  
     /     |                                      |  
    /      |                                      |  
   /       |                                      |  
  /        |                                      |  
 *         |  C  C  C C  C  C C                   |  
 |         |    C   C        CC   C               |  
 |         .--C-C-----C-C---CC---CC---------------.  
 |        /       C  C  C  C                     /   
 |       /                                      /    
 |      /                                      /     
 |     /                                      /      
 |    /                                      /       
 |   /                                      /        
 |  /                                      /         
 | /                                      /          
 |/                                      /           
 *--------------------------------------*            

Positions:
   0 C     11.795605    5.106227    5.343599
   1 C     11.986062    6.400315    5.179966
   2 C     11.498725    7.617699    5.045967
   3 C     10.383453    4.868057    5.403180
   4 C      9.691254    3.627799    5.569661
   5 C     10.053048    7.440151    5.101517
   6 C      9.491999    6.077192    5.278202
   7 C      8.418816    3.469959    5.611625
   8 C      9.155430    8.531606    4.974981
   9 C      8.064243    6.056591    5.309117
  10 C      7.092035    3.667789    5.629473
  11 C      9.474516    9.917475    4.777625
  12 C      3.331522    8.312754    5.279930
  13 C      4.048444    9.407321    5.120252
  14 C      5.221728    9.995690    4.998760
  15 C      4.230615    7.199057    5.356844
  16 C      3.924992    5.812290    5.526284
  17 C      6.186045    8.904999    5.072411
  18 C      5.701045    7.513432    5.249660
  19 C      4.772856    4.851172    5.584250
  20 C      7.582943    9.127482    4.963122
  21 C      6.755855    6.552288    5.299183
  22 C      5.897232    4.120447    5.620550
  23 C      8.265066   10.375817    4.768513

Unit cell:
           periodic     x           y           z      points  spacing
  1. axis:    yes   16.000000    0.000000    0.000000    80     0.2000
  2. axis:    yes    0.000000   16.000000    0.000000    80     0.2000
  3. axis:    yes    0.000000    0.000000   10.000000    48     0.2083

Effective grid spacing dv^(1/3) = 0.2027

                     log10-error:    total        iterations:
           time      wfs    density  energy       fermi  poisson
iter:   1  10:43:14          +inf  -178.127416    3      5      
iter:   2  10:43:15         -1.39  -176.819530    3      2      
iter:   3  10:43:15         -1.96  -176.804527    3      2      
iter:   4  10:43:16         -2.08  -176.777879    3      2      
iter:   5  10:43:16         -2.29  -176.777632    2      1      
iter:   6  10:43:17         -2.36  -176.778487    2      2      
iter:   7  10:43:17         -2.55  -176.768766    3      2      
iter:   8  10:43:18         -2.63  -176.773099    2      2      
iter:   9  10:43:18         -2.94  -176.773750    2      1      
iter:  10  10:43:19         -3.08  -176.772191    3      2      
iter:  11  10:43:19         -3.35  -176.772177    2      1      
iter:  12  10:43:20         -3.43  -176.773042    2      1      
iter:  13  10:43:20         -3.64  -176.772172    2      1      
iter:  14  10:43:21         -3.70  -176.772432    2      1      
iter:  15  10:43:21         -3.85  -176.772534    2      1      
iter:  16  10:43:22         -4.01  -176.772019    2      1      

Converged after 16 iterations.

Dipole moment: (-0.115398, -0.326340, 0.031346) |e|*Ang

Energy contributions relative to reference atoms: (reference = -24663.074771)

Kinetic:        +92.450786
Potential:     -102.832845
External:        +0.000000
XC:            -169.110678
Entropy (-ST):   -0.442395
Local:           +2.941915
--------------------------
Free energy:   -176.993216
Extrapolated:  -176.772019

Fermi level: -4.55000

 Band  Eigenvalues  Occupancy
    0    -22.73956    2.00000
    1    -21.93469    2.00000
    2    -21.86506    2.00000
    3    -20.71156    2.00000
    4    -20.31502    2.00000
    5    -19.73634    2.00000
    6    -19.49804    2.00000
    7    -19.46394    2.00000
    8    -18.61036    2.00000
    9    -18.25619    2.00000
   10    -17.13215    2.00000
   11    -17.08636    2.00000
   12    -16.68492    2.00000
   13    -16.17231    2.00000
   14    -15.27066    2.00000
   15    -14.92638    2.00000
   16    -14.06522    2.00000
   17    -13.94832    2.00000
   18    -13.67595    2.00000
   19    -12.62620    2.00000
   20    -12.29503    2.00000
   21    -12.01823    2.00000
   22    -11.43479    2.00000
   23    -11.13393    2.00000
   24    -10.92071    2.00000
   25    -10.46578    2.00000
   26    -10.31357    2.00000
   27    -10.28993    2.00000
   28     -9.73673    2.00000
   29     -9.54933    2.00000
   30     -9.34708    2.00000
   31     -9.05880    2.00000
   32     -8.87978    2.00000
   33     -8.29459    2.00000
   34     -7.87725    2.00000
   35     -7.67068    2.00000
   36     -7.27031    2.00000
   37     -7.20617    2.00000
   38     -7.12248    2.00000
   39     -7.04966    2.00000
   40     -6.47061    2.00000
   41     -6.42440    2.00000
   42     -5.91154    2.00000
   43     -5.88906    2.00000
   44     -5.46171    1.99978
   45     -5.09081    1.99108
   46     -4.68643    1.59292
   47     -4.57963    1.14705
   48     -4.57246    1.11182
   49     -4.28844    0.13628
   50     -4.09490    0.02089
   51     -3.61386    0.00017
   52     -3.29618    0.00001
   53     -2.30254    0.00000
   54     -2.10885    0.00000
   55     -1.45983    0.00000
   56     -1.37267    0.00000
   57     -1.34645    0.00000
   58     -1.26683    0.00000
   59     -0.46785    0.00000
   60     -0.17744    0.00000
   61      0.83338    0.00000
   62      1.17330    0.00000
   63      1.45964    0.00000
   64      1.61362    0.00000
   65      2.18821    0.00000
   66      3.36816    0.00000
   67      3.75219    0.00000
   68      4.05893    0.00000
   69      4.37624    0.00000
   70      5.05492    0.00000
   71      5.23374    0.00000
   72      5.67012    0.00000
   73      5.95119    0.00000
   74      6.29072    0.00000
   75      6.31068    0.00000
   76      7.00813    0.00000
   77      7.30739    0.00000
   78      7.75118    0.00000
   79      7.91759    0.00000
   80      8.12582    0.00000
   81      8.16986    0.00000
   82      8.59022    0.00000
   83      8.63799    0.00000
   84      8.78362    0.00000
   85      8.82870    0.00000
   86      8.98802    0.00000
   87      9.02789    0.00000
   88      9.20950    0.00000
   89      9.34464    0.00000
   90      9.44080    0.00000
   91      9.57322    0.00000
   92      9.67001    0.00000
   93      9.90770    0.00000
   94     10.17895    0.00000
   95     10.28331    0.00000
   96     10.32987    0.00000
   97     10.36099    0.00000


Forces in eV/Ang:
  0 C    -0.60002    0.00270    0.01627
  1 C     0.13852    0.33211   -0.03918
  2 C    -0.31643   -0.25248    0.01054
  3 C     0.79210    0.46684   -0.07293
  4 C    -1.48892    0.51256   -0.03350
  5 C    -0.55300   -0.08469   -0.02048
  6 C    -1.27732   -0.12288    0.03901
  7 C     0.04098   -0.16393    0.04006
  8 C    -1.40901    0.16237    0.07891
  9 C    -4.96903    3.01574   -0.12420
 10 C    -0.75252   -1.04835    0.14334
 11 C     2.40881    0.17574   -0.11974
 12 C     0.45918   -0.39510    0.02436
 13 C     0.12735    0.33090   -0.03744
 14 C     0.07114   -0.39580    0.01796
 15 C    -0.26255    0.88022   -0.08861
 16 C     1.48541   -0.60948   -0.02112
 17 C     0.37950   -0.43388   -0.01914
 18 C     0.90676   -0.94863    0.04058
 19 C    -0.12645   -0.09612    0.04972
 20 C     1.14442   -0.77561    0.09686
 21 C     5.72972   -1.01666   -0.03053
 22 C    -0.12366   -1.26737    0.16550
 23 C    -1.68059    1.75643   -0.12941

System changes: positions 

Initializing position-dependent things.

Density initialized from wave functions
           .--------------------------------------.  
          /|                                      |  
         / |                                      |  
        /  |                                      |  
       /   |                                      |  
      /    |                                      |  
     /     |                                      |  
    /      |                                      |  
   /       |                                      |  
  /        |                                      |  
 *         |  C  C  C C  C  C C                   |  
 |         |    C   C        CC   C               |  
 |         .--C-C-----C-C---CC---CC---------------.  
 |        /       C  C  C  C                     /   
 |       /                                      /    
 |      /                                      /     
 |     /                                      /      
 |    /                                      /       
 |   /                                      /        
 |  /                                      /         
 | /                                      /          
 |/                                      /           
 *--------------------------------------*            

Positions:
   0 C     11.791913    5.106857    5.343632
   1 C     11.987064    6.402017    5.179766
   2 C     11.496160    7.616107    5.046022
   3 C     10.387964    4.871652    5.402646
   4 C      9.681247    3.631695    5.569379
   5 C     10.049271    7.438205    5.101537
   6 C      9.483337    6.076560    5.278444
   7 C      8.418961    3.468491    5.611947
   8 C      9.144838    8.534075    4.975398
   9 C      8.030436    6.077760    5.308205
  10 C      7.084471    3.660884    5.630497
  11 C      9.484727    9.920928    4.776762
  12 C      3.334766    8.310774    5.280016
  13 C      4.048903    9.409192    5.120063
  14 C      5.222601    9.992812    4.998876
  15 C      4.229764    7.204776    5.356217
  16 C      3.935320    5.808514    5.526069
  17 C      6.187759    8.901036    5.072428
  18 C      5.707332    7.507126    5.249894
  19 C      4.771860    4.850174    5.584643
  20 C      7.592388    9.122566    4.963687
  21 C      6.795335    6.545860    5.298959
  22 C      5.898388    4.110395    5.621771
  23 C      8.259717   10.385390    4.767716

Unit cell:
           periodic     x           y           z      points  spacing
  1. axis:    yes   16.000000    0.000000    0.000000    80     0.2000
  2. axis:    yes    0.000000   16.000000    0.000000    80     0.2000
  3. axis:    yes    0.000000    0.000000   10.000000    48     0.2083

Effective grid spacing dv^(1/3) = 0.2027

                     log10-error:    total        iterations:
           time      wfs    density  energy       fermi  poisson
iter:   1  10:43:24          +inf  -177.553113    3      5      
iter:   2  10:43:24         -1.71  -177.400790    3      2      
iter:   3  10:43:25         -2.01  -177.359627    3      2      
iter:   4  10:43:25         -2.16  -177.333865    3      2      
iter:   5  10:43:26         -2.30  -177.340356    3      2      
iter:   6  10:43:27         -2.38  -177.323876    2      2      
iter:   7  10:43:27         -2.60  -177.327971    3      2      
iter:   8  10:43:28         -2.63  -177.324537    2      2      
iter:   9  10:43:28         -3.05  -177.324054    2      1      
iter:  10  10:43:29         -3.17  -177.325301    2      1      
iter:  11  10:43:29         -3.46  -177.325566    2      1      
iter:  12  10:43:30         -3.52  -177.326588    2      1      
iter:  13  10:43:30         -3.62  -177.325947    2      1      
iter:  14  10:43:31         -3.87  -177.325460    2      1      
iter:  15  10:43:31         -3.92  -177.326290    2      1      
iter:  16  10:43:32         -3.97  -177.325419    2      1      
iter:  17  10:43:32         -4.31  -177.325320    2      1      

Converged after 17 iterations.

Dipole moment: (-0.108453, -0.307951, 0.029156) |e|*Ang

Energy contributions relative to reference atoms: (reference = -24663.074771)

Kinetic:        +93.989169
Potential:     -104.455228
External:        +0.000000
XC:            -169.626518
Entropy (-ST):   -0.408285
Local:           +2.971399
--------------------------
Free energy:   -177.529463
Extrapolated:  -177.325320

Fermi level: -4.57565

 Band  Eigenvalues  Occupancy
    0    -22.78922    2.00000
    1    -21.91949    2.00000
    2    -21.85324    2.00000
    3    -20.66728    2.00000
    4    -20.27936    2.00000
    5    -19.79589    2.00000
    6    -19.46413    2.00000
    7    -19.45985    2.00000
    8    -18.54858    2.00000
    9    -18.31935    2.00000
   10    -17.27768    2.00000
   11    -17.01986    2.00000
   12    -16.65699    2.00000
   13    -16.21755    2.00000
   14    -15.30128    2.00000
   15    -14.89640    2.00000
   16    -14.01953    2.00000
   17    -13.98966    2.00000
   18    -13.69013    2.00000
   19    -12.59988    2.00000
   20    -12.31760    2.00000
   21    -12.01022    2.00000
   22    -11.44688    2.00000
   23    -11.13955    2.00000
   24    -10.94732    2.00000
   25    -10.46295    2.00000
   26    -10.32965    2.00000
   27    -10.29200    2.00000
   28     -9.73205    2.00000
   29     -9.55098    2.00000
   30     -9.37982    2.00000
   31     -9.11443    2.00000
   32     -8.86779    2.00000
   33     -8.27843    2.00000
   34     -7.95758    2.00000
   35     -7.62158    2.00000
   36     -7.27495    2.00000
   37     -7.19633    2.00000
   38     -7.13302    2.00000
   39     -7.06248    2.00000
   40     -6.53830    2.00000
   41     -6.43416    2.00000
   42     -5.97486    2.00000
   43     -5.89937    2.00000
   44     -5.50149    1.99981
   45     -5.09220    1.98864
   46     -4.76956    1.74849
   47     -4.62627    1.24783
   48     -4.54746    0.85997
   49     -4.32582    0.15195
   50     -3.92066    0.00286
   51     -3.73481    0.00045
   52     -3.22529    0.00000
   53     -2.31908    0.00000
   54     -2.13742    0.00000
   55     -1.40294    0.00000
   56     -1.36648    0.00000
   57     -1.30500    0.00000
   58     -0.85262    0.00000
   59     -0.46095    0.00000
   60     -0.28923    0.00000
   61      0.91882    0.00000
   62      1.21903    0.00000
   63      1.65279    0.00000
   64      1.65552    0.00000
   65      2.08975    0.00000
   66      3.64691    0.00000
   67      3.73613    0.00000
   68      4.08110    0.00000
   69      4.27733    0.00000
   70      5.11223    0.00000
   71      5.28066    0.00000
   72      5.56352    0.00000
   73      5.66290    0.00000
   74      6.21671    0.00000
   75      6.32032    0.00000
   76      7.01243    0.00000
   77      7.29255    0.00000
   78      7.82263    0.00000
   79      7.84957    0.00000
   80      8.16117    0.00000
   81      8.18014    0.00000
   82      8.47364    0.00000
   83      8.60927    0.00000
   84      8.74318    0.00000
   85      8.87065    0.00000
   86      8.98032    0.00000
   87      9.03947    0.00000
   88      9.15673    0.00000
   89      9.31532    0.00000
   90      9.40333    0.00000
   91      9.55711    0.00000
   92      9.67193    0.00000
   93      9.85626    0.00000
   94     10.14280    0.00000
   95     10.28018    0.00000
   96     10.32444    0.00000
   97     10.33064    0.00000


Forces in eV/Ang:
  0 C    -0.29174    0.15555   -0.00948
  1 C     0.07046    0.23312   -0.02538
  2 C    -0.35953   -0.13610   -0.00244
  3 C     0.05355    0.69348   -0.08283
  4 C    -1.23222    0.54017   -0.04157
  5 C    -0.69594   -0.31267    0.01221
  6 C    -0.95395   -0.06784    0.02705
  7 C    -0.28222   -0.24478    0.05939
  8 C    -1.27700    0.18516    0.06826
  9 C    -2.24056    2.04602   -0.10091
 10 C    -0.44857   -1.16413    0.16108
 11 C     1.73454    0.27503   -0.10840
 12 C     0.32992   -0.08132   -0.00726
 13 C     0.11378    0.21251   -0.02108
 14 C     0.18169   -0.33761    0.00693
 15 C     0.43842    0.54616   -0.08493
 16 C     1.28450   -0.39006   -0.04714
 17 C     0.32129   -0.69494    0.01427
 18 C     0.70357   -0.70310    0.01644
 19 C     0.06663   -0.37681    0.07285
 20 C     1.09754   -0.68271    0.08436
 21 C     3.05642    0.04399   -0.03905
 22 C    -0.42004   -1.15931    0.15053
 23 C    -1.10621    1.37718   -0.11451

System changes: positions 

Initializing position-dependent things.

Density initialized from wave functions
           .--------------------------------------.  
          /|                                      |  
         / |                                      |  
        /  |                                      |  
       /   |                                      |  
      /    |                                      |  
     /     |                                      |  
    /      |                                      |  
   /       |                                      |  
  /        |                                      |  
 *         |  C  C  C C  C  C C                   |  
 |         |    C   C        CC   C               |  
 |         .--C-C-----C-C---CC---CC---------------.  
 |        /       C  C  C  C                     /   
 |       /                                      /    
 |      /                                      /     
 |     /                                      /      
 |    /                                      /       
 |   /                                      /        
 |  /                                      /         
 | /                                      /          
 |/                                      /           
 *--------------------------------------*            

Positions:
   0 C     11.788845    5.110733    5.343283
   1 C     11.988003    6.404814    5.179480
   2 C     11.489613    7.614497    5.045909
   3 C     10.384771    4.884466    5.401202
   4 C      9.662204    3.641145    5.568601
   5 C     10.037216    7.430588    5.102053
   6 C      9.469043    6.075904    5.278812
   7 C      8.412819    3.463736    5.613060
   8 C      9.123282    8.538731    4.976342
   9 C      8.005048    6.108050    5.306571
  10 C      7.075655    3.641515    5.633274
  11 C      9.503544    9.928374    4.774974
  12 C      3.339780    8.311540    5.279674
  13 C      4.050263    9.411764    5.119859
  14 C      5.226484    9.987301    4.998936
  15 C      4.240949    7.212052    5.354810
  16 C      3.955839    5.803434    5.525106
  17 C      6.191830    8.887393    5.072967
  18 C      5.718176    7.496762    5.250016
  19 C      4.773614    4.842420    5.585998
  20 C      7.612076    9.112136    4.964916
  21 C      6.834918    6.551575    5.298263
  22 C      5.892461    4.090202    5.624289
  23 C      8.250706   10.403794    4.765988

Unit cell:
           periodic     x           y           z      points  spacing
  1. axis:    yes   16.000000    0.000000    0.000000    80     0.2000
  2. axis:    yes    0.000000   16.000000    0.000000    80     0.2000
  3. axis:    yes    0.000000    0.000000   10.000000    48     0.2083

Effective grid spacing dv^(1/3) = 0.2027

                     log10-error:    total        iterations:
           time      wfs    density  energy       fermi  poisson
iter:   1  10:43:34          +inf  -178.253430    3      5      
iter:   2  10:43:35         -1.55  -177.842029    3      2      
iter:   3  10:43:35         -1.92  -177.776810    3      2      
iter:   4  10:43:36         -2.07  -177.733422    3      2      
iter:   5  10:43:36         -2.27  -177.740885    2      2      
iter:   6  10:43:37         -2.35  -177.722140    2      2      
iter:   7  10:43:37         -2.61  -177.727568    2      2      
iter:   8  10:43:38         -2.57  -177.721365    2      2      
iter:   9  10:43:38         -3.01  -177.721243    2      1      
iter:  10  10:43:39         -3.14  -177.722306    2      2      
iter:  11  10:43:40         -3.39  -177.722607    2      1      
iter:  12  10:43:40         -3.45  -177.724534    2      1      
iter:  13  10:43:41         -3.73  -177.722641    2      1      
iter:  14  10:43:41         -3.77  -177.722684    2      1      
iter:  15  10:43:42         -3.84  -177.723601    2      1      
iter:  16  10:43:42         -4.31  -177.722511    2      1      

Converged after 16 iterations.

Dipole moment: (-0.100248, -0.290397, 0.027448) |e|*Ang

Energy contributions relative to reference atoms: (reference = -24663.074771)

Kinetic:        +97.117240
Potential:     -107.276878
External:        +0.000000
XC:            -170.345074
Entropy (-ST):   -0.375896
Local:           +2.970150
--------------------------
Free energy:   -177.910458
Extrapolated:  -177.722511

Fermi level: -4.59889

 Band  Eigenvalues  Occupancy
    0    -22.84252    2.00000
    1    -21.93003    2.00000
    2    -21.86678    2.00000
    3    -20.62264    2.00000
    4    -20.23148    2.00000
    5    -19.91869    2.00000
    6    -19.48127    2.00000
    7    -19.41603    2.00000
    8    -18.53963    2.00000
    9    -18.37684    2.00000
   10    -17.41181    2.00000
   11    -16.95488    2.00000
   12    -16.62052    2.00000
   13    -16.27496    2.00000
   14    -15.30745    2.00000
   15    -14.90800    2.00000
   16    -14.06388    2.00000
   17    -13.98345    2.00000
   18    -13.72171    2.00000
   19    -12.57884    2.00000
   20    -12.37234    2.00000
   21    -12.01787    2.00000
   22    -11.44806    2.00000
   23    -11.13960    2.00000
   24    -10.98503    2.00000
   25    -10.44066    2.00000
   26    -10.39562    2.00000
   27    -10.24278    2.00000
   28     -9.74660    2.00000
   29     -9.55896    2.00000
   30     -9.44807    2.00000
   31     -9.14889    2.00000
   32     -8.86361    2.00000
   33     -8.25456    2.00000
   34     -8.09640    2.00000
   35     -7.58781    2.00000
   36     -7.29691    2.00000
   37     -7.16391    2.00000
   38     -7.15765    2.00000
   39     -7.09429    2.00000
   40     -6.69242    2.00000
   41     -6.43218    2.00000
   42     -6.03173    2.00000
   43     -5.88890    2.00000
   44     -5.52761    1.99981
   45     -5.11415    1.98850
   46     -4.83975    1.83496
   47     -4.68108    1.38926
   48     -4.50908    0.57887
   49     -4.38265    0.20636
   50     -3.90476    0.00193
   51     -3.72167    0.00031
   52     -3.15742    0.00000
   53     -2.35044    0.00000
   54     -2.18487    0.00000
   55     -1.39467    0.00000
   56     -1.36996    0.00000
   57     -1.19039    0.00000
   58     -0.49325    0.00000
   59     -0.42581    0.00000
   60     -0.42145    0.00000
   61      1.10504    0.00000
   62      1.34825    0.00000
   63      1.71497    0.00000
   64      1.88755    0.00000
   65      1.93328    0.00000
   66      3.71067    0.00000
   67      3.81025    0.00000
   68      4.08674    0.00000
   69      4.13182    0.00000
   70      5.20669    0.00000
   71      5.28410    0.00000
   72      5.38718    0.00000
   73      5.57744    0.00000
   74      6.20671    0.00000
   75      6.38303    0.00000
   76      6.97952    0.00000
   77      7.30930    0.00000
   78      7.75019    0.00000
   79      7.80454    0.00000
   80      8.11963    0.00000
   81      8.19295    0.00000
   82      8.36491    0.00000
   83      8.57775    0.00000
   84      8.66993    0.00000
   85      8.83959    0.00000
   86      8.90728    0.00000
   87      9.04633    0.00000
   88      9.11083    0.00000
   89      9.28270    0.00000
   90      9.38782    0.00000
   91      9.59171    0.00000
   92      9.66235    0.00000
   93      9.76592    0.00000
   94     10.09964    0.00000
   95     10.27232    0.00000
   96     10.29515    0.00000
   97     10.33161    0.00000


Forces in eV/Ang:
  0 C    -0.20297    0.16618   -0.01721
  1 C    -0.03249    0.19751   -0.01850
  2 C    -0.59099   -0.00264   -0.01145
  3 C    -0.51354    0.50915   -0.04634
  4 C    -0.48610    0.71529   -0.10868
  5 C    -0.69211   -0.09360   -0.00278
  6 C    -0.44501    0.07331   -0.01997
  7 C    -0.63291   -0.35095    0.07927
  8 C    -0.82172    0.22669    0.05581
  9 C     1.49631    0.37588   -0.05124
 10 C    -0.62190   -1.05969    0.16083
 11 C     0.70809    0.32879   -0.06860
 12 C     0.27038   -0.01124   -0.01686
 13 C     0.16208    0.11275   -0.00846
 14 C     0.45598   -0.39872   -0.00093
 15 C     0.75331    0.03641   -0.03944
 16 C     0.88702    0.15866   -0.09083
 17 C     0.46102   -0.54758    0.00004
 18 C     0.41155   -0.23949   -0.00782
 19 C     0.21527   -0.63877    0.07829
 20 C     0.73575   -0.35333    0.05401
 21 C    -0.83988    1.25765   -0.05742
 22 C    -0.20890   -1.20559    0.15124
 23 C    -0.26896    0.72781   -0.08369

System changes: positions 

Initializing position-dependent things.

Density initialized from wave functions
           .--------------------------------------.  
          /|                                      |  
         / |                                      |  
        /  |                                      |  
       /   |                                      |  
      /    |                                      |  
     /     |                                      |  
    /      |                                      |  
   /       |                                      |  
  /        |                                      |  
 *         |  C  C  C C  C  C C                   |  
 |         |    C   C        CC   C               |  
 |         .--C-C-----C-C---CC---CC---------------.  
 |        /       C C   C  C                     /   
 |       /                                      /    
 |      /                                      /     
 |     /                                      /      
 |    /                                      /       
 |   /                                      /        
 |  /                                      /         
 | /                                      /          
 |/                                      /           
 *--------------------------------------*            

Positions:
   0 C     11.781582    5.115531    5.342860
   1 C     11.988176    6.410722    5.178895
   2 C     11.474139    7.613046    5.045677
   3 C     10.376064    4.900556    5.399540
   4 C      9.641034    3.660767    5.565982
   5 C     10.017399    7.425572    5.102131
   6 C      9.450817    6.076845    5.278645
   7 C      8.398173    3.454356    5.615186
   8 C      9.094260    8.546008    4.978011
   9 C      8.008991    6.136549    5.304533
  10 C      7.056159    3.610235    5.637955
  11 C      9.529973    9.939012    4.772564
  12 C      3.348645    8.310265    5.279292
  13 C      4.054296    9.415943    5.119509
  14 C      5.237441    9.975873    4.999003
  15 C      4.258947    7.218204    5.353243
  16 C      3.985852    5.803054    5.522847
  17 C      6.203570    8.870125    5.073109
  18 C      5.733348    7.485239    5.250030
  19 C      4.777959    4.826558    5.588211
  20 C      7.638067    9.099048    4.966710
  21 C      6.851712    6.575245    5.296756
  22 C      5.887024    4.053978    5.628813
  23 C      8.238911   10.429757    4.763308

Unit cell:
           periodic     x           y           z      points  spacing
  1. axis:    yes   16.000000    0.000000    0.000000    80     0.2000
  2. axis:    yes    0.000000   16.000000    0.000000    80     0.2000
  3. axis:    yes    0.000000    0.000000   10.000000    48     0.2083

Effective grid spacing dv^(1/3) = 0.2027

                     log10-error:    total        iterations:
           time      wfs    density  energy       fermi  poisson
iter:   1  10:43:44          +inf  -178.659939    3      5      
iter:   2  10:43:45         -1.53  -178.101610    3      2      
iter:   3  10:43:45         -1.95  -178.054376    2      2      
iter:   4  10:43:46         -2.12  -178.011396    3      2      
iter:   5  10:43:46         -2.36  -178.013437    2      1      
iter:   6  10:43:47         -2.49  -178.014174    3      2      
iter:   7  10:43:47         -2.51  -177.997986    3      2      
iter:   8  10:43:48         -2.54  -178.008434    3      2      
iter:   9  10:43:48         -2.83  -178.004375    2      1      
iter:  10  10:43:49         -3.10  -178.004065    2      1      
iter:  11  10:43:49         -3.25  -178.005936    2      1      
iter:  12  10:43:50         -3.30  -178.004677    2      1      
iter:  13  10:43:50         -3.54  -178.005259    2      1      
iter:  14  10:43:51         -3.76  -178.005341    2      1      
iter:  15  10:43:51         -3.89  -178.004977    2      1      
iter:  16  10:43:52         -4.00  -178.005531    2      1      
iter:  17  10:43:52         -4.03  -178.004676    2      1      

Converged after 17 iterations.

Dipole moment: (-0.100576, -0.296717, 0.030281) |e|*Ang

Energy contributions relative to reference atoms: (reference = -24663.074771)

Kinetic:        +98.398918
Potential:     -108.507589
External:        +0.000000
XC:            -170.681529
Entropy (-ST):   -0.360730
Local:           +2.965890
--------------------------
Free energy:   -178.185041
Extrapolated:  -178.004676

Fermi level: -4.60189

 Band  Eigenvalues  Occupancy
    0    -22.84218    2.00000
    1    -21.96139    2.00000
    2    -21.88959    2.00000
    3    -20.59061    2.00000
    4    -20.17449    2.00000
    5    -20.04983    2.00000
    6    -19.52599    2.00000
    7    -19.41162    2.00000
    8    -18.56722    2.00000
    9    -18.35498    2.00000
   10    -17.45878    2.00000
   11    -16.92745    2.00000
   12    -16.57025    2.00000
   13    -16.31172    2.00000
   14    -15.32150    2.00000
   15    -14.95726    2.00000
   16    -14.18464    2.00000
   17    -13.97219    2.00000
   18    -13.75179    2.00000
   19    -12.56808    2.00000
   20    -12.46106    2.00000
   21    -12.03619    2.00000
   22    -11.48369    2.00000
   23    -11.14592    2.00000
   24    -11.05709    2.00000
   25    -10.45462    2.00000
   26    -10.42842    2.00000
   27    -10.18239    2.00000
   28     -9.77332    2.00000
   29     -9.55991    2.00000
   30     -9.49628    2.00000
   31     -9.13268    2.00000
   32     -8.86988    2.00000
   33     -8.21570    2.00000
   34     -8.20810    2.00000
   35     -7.54427    2.00000
   36     -7.32182    2.00000
   37     -7.18163    2.00000
   38     -7.14879    2.00000
   39     -7.12609    2.00000
   40     -6.77096    2.00000
   41     -6.44676    2.00000
   42     -6.01213    2.00000
   43     -5.85750    1.99999
   44     -5.50687    1.99977
   45     -5.14131    1.99096
   46     -4.86715    1.86835
   47     -4.69666    1.44128
   48     -4.46568    0.40780
   49     -4.42239    0.28492
   50     -4.03508    0.00688
   51     -3.54487    0.00005
   52     -3.11367    0.00000
   53     -2.41756    0.00000
   54     -2.27350    0.00000
   55     -1.45317    0.00000
   56     -1.36485    0.00000
   57     -1.11730    0.00000
   58     -0.51271    0.00000
   59     -0.50931    0.00000
   60     -0.30424    0.00000
   61      1.15615    0.00000
   62      1.73348    0.00000
   63      1.74727    0.00000
   64      1.84298    0.00000
   65      1.96411    0.00000
   66      3.69537    0.00000
   67      3.82109    0.00000
   68      3.95705    0.00000
   69      4.20185    0.00000
   70      5.29428    0.00000
   71      5.31255    0.00000
   72      5.51062    0.00000
   73      5.52536    0.00000
   74      6.29435    0.00000
   75      6.46629    0.00000
   76      6.96810    0.00000
   77      7.28839    0.00000
   78      7.69001    0.00000
   79      7.72199    0.00000
   80      8.06785    0.00000
   81      8.13415    0.00000
   82      8.33071    0.00000
   83      8.57246    0.00000
   84      8.61486    0.00000
   85      8.77767    0.00000
   86      8.79417    0.00000
   87      9.05456    0.00000
   88      9.13675    0.00000
   89      9.27009    0.00000
   90      9.42301    0.00000
   91      9.64306    0.00000
   92      9.66951    0.00000
   93      9.69759    0.00000
   94     10.08296    0.00000
   95     10.23391    0.00000
   96     10.27042    0.00000
   97     10.28485    0.00000


Forces in eV/Ang:
  0 C    -0.16794    0.26102   -0.03906
  1 C    -0.20545    0.09079    0.00143
  2 C    -0.80244    0.06425   -0.00108
  3 C    -0.72927    0.21211   -0.00812
  4 C    -0.48951    0.65297   -0.10070
  5 C    -0.52608    0.27615   -0.04011
  6 C     0.33206    0.31530   -0.06000
  7 C    -0.44547   -0.31008    0.08634
  8 C     0.02878    0.29569   -0.00827
  9 C     1.68607   -0.33756    0.03427
 10 C     0.35964   -1.25245    0.13076
 11 C    -0.64140    0.37168   -0.00289
 12 C     0.29454    0.06624   -0.03306
 13 C     0.23088   -0.07318    0.01348
 14 C     0.62123   -0.50798   -0.00210
 15 C     0.68762   -0.33499    0.00873
 16 C     0.71384    0.27232   -0.07659
 17 C     0.58675   -0.14615   -0.03366
 18 C    -0.05409    0.47302   -0.04675
 19 C     0.21789   -0.63994    0.07228
 20 C     0.19953    0.25614   -0.00621
 21 C    -1.46520    0.84748   -0.01709
 22 C    -1.09583   -0.68764    0.12765
 23 C     0.73637   -0.15032   -0.00736

System changes: positions 

Initializing position-dependent things.

Density initialized from wave functions
           .--------------------------------------.  
          /|                                      |  
         / |                                      |  
        /  |                                      |  
       /   |                                      |  
      /    |                                      |  
     /     |                                      |  
    /      |                                      |  
   /       |                                      |  
  /        |                                      |  
 *         |  C  C  C C  C  C C                   |  
 |         |    C   C       C C   C               |  
 |         .--C-C-----C-C---CC---CC---------------.  
 |        /       C C   C  C                     /   
 |       /                                      /    
 |      /                                      /     
 |     /                                      /      
 |    /                                      /       
 |   /                                      /        
 |  /                                      /         
 | /                                      /          
 |/                                      /           
 *--------------------------------------*            

Positions:
   0 C     11.772981    5.121870    5.342114
   1 C     11.985479    6.416461    5.178466
   2 C     11.452830    7.612332    5.045598
   3 C     10.363641    4.913422    5.398329
   4 C      9.616888    3.682393    5.563035
   5 C      9.997325    7.427649    5.101398
   6 C      9.442427    6.081800    5.277775
   7 C      8.384362    3.444417    5.617724
   8 C      9.075672    8.554402    4.979015
   9 C      8.017377    6.156757    5.303646
  10 C      7.050879    3.570886    5.642833
  11 C      9.543883    9.949989    4.770910
  12 C      3.359364    8.308997    5.278695
  13 C      4.060552    9.418168    5.119392
  14 C      5.252718    9.960798    4.999074
  15 C      4.277251    7.219392    5.352284
  16 C      4.017494    5.804539    5.520499
  17 C      6.220316    8.858117    5.072521
  18 C      5.743230    7.483547    5.249458
  19 C      4.783061    4.808507    5.590606
  20 C      7.657656    9.093736    4.967878
  21 C      6.859588    6.595595    5.295663
  22 C      5.865303    4.021325    5.633630
  23 C      8.236393   10.447469    4.761379

Unit cell:
           periodic     x           y           z      points  spacing
  1. axis:    yes   16.000000    0.000000    0.000000    80     0.2000
  2. axis:    yes    0.000000   16.000000    0.000000    80     0.2000
  3. axis:    yes    0.000000    0.000000   10.000000    48     0.2083

Effective grid spacing dv^(1/3) = 0.2027

                     log10-error:    total        iterations:
           time      wfs    density  energy       fermi  poisson
iter:   1  10:43:54          +inf  -178.332065    3      5      
iter:   2  10:43:55         -1.82  -178.249032    3      2      
iter:   3  10:43:55         -2.15  -178.220586    2      2      
iter:   4  10:43:56         -2.30  -178.199592    2      2      
iter:   5  10:43:57         -2.57  -178.203069    2      2      
iter:   6  10:43:57         -2.66  -178.191424    3      2      
iter:   7  10:43:58         -2.74  -178.195063    2      1      
iter:   8  10:43:58         -2.92  -178.197834    3      2      
iter:   9  10:43:59         -3.18  -178.196689    2      1      
iter:  10  10:43:59         -3.39  -178.196323    2      1      
iter:  11  10:44:00         -3.60  -178.196711    2      1      
iter:  12  10:44:00         -3.69  -178.196585    2      1      
iter:  13  10:44:01         -3.76  -178.196285    2      1      
iter:  14  10:44:01         -4.07  -178.196454    2      1      

Converged after 14 iterations.

Dipole moment: (-0.102510, -0.307133, 0.033443) |e|*Ang

Energy contributions relative to reference atoms: (reference = -24663.074771)

Kinetic:       +100.590481
Potential:     -110.299104
External:        +0.000000
XC:            -171.281306
Entropy (-ST):   -0.364283
Local:           +2.975615
--------------------------
Free energy:   -178.378596
Extrapolated:  -178.196454

Fermi level: -4.57556

 Band  Eigenvalues  Occupancy
    0    -22.88161    2.00000
    1    -22.00246    2.00000
    2    -21.92614    2.00000
    3    -20.57450    2.00000
    4    -20.17684    2.00000
    5    -20.12708    2.00000
    6    -19.57196    2.00000
    7    -19.38606    2.00000
    8    -18.62698    2.00000
    9    -18.31826    2.00000
   10    -17.44452    2.00000
   11    -16.93065    2.00000
   12    -16.57981    2.00000
   13    -16.36166    2.00000
   14    -15.33199    2.00000
   15    -15.03431    2.00000
   16    -14.28310    2.00000
   17    -13.97565    2.00000
   18    -13.77998    2.00000
   19    -12.57482    2.00000
   20    -12.54114    2.00000
   21    -12.07014    2.00000
   22    -11.49880    2.00000
   23    -11.16108    2.00000
   24    -11.09034    2.00000
   25    -10.51218    2.00000
   26    -10.46813    2.00000
   27    -10.18106    2.00000
   28     -9.80638    2.00000
   29     -9.57561    2.00000
   30     -9.51450    2.00000
   31     -9.09648    2.00000
   32     -8.87285    2.00000
   33     -8.24919    2.00000
   34     -8.22805    2.00000
   35     -7.56720    2.00000
   36     -7.33977    2.00000
   37     -7.19357    2.00000
   38     -7.13225    2.00000
   39     -7.12562    2.00000
   40     -6.79674    2.00000
   41     -6.48530    2.00000
   42     -5.99090    2.00000
   43     -5.80792    1.99999
   44     -5.47653    1.99976
   45     -5.13231    1.99239
   46     -4.83772    1.86447
   47     -4.67348    1.45387
   48     -4.41708    0.34021
   49     -4.41279    0.32828
   50     -4.12100    0.02100
   51     -3.46405    0.00003
   52     -3.13283    0.00000
   53     -2.46466    0.00000
   54     -2.33774    0.00000
   55     -1.47493    0.00000
   56     -1.34307    0.00000
   57     -0.99067    0.00000
   58     -0.55351    0.00000
   59     -0.53421    0.00000
   60     -0.28645    0.00000
   61      1.04843    0.00000
   62      1.74155    0.00000
   63      1.78560    0.00000
   64      1.98525    0.00000
   65      2.22169    0.00000
   66      3.61976    0.00000
   67      3.72850    0.00000
   68      4.11002    0.00000
   69      4.25346    0.00000
   70      5.33912    0.00000
   71      5.37578    0.00000
   72      5.56339    0.00000
   73      5.62545    0.00000
   74      6.45021    0.00000
   75      6.49939    0.00000
   76      7.01260    0.00000
   77      7.46219    0.00000
   78      7.66999    0.00000
   79      7.70240    0.00000
   80      8.03417    0.00000
   81      8.09975    0.00000
   82      8.36766    0.00000
   83      8.56312    0.00000
   84      8.58895    0.00000
   85      8.75817    0.00000
   86      8.76784    0.00000
   87      9.05529    0.00000
   88      9.17458    0.00000
   89      9.26513    0.00000
   90      9.46974    0.00000
   91      9.62786    0.00000
   92      9.64440    0.00000
   93      9.79103    0.00000
   94     10.08246    0.00000
   95     10.20117    0.00000
   96     10.26478    0.00000
   97     10.28879    0.00000


Forces in eV/Ang:
  0 C    -0.21438    0.24718   -0.03820
  1 C    -0.38986    0.18512    0.00046
  2 C    -0.70706    0.01732   -0.00334
  3 C    -0.68925    0.05176    0.00855
  4 C    -0.03974    0.62159   -0.07753
  5 C    -0.25971    0.48011   -0.05549
  6 C     0.61769    0.41913   -0.07176
  7 C    -0.25097   -0.38154    0.04864
  8 C     0.64981    0.31239   -0.03510
  9 C     0.97332   -0.55976    0.05094
 10 C    -1.33023   -0.60004    0.11725
 11 C    -1.06411    0.27805    0.02074
 12 C     0.32598    0.03159   -0.02824
 13 C     0.39245   -0.14854    0.00941
 14 C     0.56009   -0.47745    0.00087
 15 C     0.52832   -0.40439    0.01751
 16 C     0.49427    0.32082   -0.06536
 17 C     0.52284    0.21338   -0.06102
 18 C    -0.15748    0.70959   -0.06565
 19 C    -0.18397   -0.29740    0.04563
 20 C    -0.23573    0.67089   -0.05307
 21 C    -1.09206    0.20934    0.04767
 22 C     0.65417   -1.37574    0.14228
 23 C     0.99343   -0.46877    0.01727

System changes: positions 

Initializing position-dependent things.

Density initialized from wave functions
           .--------------------------------------.  
          /|                                      |  
         / |                                      |  
        /  |                                      |  
       /   |                                      |  
      /    |                                      |  
     /     |                                      |  
    /      |                                      |  
   /       |                                      |  
  /        |                                      |  
 *         |  C  C  C C  C  C  C                  |  
 |         |    C   C       C C   C               |  
 |         .--C-C-----C-C---CC---CC---------------.  
 |        /       C C   C  C                     /   
 |       /                                      /    
 |      /                                      /     
 |     /                                      /      
 |    /                                      /       
 |   /                                      /        
 |  /                                      /         
 | /                                      /          
 |/                                      /           
 *--------------------------------------*            

Positions:
   0 C     11.763594    5.128259    5.341314
   1 C     11.979959    6.423533    5.178028
   2 C     11.431079    7.611372    5.045517
   3 C     10.350088    4.923982    5.397406
   4 C      9.597186    3.704311    5.560213
   5 C      9.979582    7.434246    5.100237
   6 C      9.439683    6.088805    5.276593
   7 C      8.372124    3.433508    5.619983
   8 C      9.066775    8.562462    4.979670
   9 C      8.024296    6.170694    5.303265
  10 C      7.032130    3.536002    5.647676
  11 C      9.553752    9.958798    4.769711
  12 C      3.370728    8.307257    5.278107
  13 C      4.069423    9.419274    5.119259
  14 C      5.268506    9.945196    4.999167
  15 C      4.294563    7.218331    5.351576
  16 C      4.047042    5.807255    5.518208
  17 C      6.238309    8.851366    5.071403
  18 C      5.750576    7.486883    5.248535
  19 C      4.784452    4.793168    5.592785
  20 C      7.670131    9.094493    4.968462
  21 C      6.864229    6.610233    5.295333
  22 C      5.857144    3.982491    5.638665
  23 C      8.235483   10.461154    4.759819

Unit cell:
           periodic     x           y           z      points  spacing
  1. axis:    yes   16.000000    0.000000    0.000000    80     0.2000
  2. axis:    yes    0.000000   16.000000    0.000000    80     0.2000
  3. axis:    yes    0.000000    0.000000   10.000000    48     0.2083

Effective grid spacing dv^(1/3) = 0.2027

                     log10-error:    total        iterations:
           time      wfs    density  energy       fermi  poisson
iter:   1  10:44:03          +inf  -178.405466    2      5      
iter:   2  10:44:04         -2.00  -178.387464    3      2      
iter:   3  10:44:04         -2.30  -178.372401    2      1      
iter:   4  10:44:05         -2.41  -178.359346    3      2      
iter:   5  10:44:05         -2.67  -178.369966    2      2      
iter:   6  10:44:06         -2.55  -178.355000    3      2      
iter:   7  10:44:06         -2.88  -178.355669    3      1      
iter:   8  10:44:07         -2.94  -178.358668    3      2      
iter:   9  10:44:07         -3.29  -178.357812    2      1      
iter:  10  10:44:08         -3.46  -178.357188    2      1      
iter:  11  10:44:08         -3.75  -178.358339    2      1      
iter:  12  10:44:09         -3.83  -178.358371    2      1      
iter:  13  10:44:09         -3.94  -178.358155    2      1      
iter:  14  10:44:10         -4.18  -178.358221    2      1      

Converged after 14 iterations.

Dipole moment: (-0.098539, -0.299226, 0.034293) |e|*Ang

Energy contributions relative to reference atoms: (reference = -24663.074771)

Kinetic:       +103.760331
Potential:     -112.818123
External:        +0.000000
XC:            -172.108084
Entropy (-ST):   -0.359630
Local:           +2.987469
--------------------------
Free energy:   -178.538036
Extrapolated:  -178.358221

Fermi level: -4.56461

 Band  Eigenvalues  Occupancy
    0    -22.91468    2.00000
    1    -22.05193    2.00000
    2    -21.95928    2.00000
    3    -20.54830    2.00000
    4    -20.16562    2.00000
    5    -20.16508    2.00000
    6    -19.61030    2.00000
    7    -19.41020    2.00000
    8    -18.63338    2.00000
    9    -18.30149    2.00000
   10    -17.45059    2.00000
   11    -16.93982    2.00000
   12    -16.54640    2.00000
   13    -16.40853    2.00000
   14    -15.35452    2.00000
   15    -15.05348    2.00000
   16    -14.34932    2.00000
   17    -13.98906    2.00000
   18    -13.77619    2.00000
   19    -12.59724    2.00000
   20    -12.59633    2.00000
   21    -12.11069    2.00000
   22    -11.51001    2.00000
   23    -11.18985    2.00000
   24    -11.09882    2.00000
   25    -10.56316    2.00000
   26    -10.53013    2.00000
   27    -10.22228    2.00000
   28     -9.84274    2.00000
   29     -9.58150    2.00000
   30     -9.50913    2.00000
   31     -9.06339    2.00000
   32     -8.87028    2.00000
   33     -8.26121    2.00000
   34     -8.22058    2.00000
   35     -7.53687    2.00000
   36     -7.35584    2.00000
   37     -7.19692    2.00000
   38     -7.14061    2.00000
   39     -7.13893    2.00000
   40     -6.78919    2.00000
   41     -6.48943    2.00000
   42     -5.98124    2.00000
   43     -5.78795    1.99999
   44     -5.47104    1.99977
   45     -5.12603    1.99274
   46     -4.84346    1.88411
   47     -4.66165    1.45041
   48     -4.41184    0.35666
   49     -4.38347    0.28094
   50     -4.16290    0.03537
   51     -3.32403    0.00001
   52     -3.10775    0.00000
   53     -2.50127    0.00000
   54     -2.38877    0.00000
   55     -1.47194    0.00000
   56     -1.34423    0.00000
   57     -0.93550    0.00000
   58     -0.53371    0.00000
   59     -0.53250    0.00000
   60     -0.26692    0.00000
   61      0.98301    0.00000
   62      1.73190    0.00000
   63      1.80959    0.00000
   64      2.00682    0.00000
   65      2.48493    0.00000
   66      3.50553    0.00000
   67      3.76639    0.00000
   68      4.23066    0.00000
   69      4.32619    0.00000
   70      5.39383    0.00000
   71      5.45218    0.00000
   72      5.64746    0.00000
   73      5.70692    0.00000
   74      6.53122    0.00000
   75      6.59254    0.00000
   76      7.09031    0.00000
   77      7.43417    0.00000
   78      7.68251    0.00000
   79      7.71075    0.00000
   80      8.00666    0.00000
   81      8.12304    0.00000
   82      8.41273    0.00000
   83      8.58055    0.00000
   84      8.60072    0.00000
   85      8.78198    0.00000
   86      8.78724    0.00000
   87      9.09365    0.00000
   88      9.22280    0.00000
   89      9.26481    0.00000
   90      9.51086    0.00000
   91      9.62089    0.00000
   92      9.66847    0.00000
   93      9.87536    0.00000
   94     10.08314    0.00000
   95     10.18306    0.00000
   96     10.26823    0.00000
   97     10.29593    0.00000


Forces in eV/Ang:
  0 C    -0.24316    0.27090   -0.02346
  1 C    -0.46497    0.15335    0.01172
  2 C    -0.52458    0.05225   -0.00692
  3 C    -0.46934    0.07722   -0.00531
  4 C    -0.24668    0.34063   -0.03932
  5 C     0.05464    0.46881   -0.06541
  6 C     0.59479    0.47488   -0.06864
  7 C    -0.16386   -0.29680    0.04257
  8 C     0.88081    0.38872   -0.05702
  9 C     0.31726   -0.64943    0.08740
 10 C    -0.44911   -0.77878    0.10060
 11 C    -1.34902    0.28074    0.03110
 12 C     0.35216    0.02262   -0.01781
 13 C     0.45007   -0.21382    0.01293
 14 C     0.41522   -0.31968   -0.01169
 15 C     0.38345   -0.24402   -0.00202
 16 C     0.36598    0.10052   -0.02758
 17 C     0.30625    0.42112   -0.07278
 18 C    -0.13979    0.73524   -0.07031
 19 C    -0.05849   -0.33608    0.03551
 20 C    -0.33699    0.86277   -0.07624
 21 C    -0.65181   -0.27369    0.07226
 22 C    -0.18127   -0.88472    0.11881
 23 C     1.20635   -0.66791    0.03249

System changes: positions 

Initializing position-dependent things.

Density initialized from wave functions
           .--------------------------------------.  
          /|                                      |  
         / |                                      |  
        /  |                                      |  
       /   |                                      |  
      /    |                                      |  
     /     |                                      |  
    /      |                                      |  
   /       |                                      |  
  /        |                                      |  
 *         |  C  C  C C  C  C  C                  |  
 |         |    C   C       C C   C               |  
 |         .---CC-----C-C---CC---CC---------------.  
 |        /       C C   C  C                     /   
 |       /                                      /    
 |      /                                      /     
 |     /                                      /      
 |    /                                      /       
 |   /                                      /        
 |  /                                      /         
 | /                                      /          
 |/                                      /           
 *--------------------------------------*            

Positions:
   0 C     11.753203    5.135418    5.340634
   1 C     11.971825    6.431023    5.177727
   2 C     11.410152    7.610951    5.045363
   3 C     10.337343    4.934444    5.396395
   4 C      9.576451    3.723970    5.557716
   5 C      9.966049    7.442990    5.098705
   6 C      9.439414    6.097967    5.275201
   7 C      8.360418    3.422574    5.622202
   8 C      9.064961    8.571978    4.979905
   9 C      8.027921    6.179197    5.303625
  10 C      7.018579    3.498685    5.652558
  11 C      9.557049    9.967424    4.768816
  12 C      3.383220    8.305316    5.277610
  13 C      4.080677    9.418938    5.119180
  14 C      5.283773    9.930639    4.999087
  15 C      4.311150    7.217764    5.350715
  16 C      4.075050    5.808396    5.516261
  17 C      6.254942    8.849232    5.069850
  18 C      5.757173    7.493377    5.247320
  19 C      4.786400    4.777089    5.594876
  20 C      7.678670    9.100768    4.968484
  21 C      6.867832    6.618816    5.295596
  22 C      5.842980    3.945568    5.643750
  23 C      8.239437   10.470309    4.758564

Unit cell:
           periodic     x           y           z      points  spacing
  1. axis:    yes   16.000000    0.000000    0.000000    80     0.2000
  2. axis:    yes    0.000000   16.000000    0.000000    80     0.2000
  3. axis:    yes    0.000000    0.000000   10.000000    48     0.2083

Effective grid spacing dv^(1/3) = 0.2027

                     log10-error:    total        iterations:
           time      wfs    density  energy       fermi  poisson
iter:   1  10:44:12          +inf  -178.530300    3      5      
iter:   2  10:44:12         -2.33  -178.517704    3      1      
iter:   3  10:44:13         -2.44  -178.503825    3      2      
iter:   4  10:44:14         -2.81  -178.502508    2      1      
iter:   5  10:44:14         -2.86  -178.501468    2      2      
iter:   6  10:44:15         -3.04  -178.494767    3      1      
iter:   7  10:44:15         -3.14  -178.497460    2      1      
iter:   8  10:44:16         -3.31  -178.500212    2      1      
iter:   9  10:44:16         -3.52  -178.501553    2      1      
iter:  10  10:44:17         -3.66  -178.502762    2      1      
iter:  11  10:44:17         -3.79  -178.502547    2      1      
iter:  12  10:44:18         -3.86  -178.501547    2      1      
iter:  13  10:44:18         -4.10  -178.502395    2      1      

Converged after 13 iterations.

Dipole moment: (-0.091340, -0.284226, 0.033915) |e|*Ang

Energy contributions relative to reference atoms: (reference = -24663.074771)

Kinetic:       +107.423660
Potential:     -115.686833
External:        +0.000000
XC:            -173.063878
Entropy (-ST):   -0.360122
Local:           +3.004716
--------------------------
Free energy:   -178.682456
Extrapolated:  -178.502395

Fermi level: -4.55184

 Band  Eigenvalues  Occupancy
    0    -22.96644    2.00000
    1    -22.10319    2.00000
    2    -22.00093    2.00000
    3    -20.52852    2.00000
    4    -20.18350    2.00000
    5    -20.16818    2.00000
    6    -19.63321    2.00000
    7    -19.42784    2.00000
    8    -18.65430    2.00000
    9    -18.29417    2.00000
   10    -17.45052    2.00000
   11    -16.95598    2.00000
   12    -16.53505    2.00000
   13    -16.45453    2.00000
   14    -15.36413    2.00000
   15    -15.07043    2.00000
   16    -14.39322    2.00000
   17    -14.01205    2.00000
   18    -13.76371    2.00000
   19    -12.63549    2.00000
   20    -12.61763    2.00000
   21    -12.14969    2.00000
   22    -11.51720    2.00000
   23    -11.22670    2.00000
   24    -11.09907    2.00000
   25    -10.60833    2.00000
   26    -10.59232    2.00000
   27    -10.27425    2.00000
   28     -9.87851    2.00000
   29     -9.59236    2.00000
   30     -9.51397    2.00000
   31     -9.03311    2.00000
   32     -8.86603    2.00000
   33     -8.26156    2.00000
   34     -8.22589    2.00000
   35     -7.52752    2.00000
   36     -7.36353    2.00000
   37     -7.19767    2.00000
   38     -7.14827    2.00000
   39     -7.14138    2.00000
   40     -6.78057    2.00000
   41     -6.50572    2.00000
   42     -5.98271    2.00000
   43     -5.76345    1.99999
   44     -5.47827    1.99981
   45     -5.11073    1.99255
   46     -4.83936    1.89321
   47     -4.64705    1.44307
   48     -4.40035    0.36042
   49     -4.36257    0.26188
   50     -4.18357    0.04907
   51     -3.21976    0.00000
   52     -3.09536    0.00000
   53     -2.51206    0.00000
   54     -2.41271    0.00000
   55     -1.45579    0.00000
   56     -1.32927    0.00000
   57     -0.85851    0.00000
   58     -0.52169    0.00000
   59     -0.51787    0.00000
   60     -0.25770    0.00000
   61      0.88466    0.00000
   62      1.75052    0.00000
   63      1.84600    0.00000
   64      2.03951    0.00000
   65      2.66500    0.00000
   66      3.47251    0.00000
   67      3.81864    0.00000
   68      4.30801    0.00000
   69      4.41332    0.00000
   70      5.44210    0.00000
   71      5.50717    0.00000
   72      5.76132    0.00000
   73      5.78126    0.00000
   74      6.58981    0.00000
   75      6.71363    0.00000
   76      7.14547    0.00000
   77      7.45227    0.00000
   78      7.70637    0.00000
   79      7.75401    0.00000
   80      7.99176    0.00000
   81      8.17534    0.00000
   82      8.46542    0.00000
   83      8.57841    0.00000
   84      8.65893    0.00000
   85      8.82548    0.00000
   86      8.84402    0.00000
   87      9.12690    0.00000
   88      9.26388    0.00000
   89      9.26963    0.00000
   90      9.54385    0.00000
   91      9.61738    0.00000
   92      9.70640    0.00000
   93      9.93313    0.00000
   94     10.08580    0.00000
   95     10.18140    0.00000
   96     10.26964    0.00000
   97     10.29903    0.00000


Forces in eV/Ang:
  0 C    -0.21597    0.25689   -0.01894
  1 C    -0.47672    0.11120   -0.00361
  2 C    -0.24929    0.12674   -0.02462
  3 C    -0.31741    0.06092    0.00314
  4 C    -0.18908    0.20829   -0.01721
  5 C     0.22377    0.43412   -0.06024
  6 C     0.36017    0.45145   -0.05546
  7 C    -0.09897   -0.26553    0.02775
  8 C     0.86857    0.42201   -0.07322
  9 C     0.07653   -0.72501    0.09803
 10 C    -0.51489   -0.66551    0.09988
 11 C    -1.31400    0.29284    0.03271
 12 C     0.31126    0.04066   -0.02517
 13 C     0.43370   -0.24611    0.02188
 14 C     0.30968   -0.06948   -0.02977
 15 C     0.26887   -0.17769   -0.00526
 16 C     0.25542    0.01817   -0.00760
 17 C     0.10341    0.51438   -0.07053
 18 C     0.02206    0.58412   -0.06009
 19 C    -0.10548   -0.23583    0.04114
 20 C    -0.33494    0.84154   -0.09308
 21 C    -0.52851   -0.49628    0.08367
 22 C    -0.03172   -0.85326    0.08949
 23 C     1.17892   -0.63043    0.03764

System changes: positions 

Initializing position-dependent things.

Density initialized from wave functions
           .--------------------------------------.  
          /|                                      |  
         / |                                      |  
        /  |                                      |  
       /   |                                      |  
      /    |                                      |  
     /     |                                      |  
    /      |                                      |  
   /       |                                      |  
  /        |                                      |  
 *         |  C  C  C C  C  C  C                  |  
 |         |    C   C       C C   C               |  
 |         .---CC-----C-C---CC---CC---------------.  
 |        /       C C  C   C                     /   
 |       /                                      /    
 |      /                                      /     
 |     /                                      /      
 |    /                                      /       
 |   /                                      /        
 |  /                                      /         
 | /                                      /          
 |/                                      /           
 *--------------------------------------*            

Positions:
   0 C     11.742743    5.142891    5.339977
   1 C     11.962041    6.438198    5.177221
   2 C     11.392535    7.611989    5.044910
   3 C     10.325761    4.944189    5.395586
   4 C      9.556779    3.741877    5.555523
   5 C      9.955961    7.453208    5.097009
   6 C      9.438043    6.108174    5.273803
   7 C      8.349584    3.411607    5.624249
   8 C      9.067007    8.582607    4.979676
   9 C      8.030496    6.182603    5.304535
  10 C      7.004317    3.461652    5.657572
  11 C      9.557146    9.976178    4.768153
  12 C      3.395749    8.303679    5.276961
  13 C      4.092999    9.417341    5.119290
  14 C      5.298307    9.919523    4.998675
  15 C      4.326471    7.217097    5.349878
  16 C      4.101215    5.808686    5.514621
  17 C      6.269197    8.850700    5.068069
  18 C      5.765245    7.500261    5.246053
  19 C      4.787454    4.762021    5.597092
  20 C      7.684789    9.109756    4.967961
  21 C      6.868738    6.622787    5.296299
  22 C      5.829914    3.908209    5.648541
  23 C      8.245736   10.477537    4.757575

Unit cell:
           periodic     x           y           z      points  spacing
  1. axis:    yes   16.000000    0.000000    0.000000    80     0.2000
  2. axis:    yes    0.000000   16.000000    0.000000    80     0.2000
  3. axis:    yes    0.000000    0.000000   10.000000    48     0.2083

Effective grid spacing dv^(1/3) = 0.2027

                     log10-error:    total        iterations:
           time      wfs    density  energy       fermi  poisson
iter:   1  10:44:20          +inf  -178.679641    3      5      
iter:   2  10:44:21         -2.26  -178.648763    3      1      
iter:   3  10:44:21         -2.53  -178.641087    3      1      
iter:   4  10:44:22         -2.62  -178.640743    3      2      
iter:   5  10:44:22         -2.78  -178.626084    3      2      
iter:   6  10:44:23         -2.22  -178.623273    3      1      
iter:   7  10:44:23         -2.62  -178.632292    3      1      
iter:   8  10:44:24         -2.92  -178.632598    2      1      
iter:   9  10:44:24         -3.36  -178.629907    2      1      
iter:  10  10:44:25         -3.22  -178.634770    2      1      
iter:  11  10:44:25         -3.41  -178.635590    2      1      
iter:  12  10:44:26         -3.79  -178.634226    2      1      
iter:  13  10:44:26         -3.59  -178.634499    2      1      
iter:  14  10:44:27         -3.67  -178.634244    2      1      
iter:  15  10:44:27         -3.81  -178.634138    2      1      
iter:  16  10:44:28         -3.93  -178.634939    2      1      
iter:  17  10:44:28         -4.25  -178.634944    2      1      

Converged after 17 iterations.

Dipole moment: (-0.083384, -0.266111, 0.032638) |e|*Ang

Energy contributions relative to reference atoms: (reference = -24663.074771)

Kinetic:       +110.783553
Potential:     -118.284222
External:        +0.000000
XC:            -173.946646
Entropy (-ST):   -0.361203
Local:           +2.992972
--------------------------
Free energy:   -178.815546
Extrapolated:  -178.634944

Fermi level: -4.54300

 Band  Eigenvalues  Occupancy
    0    -23.02363    2.00000
    1    -22.14827    2.00000
    2    -22.04329    2.00000
    3    -20.51115    2.00000
    4    -20.19440    2.00000
    5    -20.17091    2.00000
    6    -19.64922    2.00000
    7    -19.45033    2.00000
    8    -18.66921    2.00000
    9    -18.29398    2.00000
   10    -17.45090    2.00000
   11    -16.97601    2.00000
   12    -16.52239    2.00000
   13    -16.49713    2.00000
   14    -15.37139    2.00000
   15    -15.07697    2.00000
   16    -14.42370    2.00000
   17    -14.04140    2.00000
   18    -13.74442    2.00000
   19    -12.66533    2.00000
   20    -12.63066    2.00000
   21    -12.18123    2.00000
   22    -11.52987    2.00000
   23    -11.26466    2.00000
   24    -11.10660    2.00000
   25    -10.64733    2.00000
   26    -10.64382    2.00000
   27    -10.32315    2.00000
   28     -9.90917    2.00000
   29     -9.60536    2.00000
   30     -9.52752    2.00000
   31     -9.00586    2.00000
   32     -8.86067    2.00000
   33     -8.26140    2.00000
   34     -8.22989    2.00000
   35     -7.51444    2.00000
   36     -7.36909    2.00000
   37     -7.19595    2.00000
   38     -7.16033    2.00000
   39     -7.14045    2.00000
   40     -6.77059    2.00000
   41     -6.51813    2.00000
   42     -5.98994    2.00000
   43     -5.74950    1.99999
   44     -5.49879    1.99986
   45     -5.09709    1.99218
   46     -4.83897    1.90144
   47     -4.63548    1.43206
   48     -4.38936    0.35411
   49     -4.35406    0.26264
   50     -4.19140    0.05772
   51     -3.12143    0.00000
   52     -3.08115    0.00000
   53     -2.50274    0.00000
   54     -2.41689    0.00000
   55     -1.43931    0.00000
   56     -1.31622    0.00000
   57     -0.79216    0.00000
   58     -0.50172    0.00000
   59     -0.49775    0.00000
   60     -0.28691    0.00000
   61      0.77948    0.00000
   62      1.77890    0.00000
   63      1.87653    0.00000
   64      2.06826    0.00000
   65      2.79350    0.00000
   66      3.47747    0.00000
   67      3.86740    0.00000
   68      4.35576    0.00000
   69      4.50846    0.00000
   70      5.50267    0.00000
   71      5.54703    0.00000
   72      5.84401    0.00000
   73      5.86361    0.00000
   74      6.66732    0.00000
   75      6.78650    0.00000
   76      7.17221    0.00000
   77      7.44473    0.00000
   78      7.72511    0.00000
   79      7.79498    0.00000
   80      7.98351    0.00000
   81      8.24938    0.00000
   82      8.50557    0.00000
   83      8.57802    0.00000
   84      8.72618    0.00000
   85      8.87394    0.00000
   86      8.91385    0.00000
   87      9.16183    0.00000
   88      9.26384    0.00000
   89      9.31934    0.00000
   90      9.56488    0.00000
   91      9.61541    0.00000
   92      9.74649    0.00000
   93      9.97322    0.00000
   94     10.08921    0.00000
   95     10.18680    0.00000
   96     10.27206    0.00000
   97     10.29064    0.00000


Forces in eV/Ang:
  0 C    -0.16952    0.18497   -0.00257
  1 C    -0.43660    0.08605   -0.01195
  2 C     0.02417    0.26633   -0.05039
  3 C    -0.22580    0.06635   -0.00852
  4 C    -0.14129    0.10055    0.00884
  5 C     0.30845    0.39305   -0.05026
  6 C     0.18921    0.37293   -0.03779
  7 C    -0.10257   -0.25543    0.02821
  8 C     0.73514    0.35488   -0.08102
  9 C    -0.22479   -0.69160    0.09993
 10 C    -0.40550   -0.59298    0.09216
 11 C    -1.16606    0.27345    0.03040
 12 C     0.23292    0.00486   -0.01912
 13 C     0.39600   -0.23738    0.00414
 14 C     0.12809    0.22030   -0.05127
 15 C     0.18569   -0.11277   -0.01256
 16 C     0.17989   -0.05940   -0.01225
 17 C     0.05050    0.48279   -0.05209
 18 C     0.10376    0.39985   -0.04423
 19 C    -0.04543   -0.23519    0.03516
 20 C    -0.26328    0.72512   -0.08810
 21 C    -0.29196   -0.66242    0.08966
 22 C    -0.12237   -0.68789    0.08652
 23 C     1.04625   -0.57386    0.04579

System changes: positions 

Initializing position-dependent things.

Density initialized from wave functions
           .--------------------------------------.  
          /|                                      |  
         / |                                      |  
        /  |                                      |  
       /   |                                      |  
      /    |                                      |  
     /     |                                      |  
    /      |                                      |  
   /       |                                      |  
  /        |                                      |  
 *         |  C  C  C C  C  C  C                  |  
 |         |    C   C       C C  C                |  
[...]

Energy contributions relative to reference atoms: (reference = -24663.074771)

Kinetic:       +109.844154
Potential:     -117.915192
External:        +0.000000
XC:            -173.970639
Entropy (-ST):   -0.312830
Local:           +2.976616
--------------------------
Free energy:   -179.377892
Extrapolated:  -179.221477

Fermi level: -4.58365

 Band  Eigenvalues  Occupancy
    0    -23.14938    2.00000
    1    -22.18919    2.00000
    2    -22.14299    2.00000
    3    -20.46267    2.00000
    4    -20.16630    2.00000
    5    -20.12935    2.00000
    6    -19.55954    2.00000
    7    -19.53161    2.00000
    8    -18.76346    2.00000
    9    -18.29936    2.00000
   10    -17.54893    2.00000
   11    -16.99098    2.00000
   12    -16.63762    2.00000
   13    -16.45119    2.00000
   14    -15.36776    2.00000
   15    -15.00627    2.00000
   16    -14.48046    2.00000
   17    -14.16042    2.00000
   18    -13.64118    2.00000
   19    -12.74534    2.00000
   20    -12.58975    2.00000
   21    -12.21433    2.00000
   22    -11.52756    2.00000
   23    -11.22780    2.00000
   24    -11.13800    2.00000
   25    -10.69928    2.00000
   26    -10.69453    2.00000
   27    -10.46346    2.00000
   28     -9.93824    2.00000
   29     -9.68711    2.00000
   30     -9.58906    2.00000
   31     -8.93287    2.00000
   32     -8.84008    2.00000
   33     -8.29247    2.00000
   34     -8.19403    2.00000
   35     -7.47155    2.00000
   36     -7.31365    2.00000
   37     -7.18070    2.00000
   38     -7.13668    2.00000
   39     -7.05250    2.00000
   40     -6.88539    2.00000
   41     -6.61428    2.00000
   42     -6.06364    2.00000
   43     -5.82534    1.99999
   44     -5.60261    1.99992
   45     -5.09669    1.98824
   46     -4.92956    1.93900
   47     -4.70408    1.53857
   48     -4.41250    0.30594
   49     -4.34542    0.16906
   50     -4.23479    0.05927
   51     -3.02278    0.00000
   52     -2.77044    0.00000
   53     -2.25033    0.00000
   54     -2.19571    0.00000
   55     -1.43102    0.00000
   56     -1.36389    0.00000
   57     -0.95450    0.00000
   58     -0.50986    0.00000
   59     -0.49180    0.00000
   60     -0.46381    0.00000
   61      0.00743    0.00000
   62      1.84298    0.00000
   63      1.86847    0.00000
   64      2.07308    0.00000
   65      3.17450    0.00000
   66      3.18670    0.00000
   67      3.88659    0.00000
   68      4.26226    0.00000
   69      5.27499    0.00000
   70      5.45161    0.00000
   71      5.48845    0.00000
   72      5.78537    0.00000
   73      6.02607    0.00000
   74      6.53737    0.00000
   75      6.59026    0.00000
   76      6.98420    0.00000
   77      6.99840    0.00000
   78      7.51569    0.00000
   79      7.82925    0.00000
   80      7.99093    0.00000
   81      8.29588    0.00000
   82      8.39052    0.00000
   83      8.53316    0.00000
   84      8.77903    0.00000
   85      8.87467    0.00000
   86      8.98130    0.00000
   87      9.26274    0.00000
   88      9.40043    0.00000
   89      9.44420    0.00000
   90      9.61047    0.00000
   91      9.62608    0.00000
   92      9.85646    0.00000
   93      9.90214    0.00000
   94     10.07955    0.00000
   95     10.09341    0.00000
   96     10.23267    0.00000
   97     10.27496    0.00000


Forces in eV/Ang:
  0 C     0.05958   -0.06660   -0.00605
  1 C     0.00175   -0.01259   -0.00947
  2 C     0.04356    0.02477    0.00140
  3 C    -0.00200   -0.01690   -0.00562
  4 C    -0.00765    0.03293    0.00471
  5 C     0.01540    0.05045   -0.00066
  6 C    -0.00112    0.01287    0.00257
  7 C    -0.08748   -0.03870    0.01074
  8 C    -0.00541    0.00259    0.00477
  9 C    -0.02098   -0.00641    0.00077
 10 C     0.01454    0.03068   -0.00553
 11 C    -0.09725   -0.03084   -0.00990
 12 C    -0.10744    0.00039   -0.00392
 13 C    -0.02622   -0.01964   -0.00063
 14 C    -0.02524    0.04090   -0.00713
 15 C    -0.01294    0.00797    0.00896
 16 C     0.03839   -0.02103    0.00400
 17 C     0.01325    0.03992   -0.01742
 18 C     0.01156    0.02602   -0.01631
 19 C     0.00960   -0.03689    0.00734
 20 C     0.01497    0.01551   -0.00315
 21 C     0.00732    0.01450   -0.01263
 22 C     0.04071    0.01953   -0.01789
 23 C     0.04396   -0.05449    0.05061

System changes: positions 

Initializing position-dependent things.

Density initialized from wave functions
           .--------------------------------------.  
          /|                                      |  
         / |                                      |  
        /  |                                      |  
       /   |                                      |  
      /    |                                      |  
     /     |                                      |  
    /      |                                      |  
   /       |                                      |  
  /        |                                      |  
 *         |     C  C C   C C  C                  |  
 |         |   CC   C        CC   C               |  
 |         .---CC-----C-C---CC---CC---------------.  
 |        /      C  C  C  C                      /   
 |       /                                      /    
 |      /                                      /     
 |     /                                      /      
 |    /                                      /       
 |   /                                      /        
 |  /                                      /         
 | /                                      /          
 |/                                      /           
 *--------------------------------------*            

Positions:
   0 C     11.640930    5.182204    5.333025
   1 C     11.872323    6.471780    5.173683
   2 C     11.397577    7.691669    5.028111
   3 C     10.223375    4.988571    5.392162
   4 C      9.414637    3.801771    5.551253
   5 C      9.955129    7.541787    5.088270
   6 C      9.405015    6.185977    5.270455
   7 C      8.259417    3.319369    5.637909
   8 C      9.109710    8.688433    4.963635
   9 C      8.010938    6.140150    5.315758
  10 C      6.902602    3.189898    5.694006
  11 C      9.574827   10.094313    4.758066
  12 C      3.502012    8.264767    5.273672
  13 C      4.180110    9.383787    5.112859
  14 C      5.345555    9.984503    4.979672
  15 C      4.434621    7.179981    5.346880
  16 C      4.246589    5.757539    5.513769
  17 C      6.325939    8.916345    5.054729
  18 C      5.840237    7.537233    5.239797
  19 C      4.800272    4.635386    5.616799
  20 C      7.720622    9.215827    4.952066
  21 C      6.854142    6.580682    5.305202
  22 C      5.725810    3.635883    5.686690
  23 C      8.309555   10.575700    4.755635

Unit cell:
           periodic     x           y           z      points  spacing
  1. axis:    yes   16.000000    0.000000    0.000000    80     0.2000
  2. axis:    yes    0.000000   16.000000    0.000000    80     0.2000
  3. axis:    yes    0.000000    0.000000   10.000000    48     0.2083

Effective grid spacing dv^(1/3) = 0.2027

                     log10-error:    total        iterations:
           time      wfs    density  energy       fermi  poisson
iter:   1  10:46:17          +inf  -179.249707    2      4      
iter:   2  10:46:17         -2.36  -179.224451    3      1      
iter:   3  10:46:18         -3.06  -179.220110    2      1      
iter:   4  10:46:18         -3.19  -179.226328    3      1      
iter:   5  10:46:19         -3.01  -179.222696    2      1      
iter:   6  10:46:19         -3.53  -179.221729    2      1      
iter:   7  10:46:20         -3.37  -179.223464    2      1      
iter:   8  10:46:20         -3.69  -179.222035    2      1      
iter:   9  10:46:21         -3.62  -179.222438    2      1      
iter:  10  10:46:21         -4.14  -179.222228    2      1      

Converged after 10 iterations.

Dipole moment: (-0.093063, -0.266918, 0.032059) |e|*Ang

Energy contributions relative to reference atoms: (reference = -24663.074771)

Kinetic:       +109.342011
Potential:     -117.524633
External:        +0.000000
XC:            -173.854401
Entropy (-ST):   -0.312486
Local:           +2.971038
--------------------------
Free energy:   -179.378471
Extrapolated:  -179.222228

Fermi level: -4.58470

 Band  Eigenvalues  Occupancy
    0    -23.15620    2.00000
    1    -22.17509    2.00000
    2    -22.13430    2.00000
    3    -20.46796    2.00000
    4    -20.16323    2.00000
    5    -20.12674    2.00000
    6    -19.56009    2.00000
    7    -19.52258    2.00000
    8    -18.76743    2.00000
    9    -18.29724    2.00000
   10    -17.54693    2.00000
   11    -16.99388    2.00000
   12    -16.63169    2.00000
   13    -16.45799    2.00000
   14    -15.36582    2.00000
   15    -15.00461    2.00000
   16    -14.47284    2.00000
   17    -14.15921    2.00000
   18    -13.65122    2.00000
   19    -12.73858    2.00000
   20    -12.58855    2.00000
   21    -12.21014    2.00000
   22    -11.52195    2.00000
   23    -11.22027    2.00000
   24    -11.13440    2.00000
   25    -10.69459    2.00000
   26    -10.68973    2.00000
   27    -10.46115    2.00000
   28     -9.92851    2.00000
   29     -9.68718    2.00000
   30     -9.59035    2.00000
   31     -8.94492    2.00000
   32     -8.85097    2.00000
   33     -8.28698    2.00000
   34     -8.19451    2.00000
   35     -7.47664    2.00000
   36     -7.30789    2.00000
   37     -7.18146    2.00000
   38     -7.13288    2.00000
   39     -7.04816    2.00000
   40     -6.88446    2.00000
   41     -6.61597    2.00000
   42     -6.06183    2.00000
   43     -5.83025    1.99999
   44     -5.60309    1.99992
   45     -5.09698    1.98815
   46     -4.92639    1.93646
   47     -4.70639    1.54306
   48     -4.41146    0.30057
   49     -4.35203    0.17787
   50     -4.22620    0.05398
   51     -3.02869    0.00000
   52     -2.78057    0.00000
   53     -2.25147    0.00000
   54     -2.19351    0.00000
   55     -1.43260    0.00000
   56     -1.36465    0.00000
   57     -0.96024    0.00000
   58     -0.52057    0.00000
   59     -0.49188    0.00000
   60     -0.46857    0.00000
   61      0.02716    0.00000
   62      1.83884    0.00000
   63      1.87254    0.00000
   64      2.06857    0.00000
   65      3.14215    0.00000
   66      3.20999    0.00000
   67      3.87272    0.00000
   68      4.26500    0.00000
   69      5.26371    0.00000
   70      5.44420    0.00000
   71      5.48376    0.00000
   72      5.76607    0.00000
   73      6.02592    0.00000
   74      6.53916    0.00000
   75      6.57702    0.00000
   76      6.98356    0.00000
   77      6.99664    0.00000
   78      7.52893    0.00000
   79      7.83717    0.00000
   80      7.99076    0.00000
   81      8.28520    0.00000
   82      8.38276    0.00000
   83      8.53363    0.00000
   84      8.77790    0.00000
   85      8.86483    0.00000
   86      8.97559    0.00000
   87      9.26027    0.00000
   88      9.39883    0.00000
   89      9.43852    0.00000
   90      9.60784    0.00000
   91      9.62819    0.00000
   92      9.84662    0.00000
   93      9.89571    0.00000
   94     10.07509    0.00000
   95     10.09540    0.00000
   96     10.23961    0.00000
   97     10.27192    0.00000


Forces in eV/Ang:
  0 C     0.03348    0.03754   -0.01814
  1 C    -0.01262   -0.10249    0.00217
  2 C    -0.00931   -0.00026    0.00551
  3 C     0.00594    0.01475   -0.00601
  4 C    -0.04512    0.01941    0.00593
  5 C    -0.00678   -0.00371    0.01037
  6 C    -0.01276    0.01764   -0.00056
  7 C     0.08109    0.00512    0.00174
  8 C    -0.01838   -0.01554    0.00858
  9 C    -0.00632    0.02546   -0.00254
 10 C    -0.05311   -0.01156    0.00009
 11 C     0.01445    0.02175   -0.02732
 12 C    -0.01978    0.02456   -0.00884
 13 C    -0.02948   -0.05297    0.00430
 14 C    -0.02409   -0.02272    0.00017
 15 C    -0.00266    0.02773    0.00314
 16 C     0.05321   -0.03399    0.00589
 17 C     0.00161    0.03372   -0.01932
 18 C    -0.01888    0.02081   -0.01284
 19 C    -0.04725    0.05757   -0.00233
 20 C     0.00048   -0.01128    0.00520
 21 C     0.03900    0.02125   -0.01439
 22 C     0.01000   -0.02413   -0.00963
 23 C    -0.00700    0.05423    0.04568

System changes: positions 

Initializing position-dependent things.

Density initialized from wave functions
           .--------------------------------------.  
          /|                                      |  
         / |                                      |  
        /  |                                      |  
       /   |                                      |  
      /    |                                      |  
     /     |                                      |  
    /      |                                      |  
   /       |                                      |  
  /        |                                      |  
 *         |     C  C C   C C  C                  |  
 |         |   CC   C        CC   C               |  
 |         .---CC-----C-C---CC---CC---------------.  
 |        /      C  C  C  C                      /   
 |       /                                      /    
 |      /                                      /     
 |     /                                      /      
 |    /                                      /       
 |   /                                      /        
 |  /                                      /         
 | /                                      /          
 |/                                      /           
 *--------------------------------------*            

Positions:
   0 C     11.640695    5.182297    5.332651
   1 C     11.871901    6.470938    5.173537
   2 C     11.397370    7.691456    5.028211
   3 C     10.222607    4.988915    5.392117
   4 C      9.413339    3.802475    5.551320
   5 C      9.954933    7.542683    5.088357
   6 C      9.404804    6.186821    5.270468
   7 C      8.258969    3.318235    5.638103
   8 C      9.109693    8.689369    4.963585
   9 C      8.011035    6.141010    5.315644
  10 C      6.901700    3.188061    5.694222
  11 C      9.574954   10.095490    4.757635
  12 C      3.502021    8.264565    5.273526
  13 C      4.179917    9.383122    5.112762
  14 C      5.345256    9.984183    4.979585
  15 C      4.435292    7.179926    5.346955
  16 C      4.248046    5.756925    5.513851
  17 C      6.326532    8.917212    5.054296
  18 C      5.840576    7.537980    5.239480
  19 C      4.799938    4.634495    5.617068
  20 C      7.721164    9.216746    4.951932
  21 C      6.854719    6.581695    5.304792
  22 C      5.725161    3.633913    5.686736
  23 C      8.310003   10.577162    4.756591

Unit cell:
           periodic     x           y           z      points  spacing
  1. axis:    yes   16.000000    0.000000    0.000000    80     0.2000
  2. axis:    yes    0.000000   16.000000    0.000000    80     0.2000
  3. axis:    yes    0.000000    0.000000   10.000000    48     0.2083

Effective grid spacing dv^(1/3) = 0.2027

                     log10-error:    total        iterations:
           time      wfs    density  energy       fermi  poisson
iter:   1  10:46:23          +inf  -179.221517    2      4      
iter:   2  10:46:24         -3.28  -179.222846    2      1      
iter:   3  10:46:24         -3.62  -179.223040    2      1      
iter:   4  10:46:25         -3.69  -179.221907    2      1      
iter:   5  10:46:25         -3.79  -179.223234    2      1      
iter:   6  10:46:26         -3.59  -179.222378    2      1      
iter:   7  10:46:26         -4.27  -179.222006    2      1      

Converged after 7 iterations.

Dipole moment: (-0.092298, -0.265804, 0.031828) |e|*Ang

Energy contributions relative to reference atoms: (reference = -24663.074771)

Kinetic:       +109.384240
Potential:     -117.569196
External:        +0.000000
XC:            -173.868597
Entropy (-ST):   -0.313478
Local:           +2.988286
--------------------------
Free energy:   -179.378745
Extrapolated:  -179.222006

Fermi level: -4.58496

 Band  Eigenvalues  Occupancy
    0    -23.15927    2.00000
    1    -22.17456    2.00000
    2    -22.13458    2.00000
    3    -20.46604    2.00000
    4    -20.16437    2.00000
    5    -20.12439    2.00000
    6    -19.55879    2.00000
    7    -19.52397    2.00000
    8    -18.76586    2.00000
    9    -18.29865    2.00000
   10    -17.54670    2.00000
   11    -16.99298    2.00000
   12    -16.63562    2.00000
   13    -16.45545    2.00000
   14    -15.36560    2.00000
   15    -15.00450    2.00000
   16    -14.47548    2.00000
   17    -14.15829    2.00000
   18    -13.64971    2.00000
   19    -12.73969    2.00000
   20    -12.58716    2.00000
   21    -12.20972    2.00000
   22    -11.52037    2.00000
   23    -11.22060    2.00000
   24    -11.13362    2.00000
   25    -10.69661    2.00000
   26    -10.69137    2.00000
   27    -10.46217    2.00000
   28     -9.92783    2.00000
   29     -9.68791    2.00000
   30     -9.59266    2.00000
   31     -8.94278    2.00000
   32     -8.84989    2.00000
   33     -8.28784    2.00000
   34     -8.19313    2.00000
   35     -7.47527    2.00000
   36     -7.30868    2.00000
   37     -7.18056    2.00000
   38     -7.13256    2.00000
   39     -7.04847    2.00000
   40     -6.88618    2.00000
   41     -6.61474    2.00000
   42     -6.06392    2.00000
   43     -5.83392    1.99999
   44     -5.60278    1.99992
   45     -5.09702    1.98813
   46     -4.92642    1.93632
   47     -4.70594    1.54054
   48     -4.41320    0.30438
   49     -4.35040    0.17484
   50     -4.23001    0.05588
   51     -3.02722    0.00000
   52     -2.77367    0.00000
   53     -2.24787    0.00000
   54     -2.19095    0.00000
   55     -1.43112    0.00000
   56     -1.36548    0.00000
   57     -0.95701    0.00000
   58     -0.51855    0.00000
   59     -0.49192    0.00000
   60     -0.46762    0.00000
   61      0.02225    0.00000
   62      1.84079    0.00000
   63      1.87207    0.00000
   64      2.07190    0.00000
   65      3.14486    0.00000
   66      3.20171    0.00000
   67      3.87427    0.00000
   68      4.26547    0.00000
   69      5.26554    0.00000
   70      5.44235    0.00000
   71      5.48523    0.00000
   72      5.76883    0.00000
   73      6.02423    0.00000
   74      6.53786    0.00000
   75      6.57740    0.00000
   76      6.97954    0.00000
   77      6.99367    0.00000
   78      7.52437    0.00000
   79      7.83940    0.00000
   80      7.98858    0.00000
   81      8.28584    0.00000
   82      8.38650    0.00000
   83      8.53352    0.00000
   84      8.77982    0.00000
   85      8.86376    0.00000
   86      8.97684    0.00000
   87      9.26004    0.00000
   88      9.40018    0.00000
   89      9.43873    0.00000
   90      9.60746    0.00000
   91      9.62876    0.00000
   92      9.84262    0.00000
   93      9.89630    0.00000
   94     10.07404    0.00000
   95     10.09560    0.00000
   96     10.23914    0.00000
   97     10.27071    0.00000


Forces in eV/Ang:
  0 C     0.02669   -0.02968   -0.00917
  1 C    -0.00984   -0.03701   -0.00774
  2 C     0.00800    0.01571    0.00263
  3 C     0.01676    0.02248   -0.00800
  4 C    -0.03799    0.01969    0.00584
  5 C     0.00720   -0.00882    0.01220
  6 C    -0.00289    0.00600    0.00155
  7 C     0.06798    0.00700    0.00117
  8 C    -0.02271   -0.04118    0.01311
  9 C     0.01101    0.00921   -0.00105
 10 C    -0.01722   -0.01330   -0.00057
 11 C    -0.03061   -0.03582   -0.02325
 12 C    -0.05266   -0.01188   -0.00149
 13 C    -0.01296   -0.02340    0.00086
 14 C    -0.01510    0.01109   -0.00405
 15 C    -0.00396    0.02739    0.00172
 16 C     0.03460    0.01701    0.00177
 17 C    -0.01380    0.03334   -0.01858
 18 C    -0.01343    0.01441   -0.01215
 19 C    -0.02275    0.01567   -0.00007
 20 C    -0.01252   -0.03128    0.00820
 21 C     0.00302    0.02885   -0.01173
 22 C    -0.01269   -0.00161   -0.01235
 23 C     0.00071   -0.02938    0.05920

