
  ___ ___ ___ _ _ _  
 |   |   |_  | | | | 
 | | | | | . | | | | 
 |__ |  _|___|_____|  1.3.0b1
 |___|_|             

User:   esb@s65n31.grendel.cscaa.dk
Date:   Thu Nov  9 09:32:27 2017
Arch:   x86_64
Pid:    15641
Python: 2.7.13
gpaw:   /home/esb/DFT/gpaw_git/gpaw
_gpaw:  /home/esb/DFT/gpaw_git/build/bin.linux-x86_64-2.7/gpaw-python
ase:    /home/esb/DFT/ase_git/ase (version 3.15.0b1)
numpy:  /comm/swstack/core/python/2.7.13/lib/python2.7/site-packages/numpy (version 1.13.3)
scipy:  /comm/swstack/core/python/2.7.13/lib/python2.7/site-packages/scipy (version 0.19.1)
units:  Angstrom and eV
cores:  16
Extra parameters: {'blacs': True}

Input parameters:
  basis: dzp
  gpts: [80 80 48]
  kpts: [1 1 1]
  maxiter: 99
  mixer: {backend: pulay,
          beta: 0.05,
          method: separate,
          nmaxold: 5,
          weight: 75}
  mode: lcao
  nbands: -50
  occupations: {name: fermi-dirac,
                width: 0.1}
  poissonsolver: {eps: 1e-07,
                  name: fd,
                  nn: 3,
                  relax: GS}
  xc: PBE

System changes: positions, numbers, cell, pbc, initial_charges, initial_magmoms 

Initialize ...

C-setup:
  name: Carbon
  id: 4aa54d4b901d75f77cc0ea3eec22967b
  Z: 6
  valence: 4
  core: 2
  charge: 0.0
  file: /home/esb/DFT/gpaw-setups-0.8.7929/C.PBE.gz
  cutoffs: 0.64(comp), 1.14(filt), 1.14(core), lmax=2
  valence states:
                energy  radius
    2s(2.00)   -13.751   0.635
    2p(2.00)    -5.284   0.635
    *s          13.461   0.635
    *p          21.927   0.635
    *d           0.000   0.635

  LCAO basis set for C:
    Name: dzp
    File: /home/esb/DFT/gpaw-setups-0.8.7929/C.dzp.basis.gz
    Number of radial functions: 5
    Number of spherical harmonics: 13
      l=0, rc=5.5469 Bohr: 2s-sz confined orbital
      l=1, rc=6.6719 Bohr: 2p-sz confined orbital
      l=0, rc=3.0312 Bohr: 2s-dz split-valence wave
      l=1, rc=3.7500 Bohr: 2p-dz split-valence wave
      l=2, rc=6.6719 Bohr: d-type Gaussian polarization

Reference energy: -24663.074771

Spin-paired calculation

Occupation numbers:
  Fermi-Dirac: width=0.1000 eV

Convergence criteria:
  Maximum total energy change: 0.0005 eV / electron
  Maximum integral of absolute density change: 0.0001 electrons
  Maximum integral of absolute eigenstate change: 4e-08 eV^2
  Maximum number of iterations: 99

Symmetries present (total): 1

  ( 1  0  0)
  ( 0  1  0)
  ( 0  0  1)

1 k-point (Gamma)
1 k-point in the irreducible part of the Brillouin zone
       k-points in crystal coordinates                weights
   0:     0.00000000    0.00000000    0.00000000          1/1

Wave functions: LCAO
  Diagonalizer: Serial LAPACK
  Atomic Correction: dense with blas
  Datatype: float
  Eigensolver: None 

LCAO using direct dense diagonalizer 

Densities:
  Coarse grid: 80*80*48 grid
  Fine grid: 160*160*96 grid
  Total Charge: 0.000000 

Density mixing:
  Method: separate
  Backend: pulay
  Linear mixing parameter: 0.05
  Mixing with 5 old densities
  Damping of long wave oscillations: 75 

Hamiltonian:
  XC and Coulomb potentials evaluated on a 160*160*96 grid
  Using the PBE Exchange-Correlation functional
  Interpolation: tri-quintic (5. degree polynomial)
  Poisson solver: Gauss-Seidel solver with 6 multi-grid levels
    Coarsest grid: 5 x 5 x 3 points
    Stencil: 6*3+1=19 point O(h^6) finite-difference Laplacian
    Max iterations: 1000
    Tolerance: 1.000000e-07 

Memory estimate:
  Process memory now: 77.57 MiB
  Calculator: 15.59 MiB
    Density: 6.13 MiB
      Arrays: 3.81 MiB
      Localized functions: 0.86 MiB
      Mixer: 1.46 MiB
    Hamiltonian: 5.40 MiB
      Arrays: 2.49 MiB
      XC: 0.00 MiB
      Poisson: 2.85 MiB
      vbar: 0.07 MiB
    Wavefunctions: 4.05 MiB
      C [qnM]: 0.23 MiB
      S, T [2 x qmm]: 1.49 MiB
      P [aqMi]: 0.01 MiB
      TCI: 0.00 MiB
      BasisFunctions: 2.33 MiB
      Eigensolver: 0.00 MiB

Total number of cores used: 16
Domain decomposition: 2 x 4 x 2

Number of atoms: 24
Number of atomic orbitals: 312
Number of bands in calculation: 98
Bands to converge: occupied states only
Number of valence electrons: 96

... initialized

Initializing position-dependent things.

Density initialized from atomic densities
           .--------------------------------------.  
          /|                                      |  
         / |                                      |  
        /  |                                      |  
       /   |                                      |  
      /    |                                      |  
     /     |                                      |  
    /      |                                      |  
   /       |            C                         |  
  /        |         C   C                        |  
 *         |      C       C     C  C              |  
 |         |      C   C  C C        C             |  
 |         .-----C------C----C-C---C--------------.  
 |        /      C C   C  C  C                   /   
 |       /         C                            /    
 |      /             C                        /     
 |     /                                      /      
 |    /                                      /       
 |   /                                      /        
 |  /                                      /         
 | /                                      /          
 |/                                      /           
 *--------------------------------------*            

Positions:
   0 C      6.274730    4.533318    4.862656
   1 C      7.567119    5.330725    4.779731
   2 C      5.116442    5.281668    4.997692
   3 C      7.906437    3.027591    4.639161
   4 C      6.640152    3.162008    4.770322
   5 C      4.732581    6.472788    5.059918
   6 C      7.625917    6.738184    4.833321
   7 C      6.612039    7.816023    4.912455
   8 C      5.165539    7.814661    5.019131
   9 C      7.656935   10.241733    4.775335
  10 C      7.654213    8.858196    4.828001
  11 C      6.312542   12.498341    4.745992
  12 C      5.041381   12.134258    4.838565
  13 C      8.701647    7.859182    4.774697
  14 C      7.079111   11.370885    4.744714
  15 C     12.064704    7.009948    5.090786
  16 C     12.027224    8.314764    5.034292
  17 C     10.200646    9.828596    4.916491
  18 C     10.351991    4.966336    4.940739
  19 C     10.814364    6.323872    5.012344
  20 C      9.628146    7.171908    5.001978
  21 C      9.171731    4.515423    4.816799
  22 C     11.575147    9.549582    5.005885
  23 C      4.574548    9.445945    4.913698

Unit cell:
           periodic     x           y           z      points  spacing
  1. axis:    yes   16.000000    0.000000    0.000000    80     0.2000
  2. axis:    yes    0.000000   16.000000    0.000000    80     0.2000
  3. axis:    yes    0.000000    0.000000   10.000000    48     0.2083

Effective grid spacing dv^(1/3) = 0.2027

                     log10-error:    total        iterations:
           time      wfs    density  energy       fermi  poisson
iter:   1  09:32:28          +inf  -173.727988    2      6      
iter:   2  09:32:29         -0.86  -171.900378    3      3      
iter:   3  09:32:30         -0.90  -173.084808    2      4      
iter:   4  09:32:30         -0.94  -172.840634    3      2      
iter:   5  09:32:31         -0.94  -171.822368    3      2      
iter:   6  09:32:31         -0.95  -170.221480    33     3      
iter:   7  09:32:32         -1.14  -170.345971    3      3      
iter:   8  09:32:32         -1.21  -168.728552    3      3      
iter:   9  09:32:33         -1.37  -167.661985    4      3      
iter:  10  09:32:33         -1.55  -167.752927    3      3      
iter:  11  09:32:34         -1.60  -167.660861    3      3      
iter:  12  09:32:34         -1.70  -167.521260    3      2      
iter:  13  09:32:35         -1.90  -167.473396    3      2      
iter:  14  09:32:35         -2.04  -167.503016    3      2      
iter:  15  09:32:36         -2.06  -167.457406    3      2      
iter:  16  09:32:36         -2.36  -167.444713    3      2      
iter:  17  09:32:37         -2.61  -167.447651    2      2      
iter:  18  09:32:37         -2.60  -167.444137    2      2      
iter:  19  09:32:38         -2.82  -167.442316    2      2      
iter:  20  09:32:38         -2.97  -167.443623    2      2      
iter:  21  09:32:39         -3.31  -167.445531    2      1      
iter:  22  09:32:39         -3.37  -167.445465    2      1      
iter:  23  09:32:39         -3.42  -167.445346    2      1      
iter:  24  09:32:40         -3.49  -167.445228    2      1      
iter:  25  09:32:40         -3.61  -167.441662    2      1      
iter:  26  09:32:41         -3.69  -167.438269    2      1      
iter:  27  09:32:41         -4.05  -167.443008    2      1      

Converged after 27 iterations.

Dipole moment: (0.051714, -0.173867, 0.034351) |e|*Ang

Energy contributions relative to reference atoms: (reference = -24663.074771)

Kinetic:       +101.113696
Potential:     -109.586726
External:        +0.000000
XC:            -161.711934
Entropy (-ST):   -0.238839
Local:           +2.861376
--------------------------
Free energy:   -167.562427
Extrapolated:  -167.443008

Fermi level: -4.67792

 Band  Eigenvalues  Occupancy
    0    -23.95458    2.00000
    1    -21.86374    2.00000
    2    -21.63658    2.00000
    3    -20.79753    2.00000
    4    -20.36552    2.00000
    5    -20.15750    2.00000
    6    -19.80274    2.00000
    7    -18.98146    2.00000
    8    -18.62138    2.00000
    9    -18.58155    2.00000
   10    -17.88448    2.00000
   11    -16.93180    2.00000
   12    -16.35142    2.00000
   13    -15.94160    2.00000
   14    -14.74057    2.00000
   15    -14.33265    2.00000
   16    -14.30226    2.00000
   17    -13.72850    2.00000
   18    -13.04936    2.00000
   19    -12.90593    2.00000
   20    -12.65312    2.00000
   21    -12.30910    2.00000
   22    -12.00497    2.00000
   23    -11.48837    2.00000
   24    -11.30017    2.00000
   25    -10.81546    2.00000
   26    -10.23302    2.00000
   27     -9.83360    2.00000
   28     -9.44554    2.00000
   29     -8.75227    2.00000
   30     -8.72902    2.00000
   31     -8.47317    2.00000
   32     -8.43862    2.00000
   33     -8.41116    2.00000
   34     -8.03073    2.00000
   35     -7.74900    2.00000
   36     -7.57828    2.00000
   37     -7.34160    2.00000
   38     -6.80545    2.00000
   39     -6.74272    2.00000
   40     -6.28022    2.00000
   41     -6.16990    2.00000
   42     -5.95447    1.99999
   43     -5.86563    1.99999
   44     -5.72816    1.99995
   45     -5.28189    1.99525
   46     -5.01453    1.93325
   47     -4.85294    1.70397
   48     -4.49722    0.28200
   49     -4.32604    0.05757
   50     -4.25209    0.02790
   51     -3.72619    0.00015
   52     -3.07854    0.00000
   53     -2.96502    0.00000
   54     -2.63583    0.00000
   55     -2.49071    0.00000
   56     -2.21391    0.00000
   57     -1.72335    0.00000
   58     -1.58418    0.00000
   59     -1.30560    0.00000
   60     -1.02097    0.00000
   61     -0.35141    0.00000
   62     -0.03042    0.00000
   63      0.37476    0.00000
   64      1.16344    0.00000
   65      1.37667    0.00000
   66      1.74985    0.00000
   67      1.81183    0.00000
   68      2.20078    0.00000
   69      2.59069    0.00000
   70      3.19799    0.00000
   71      3.39073    0.00000
   72      3.57336    0.00000
   73      4.18070    0.00000
   74      5.09882    0.00000
   75      5.42989    0.00000
   76      6.03044    0.00000
   77      6.79663    0.00000
   78      6.94095    0.00000
   79      7.11112    0.00000
   80      7.36861    0.00000
   81      7.85350    0.00000
   82      7.87801    0.00000
   83      8.38576    0.00000
   84      8.42745    0.00000
   85      8.86144    0.00000
   86      8.97756    0.00000
   87      9.06575    0.00000
   88      9.17708    0.00000
   89      9.26917    0.00000
   90      9.32747    0.00000
   91      9.51086    0.00000
   92      9.67672    0.00000
   93      9.70211    0.00000
   94      9.79907    0.00000
   95      9.96112    0.00000
   96     10.16539    0.00000
   97     10.19222    0.00000


Forces in eV/Ang:
  0 C     2.34156   -0.70061   -0.31302
  1 C     1.98782    1.34400    0.61890
  2 C    -0.42502    0.37716    0.09511
  3 C     2.85491   -0.10244    0.28059
  4 C    -0.46998    0.10257   -0.03580
  5 C    -0.04300    0.75202   -0.07947
  6 C    -2.34907   -1.93852   -0.33286
  7 C     1.19930    1.10611   -0.17096
  8 C    -0.88735    4.57953   -0.35420
  9 C     0.31048   -1.81357    0.10855
 10 C    -1.92545    0.52887   -0.09627
 11 C     0.08313   -0.70757   -0.03860
 12 C     0.04330    1.00968    0.02288
 13 C    -8.82487    5.53757   -1.65249
 14 C    -1.00272    1.15420    0.06516
 15 C    -0.69471   -0.75487   -0.24946
 16 C     0.02741   -0.78117    0.18970
 17 C     4.59182   -0.00267    0.27385
 18 C     1.34132    0.07886   -0.06708
 19 C    -0.61511    0.93896    0.35707
 20 C    12.52573   -6.84238    1.93373
 21 C    -7.21079   -0.62847   -0.51313
 22 C    -4.20007    1.74481   -0.36128
 23 C     1.27810   -4.94577    0.30623

System changes: positions 

Initializing position-dependent things.

Density initialized from wave functions
           .--------------------------------------.  
          /|                                      |  
         / |                                      |  
        /  |                                      |  
       /   |                                      |  
      /    |                                      |  
     /     |                                      |  
    /      |                                      |  
   /       |            C                         |  
  /        |         C   C                        |  
 *         |      C       C     C  C              |  
 |         |      C   C  C C        C             |  
 |         .-----C------C----C-C---C--------------.  
 |        /      C C   C  C  C                   /   
 |       /         C                            /    
 |      /             C                        /     
 |     /                                      /      
 |    /                                      /       
 |   /                                      /        
 |  /                                      /         
 | /                                      /          
 |/                                      /           
 *--------------------------------------*            

Positions:
   0 C      6.281233    4.531372    4.861787
   1 C      7.572640    5.334458    4.781450
   2 C      5.115262    5.282716    4.997956
   3 C      7.914366    3.027307    4.639941
   4 C      6.638847    3.162293    4.770222
   5 C      4.732462    6.474876    5.059697
   6 C      7.619393    6.732800    4.832397
   7 C      6.615370    7.819095    4.911980
   8 C      5.163075    7.827379    5.018147
   9 C      7.657797   10.236697    4.775637
  10 C      7.648866    8.859665    4.827733
  11 C      6.312773   12.496376    4.745884
  12 C      5.041501   12.137062    4.838628
  13 C      8.677139    7.874560    4.770108
  14 C      7.076326   11.374090    4.744895
  15 C     12.062774    7.007852    5.090093
  16 C     12.027300    8.312594    5.034819
  17 C     10.213399    9.828589    4.917251
  18 C     10.355716    4.966555    4.940552
  19 C     10.812655    6.326479    5.013336
  20 C      9.662932    7.152905    5.007348
  21 C      9.151706    4.513678    4.815374
  22 C     11.563483    9.554428    5.004882
  23 C      4.578097    9.432209    4.914549

Unit cell:
           periodic     x           y           z      points  spacing
  1. axis:    yes   16.000000    0.000000    0.000000    80     0.2000
  2. axis:    yes    0.000000   16.000000    0.000000    80     0.2000
  3. axis:    yes    0.000000    0.000000   10.000000    48     0.2083

Effective grid spacing dv^(1/3) = 0.2027

                     log10-error:    total        iterations:
           time      wfs    density  energy       fermi  poisson
iter:   1  09:32:43          +inf  -168.589316    3      5      
iter:   2  09:32:43         -2.00  -168.560416    3      2      
iter:   3  09:32:44         -2.18  -168.553125    2      2      
iter:   4  09:32:44         -2.28  -168.546531    2      2      
iter:   5  09:32:45         -2.46  -168.540653    2      2      
iter:   6  09:32:45         -2.64  -168.541109    2      2      
iter:   7  09:32:46         -2.70  -168.540132    2      2      
iter:   8  09:32:46         -2.95  -168.540080    2      2      
iter:   9  09:32:47         -3.12  -168.539620    2      2      
iter:  10  09:32:47         -3.35  -168.539272    2      1      
iter:  11  09:32:48         -3.48  -168.538702    2      1      
iter:  12  09:32:48         -3.61  -168.538564    2      1      
iter:  13  09:32:49         -3.71  -168.538023    2      1      
iter:  14  09:32:49         -3.91  -168.538056    2      1      
iter:  15  09:32:50         -4.14  -168.538946    2      1      

Converged after 15 iterations.

Dipole moment: (0.039636, -0.216688, 0.030779) |e|*Ang

Energy contributions relative to reference atoms: (reference = -24663.074771)

Kinetic:        +94.343038
Potential:     -104.739304
External:        +0.000000
XC:            -160.884414
Entropy (-ST):   -0.221655
Local:           +2.852562
--------------------------
Free energy:   -168.649774
Extrapolated:  -168.538946

Fermi level: -4.69027

 Band  Eigenvalues  Occupancy
    0    -23.83891    2.00000
    1    -21.89231    2.00000
    2    -21.66182    2.00000
    3    -20.72830    2.00000
    4    -20.36908    2.00000
    5    -20.15446    2.00000
    6    -19.60758    2.00000
    7    -19.01709    2.00000
    8    -18.61792    2.00000
    9    -18.54449    2.00000
   10    -17.90123    2.00000
   11    -16.98178    2.00000
   12    -16.34047    2.00000
   13    -15.94839    2.00000
   14    -14.74033    2.00000
   15    -14.37488    2.00000
   16    -14.31638    2.00000
   17    -13.81887    2.00000
   18    -13.08068    2.00000
   19    -12.93114    2.00000
   20    -12.66664    2.00000
   21    -12.28949    2.00000
   22    -11.97685    2.00000
   23    -11.48916    2.00000
   24    -11.20874    2.00000
   25    -10.88260    2.00000
   26    -10.03527    2.00000
   27     -9.80735    2.00000
   28     -9.47010    2.00000
   29     -8.73940    2.00000
   30     -8.68771    2.00000
   31     -8.52661    2.00000
   32     -8.46690    2.00000
   33     -8.37685    2.00000
   34     -8.02814    2.00000
   35     -7.73604    2.00000
   36     -7.45359    2.00000
   37     -7.26908    2.00000
   38     -6.80141    2.00000
   39     -6.76971    2.00000
   40     -6.28028    2.00000
   41     -6.14622    2.00000
   42     -5.96108    1.99999
   43     -5.90659    1.99999
   44     -5.75963    1.99995
   45     -5.30341    1.99566
   46     -5.00838    1.92024
   47     -4.88977    1.76056
   48     -4.49622    0.25120
   49     -4.31349    0.04516
   50     -4.26125    0.02704
   51     -3.76915    0.00020
   52     -3.08730    0.00000
   53     -2.91117    0.00000
   54     -2.59648    0.00000
   55     -2.52128    0.00000
   56     -2.12517    0.00000
   57     -1.69969    0.00000
   58     -1.55053    0.00000
   59     -1.30879    0.00000
   60     -1.15992    0.00000
   61     -0.36271    0.00000
   62     -0.08236    0.00000
   63      0.39789    0.00000
   64      1.08343    0.00000
   65      1.40607    0.00000
   66      1.73604    0.00000
   67      1.91120    0.00000
   68      2.28999    0.00000
   69      2.73289    0.00000
   70      3.15859    0.00000
   71      3.40182    0.00000
   72      3.45107    0.00000
   73      4.18096    0.00000
   74      5.14698    0.00000
   75      5.54470    0.00000
   76      6.03678    0.00000
   77      6.81213    0.00000
   78      6.90569    0.00000
   79      7.15526    0.00000
   80      7.42403    0.00000
   81      7.80573    0.00000
   82      7.94558    0.00000
   83      8.39550    0.00000
   84      8.48886    0.00000
   85      8.85697    0.00000
   86      8.99656    0.00000
   87      9.07171    0.00000
   88      9.22318    0.00000
   89      9.27947    0.00000
   90      9.32162    0.00000
   91      9.47925    0.00000
   92      9.65470    0.00000
   93      9.73801    0.00000
   94      9.81712    0.00000
   95      9.93553    0.00000
   96     10.13302    0.00000
   97     10.22820    0.00000


Forces in eV/Ang:
  0 C     2.13573   -0.38198   -0.26037
  1 C     1.70922    0.86384    0.59741
  2 C    -0.26890    0.43707    0.07301
  3 C     2.31082    0.18283    0.34995
  4 C     0.23853   -0.11020   -0.10310
  5 C     0.03089    0.74356   -0.09319
  6 C    -1.87403   -1.12074   -0.36350
  7 C     0.42898    0.87849   -0.14819
  8 C    -0.81105    4.37912   -0.35139
  9 C    -0.01167   -0.86008    0.09172
 10 C    -1.85932    0.73872   -0.06051
 11 C     0.05587   -0.49852   -0.04602
 12 C    -0.05146    0.99012    0.02334
 13 C    -2.92174    0.51055   -0.39270
 14 C    -0.60519    0.37593    0.07880
 15 C    -0.33001   -0.36378   -0.21619
 16 C    -0.07085   -0.47213    0.17958
 17 C     3.74176    0.11244    0.21515
 18 C    -0.05170   -0.66072   -0.21343
 19 C    -0.19119    0.49553    0.30396
 20 C     6.24747   -2.16649    0.67843
 21 C    -5.91597   -0.20239   -0.37946
 22 C    -3.25105    1.11879   -0.32093
 23 C     1.34210   -4.97579    0.30170

System changes: positions 

Initializing position-dependent things.

Density initialized from wave functions
           .--------------------------------------.  
          /|                                      |  
         / |                                      |  
        /  |                                      |  
       /   |                                      |  
      /    |                                      |  
     /     |                                      |  
    /      |                                      |  
   /       |            C                         |  
  /        |         C   C                        |  
 *         |      C       C     C  C              |  
 |         |      C   C  C C        C             |  
 |         .-----C------C----C-C---C--------------.  
 |        /      C C   C  C  C                   /   
 |       /         C                            /    
 |      /             C                        /     
 |     /                                      /      
 |    /                                      /       
 |   /                                      /        
 |  /                                      /         
 | /                                      /          
 |/                                      /           
 *--------------------------------------*            

Positions:
   0 C      6.296465    4.529529    4.860016
   1 C      7.584474    5.339378    4.785823
   2 C      5.113751    5.286152    4.998430
   3 C      7.929842    3.029558    4.642759
   4 C      6.642835    3.160809    4.769245
   5 C      4.732923    6.480377    5.058962
   6 C      7.606948    6.727026    4.829599
   7 C      6.616151    7.824914    4.910950
   8 C      5.157285    7.859304    5.015544
   9 C      7.656703   10.233284    4.776266
  10 C      7.635252    8.865812    4.827395
  11 C      6.313103   12.493323    4.745519
  12 C      5.040822   12.144361    4.838803
  13 C      8.673874    7.862641    4.771127
  14 C      7.073070   11.374452    4.745523
  15 C     12.061461    7.006371    5.088590
  16 C     12.026466    8.310051    5.036122
  17 C     10.238555    9.829785    4.918667
  18 C     10.350977    4.959332    4.938508
  19 C     10.812559    6.328777    5.015429
  20 C      9.689746    7.151418    5.008467
  21 C      9.111778    4.513505    4.812971
  22 C     11.542284    9.560787    5.002622
  23 C      4.588273    9.395129    4.916777

Unit cell:
           periodic     x           y           z      points  spacing
  1. axis:    yes   16.000000    0.000000    0.000000    80     0.2000
  2. axis:    yes    0.000000   16.000000    0.000000    80     0.2000
  3. axis:    yes    0.000000    0.000000   10.000000    48     0.2083

Effective grid spacing dv^(1/3) = 0.2027

                     log10-error:    total        iterations:
           time      wfs    density  energy       fermi  poisson
iter:   1  09:32:51          +inf  -169.657285    3      5      
iter:   2  09:32:52         -1.85  -169.591493    3      2      
iter:   3  09:32:52         -2.03  -169.562754    2      2      
iter:   4  09:32:53         -2.20  -169.545675    2      2      
iter:   5  09:32:53         -2.38  -169.542327    2      1      
iter:   6  09:32:54         -2.46  -169.538727    2      2      
iter:   7  09:32:54         -2.61  -169.540691    2      2      
iter:   8  09:32:55         -2.65  -169.539414    2      2      
iter:   9  09:32:55         -2.94  -169.537685    2      1      
iter:  10  09:32:56         -3.10  -169.537020    2      1      
iter:  11  09:32:56         -3.25  -169.537195    2      1      
iter:  12  09:32:56         -3.41  -169.537796    2      1      
iter:  13  09:32:57         -3.56  -169.538868    2      1      
iter:  14  09:32:57         -3.71  -169.538497    2      1      
iter:  15  09:32:58         -3.79  -169.538108    2      1      
iter:  16  09:32:58         -4.03  -169.538674    1      1      

Converged after 16 iterations.

Dipole moment: (0.069336, -0.279752, 0.027854) |e|*Ang

Energy contributions relative to reference atoms: (reference = -24663.074771)

Kinetic:        +91.467141
Potential:     -102.813198
External:        +0.000000
XC:            -160.956656
Entropy (-ST):   -0.210246
Local:           +2.869162
--------------------------
Free energy:   -169.643798
Extrapolated:  -169.538674

Fermi level: -4.71340

 Band  Eigenvalues  Occupancy
    0    -23.71438    2.00000
    1    -21.93945    2.00000
    2    -21.63677    2.00000
    3    -20.70985    2.00000
    4    -20.39481    2.00000
    5    -20.14117    2.00000
    6    -19.53111    2.00000
    7    -19.04959    2.00000
    8    -18.64206    2.00000
    9    -18.57405    2.00000
   10    -17.90996    2.00000
   11    -17.04117    2.00000
   12    -16.38534    2.00000
   13    -15.93115    2.00000
   14    -14.75073    2.00000
   15    -14.52376    2.00000
   16    -14.27635    2.00000
   17    -13.90182    2.00000
   18    -13.10741    2.00000
   19    -12.96650    2.00000
   20    -12.66132    2.00000
   21    -12.27869    2.00000
   22    -11.95391    2.00000
   23    -11.42196    2.00000
   24    -11.15342    2.00000
   25    -10.96550    2.00000
   26     -9.95159    2.00000
   27     -9.79198    2.00000
   28     -9.46922    2.00000
   29     -8.79245    2.00000
   30     -8.67463    2.00000
   31     -8.62375    2.00000
   32     -8.49400    2.00000
   33     -8.38236    2.00000
   34     -8.01663    2.00000
   35     -7.67498    2.00000
   36     -7.42052    2.00000
   37     -7.15394    2.00000
   38     -6.82984    2.00000
   39     -6.74454    2.00000
   40     -6.30318    2.00000
   41     -6.18790    2.00000
   42     -5.99437    1.99999
   43     -5.95018    1.99999
   44     -5.81645    1.99997
   45     -5.33622    1.99606
   46     -5.01798    1.90921
   47     -4.92487    1.78464
   48     -4.52696    0.26839
   49     -4.28227    0.02648
   50     -4.22433    0.01492
   51     -3.84699    0.00035
   52     -3.09818    0.00000
   53     -2.84899    0.00000
   54     -2.53116    0.00000
   55     -2.49861    0.00000
   56     -2.04463    0.00000
   57     -1.58736    0.00000
   58     -1.43981    0.00000
   59     -1.30304    0.00000
   60     -1.22288    0.00000
   61     -0.30203    0.00000
   62     -0.14689    0.00000
   63      0.51385    0.00000
   64      1.04267    0.00000
   65      1.52802    0.00000
   66      1.80034    0.00000
   67      2.05321    0.00000
   68      2.65216    0.00000
   69      3.03232    0.00000
   70      3.14189    0.00000
   71      3.38748    0.00000
   72      3.49794    0.00000
   73      4.19195    0.00000
   74      5.15611    0.00000
   75      5.53915    0.00000
   76      5.93234    0.00000
   77      6.75160    0.00000
   78      6.80704    0.00000
   79      7.21277    0.00000
   80      7.42583    0.00000
   81      7.80573    0.00000
   82      8.02072    0.00000
   83      8.41229    0.00000
   84      8.51357    0.00000
   85      8.86744    0.00000
   86      9.00418    0.00000
   87      9.01064    0.00000
   88      9.25417    0.00000
   89      9.28937    0.00000
   90      9.35756    0.00000
   91      9.43293    0.00000
   92      9.58236    0.00000
   93      9.77378    0.00000
   94      9.82783    0.00000
   95      9.89775    0.00000
   96     10.11696    0.00000
   97     10.23991    0.00000


Forces in eV/Ang:
  0 C     1.63029    0.05015   -0.18270
  1 C     1.35550    0.16501    0.53668
  2 C     0.11097    0.49874    0.01788
  3 C     1.72771    0.60713    0.41028
  4 C     0.99593   -0.24988   -0.16350
  5 C     0.16770    0.90817   -0.10922
  6 C    -1.48832   -0.12903   -0.36980
  7 C     0.06825    0.74824   -0.15970
  8 C    -0.94911    3.70880   -0.33375
  9 C    -0.09354   -0.33631    0.06839
 10 C    -1.06966    0.08864   -0.04767
 11 C     0.14524   -0.37996   -0.05463
 12 C    -0.24374    0.97291    0.02310
 13 C    -2.41141   -0.35242   -0.09241
 14 C    -0.39748    0.06426    0.07720
 15 C    -0.05499   -0.05846   -0.18185
 16 C    -0.19336    0.01962    0.15292
 17 C     1.74604    0.50345    0.07500
 18 C    -1.25653   -0.92094   -0.33731
 19 C     0.00410   -0.20950    0.25401
 20 C     4.48214   -0.96287    0.38574
 21 C    -4.54037    0.17804   -0.22629
 22 C    -1.11301    0.04290   -0.17194
 23 C     1.38252   -4.94390    0.30148

System changes: positions 

Initializing position-dependent things.

Density initialized from wave functions
           .--------------------------------------.  
          /|                                      |  
         / |                                      |  
        /  |                                      |  
       /   |                                      |  
      /    |                                      |  
     /     |                                      |  
    /      |                                      |  
   /       |            C                         |  
  /        |         C   C                        |  
 *         |      C       C     C  C              |  
 |         |      C   C  C C        C             |  
 |         .-----C------C----C-C---C--------------.  
 |        /      C C   C  C  C                   /   
 |       /         C                            /    
 |      /             C                        /     
 |     /                                      /      
 |    /                                      /       
 |   /                                      /        
 |  /                                      /         
 | /                                      /          
 |/                                      /           
 *--------------------------------------*            

Positions:
   0 C      6.308453    4.530735    4.858736
   1 C      7.594302    5.339398    4.789915
   2 C      5.115120    5.290166    4.998496
   3 C      7.941963    3.035028    4.646101
   4 C      6.652255    3.158418    4.767823
   5 C      4.734438    6.487521    5.058080
   6 C      7.596442    6.728045    4.826671
   7 C      6.615143    7.830255    4.909741
   8 C      5.149955    7.887337    5.012968
   9 C      7.655378   10.232625    4.776754
  10 C      7.627562    8.866440    4.827094
  11 C      6.314242   12.490803    4.745077
  12 C      5.038646   12.151872    4.838983
  13 C      8.665486    7.850826    4.772738
  14 C      7.070791   11.373432    4.746145
  15 C     12.061829    7.006775    5.087257
  16 C     12.024719    8.311042    5.037276
  17 C     10.249396    9.834140    4.919060
  18 C     10.338086    4.950759    4.935561
  19 C     10.813435    6.325946    5.017280
  20 C      9.712775    7.152641    5.009146
  21 C      9.079595    4.515854    4.811539
  22 C     11.536618    9.559370    5.001451
  23 C      4.599144    9.356706    4.919111

Unit cell:
           periodic     x           y           z      points  spacing
  1. axis:    yes   16.000000    0.000000    0.000000    80     0.2000
  2. axis:    yes    0.000000   16.000000    0.000000    80     0.2000
  3. axis:    yes    0.000000    0.000000   10.000000    48     0.2083

Effective grid spacing dv^(1/3) = 0.2027

                     log10-error:    total        iterations:
           time      wfs    density  energy       fermi  poisson
iter:   1  09:33:00          +inf  -170.361551    3      5      
iter:   2  09:33:00         -1.90  -170.297056    3      2      
iter:   3  09:33:01         -2.10  -170.273594    3      2      
iter:   4  09:33:01         -2.32  -170.265045    2      2      
iter:   5  09:33:02         -2.45  -170.262227    2      2      
iter:   6  09:33:02         -2.58  -170.258737    2      2      
iter:   7  09:33:03         -2.78  -170.259357    2      2      
iter:   8  09:33:03         -2.92  -170.259422    2      2      
iter:   9  09:33:04         -3.17  -170.258309    2      1      
iter:  10  09:33:04         -3.28  -170.257313    2      1      
iter:  11  09:33:05         -3.48  -170.258114    2      1      
iter:  12  09:33:05         -3.62  -170.258299    2      1      
iter:  13  09:33:06         -3.76  -170.258902    2      1      
iter:  14  09:33:06         -3.89  -170.259244    1      1      
iter:  15  09:33:07         -3.98  -170.259168    2      1      
iter:  16  09:33:07         -4.04  -170.258832    2      1      

Converged after 16 iterations.

Dipole moment: (0.109652, -0.320364, 0.026737) |e|*Ang

Energy contributions relative to reference atoms: (reference = -24663.074771)

Kinetic:        +90.471041
Potential:     -102.221105
External:        +0.000000
XC:            -161.284792
Entropy (-ST):   -0.199967
Local:           +2.876007
--------------------------
Free energy:   -170.358816
Extrapolated:  -170.258832

Fermi level: -4.73213

 Band  Eigenvalues  Occupancy
    0    -23.67652    2.00000
    1    -21.98114    2.00000
    2    -21.63117    2.00000
    3    -20.71165    2.00000
    4    -20.40288    2.00000
    5    -20.15576    2.00000
    6    -19.47905    2.00000
    7    -19.05431    2.00000
    8    -18.65335    2.00000
    9    -18.60776    2.00000
   10    -17.92170    2.00000
   11    -17.07788    2.00000
   12    -16.45157    2.00000
   13    -15.91281    2.00000
   14    -14.80700    2.00000
   15    -14.65695    2.00000
   16    -14.27724    2.00000
   17    -13.94362    2.00000
   18    -13.12806    2.00000
   19    -12.97587    2.00000
   20    -12.65974    2.00000
   21    -12.27315    2.00000
   22    -11.93459    2.00000
   23    -11.37947    2.00000
   24    -11.13789    2.00000
   25    -11.00022    2.00000
   26     -9.91212    2.00000
   27     -9.78529    2.00000
   28     -9.47407    2.00000
   29     -8.93026    2.00000
   30     -8.66646    2.00000
   31     -8.62229    2.00000
   32     -8.51229    2.00000
   33     -8.41360    2.00000
   34     -8.02659    2.00000
   35     -7.59317    2.00000
   36     -7.40147    2.00000
   37     -7.12047    2.00000
   38     -6.83798    2.00000
   39     -6.71951    2.00000
   40     -6.32283    2.00000
   41     -6.20606    2.00000
   42     -6.02438    2.00000
   43     -5.97479    1.99999
   44     -5.85880    1.99997
   45     -5.35040    1.99588
   46     -5.03194    1.90498
   47     -4.95463    1.80496
   48     -4.54534    0.26758
   49     -4.25400    0.01663
   50     -4.19842    0.00957
   51     -3.88982    0.00044
   52     -3.11894    0.00000
   53     -2.80110    0.00000
   54     -2.49906    0.00000
   55     -2.44465    0.00000
   56     -2.05499    0.00000
   57     -1.52309    0.00000
   58     -1.39291    0.00000
   59     -1.29951    0.00000
   60     -1.24805    0.00000
   61     -0.26980    0.00000
   62     -0.16445    0.00000
   63      0.64548    0.00000
   64      1.06657    0.00000
   65      1.58523    0.00000
   66      1.91186    0.00000
   67      2.18380    0.00000
   68      2.84295    0.00000
   69      3.07163    0.00000
   70      3.27332    0.00000
   71      3.42375    0.00000
   72      3.89074    0.00000
   73      4.21695    0.00000
   74      5.17853    0.00000
   75      5.51256    0.00000
   76      5.82044    0.00000
   77      6.65806    0.00000
   78      6.72650    0.00000
   79      7.23562    0.00000
   80      7.42430    0.00000
   81      7.82001    0.00000
   82      8.10448    0.00000
   83      8.43948    0.00000
   84      8.52342    0.00000
   85      8.86602    0.00000
   86      8.97280    0.00000
   87      9.02102    0.00000
   88      9.27325    0.00000
   89      9.32514    0.00000
   90      9.37184    0.00000
   91      9.42027    0.00000
   92      9.55163    0.00000
   93      9.79120    0.00000
   94      9.82141    0.00000
   95      9.89184    0.00000
   96     10.12239    0.00000
   97     10.24495    0.00000


Forces in eV/Ang:
  0 C     1.34046    0.16702   -0.13758
  1 C     1.03948    0.06142    0.50715
  2 C     0.27129    0.73478   -0.00794
  3 C     1.63204    0.83515    0.45076
  4 C     1.13046   -0.17186   -0.16549
  5 C     0.27610    0.83616   -0.11762
  6 C    -1.19103    0.14485   -0.34113
  7 C    -0.18218    0.68024   -0.17629
  8 C    -0.93911    2.91231   -0.28509
  9 C    -0.06020   -0.34993    0.06620
 10 C    -0.66689    0.10755   -0.05207
 11 C     0.09054   -0.33424   -0.05167
 12 C    -0.29423    0.97443    0.02182
 13 C    -1.61629   -1.11535    0.12906
 14 C    -0.31213    0.00975    0.07021
 15 C     0.06431    0.00639   -0.16522
 16 C    -0.10496   -0.15779    0.14627
 17 C     0.92225    0.63291    0.02645
 18 C    -1.54245   -0.77801   -0.33569
 19 C     0.20679   -0.59626    0.20565
 20 C     2.97195   -0.06597    0.16533
 21 C    -3.96858    0.17458   -0.17022
 22 C    -0.35988   -0.05667   -0.11511
 23 C     1.28729   -4.60458    0.30457

System changes: positions 

Initializing position-dependent things.

Density initialized from wave functions
           .--------------------------------------.  
          /|                                      |  
         / |                                      |  
        /  |                                      |  
       /   |                                      |  
      /    |                                      |  
     /     |                                      |  
    /      |                                      |  
   /       |                                      |  
  /        |         C  CC                        |  
 *         |      C       C     C  C              |  
 |         |      C   C  C C        C             |  
 |         .-----C------C----C-C---C--------------.  
 |        /      C C   C  C  C                   /   
 |       /         C                            /    
 |      /             C                        /     
 |     /                                      /      
 |    /                                      /       
 |   /                                      /        
 |  /                                      /         
 | /                                      /          
 |/                                      /           
 *--------------------------------------*            

Positions:
   0 C      6.319280    4.532394    4.857673
   1 C      7.602299    5.339864    4.794207
   2 C      5.117770    5.297242    4.998373
   3 C      7.955812    3.042779    4.650096
   4 C      6.662203    3.157194    4.766406
   5 C      4.737101    6.494326    5.057047
   6 C      7.587164    6.729872    4.823826
   7 C      6.612606    7.835845    4.908194
   8 C      5.142077    7.910107    5.010670
   9 C      7.654858   10.229690    4.777324
  10 C      7.622593    8.868050    4.826642
  11 C      6.314753   12.488108    4.744646
  12 C      5.036051   12.160245    4.839167
  13 C      8.657100    7.836627    4.775040
  14 C      7.068451   11.373150    4.746733
  15 C     12.062762    7.007022    5.085885
  16 C     12.024154    8.308884    5.038524
  17 C     10.255672    9.839760    4.919203
  18 C     10.324072    4.944352    4.932701
  19 C     10.815964    6.319852    5.018894
  20 C      9.731200    7.156684    5.009372
  21 C      9.047062    4.517278    4.810217
  22 C     11.534878    9.559051    5.000557
  23 C      4.609882    9.318263    4.921733

Unit cell:
           periodic     x           y           z      points  spacing
  1. axis:    yes   16.000000    0.000000    0.000000    80     0.2000
  2. axis:    yes    0.000000   16.000000    0.000000    80     0.2000
  3. axis:    yes    0.000000    0.000000   10.000000    48     0.2083

Effective grid spacing dv^(1/3) = 0.2027

                     log10-error:    total        iterations:
           time      wfs    density  energy       fermi  poisson
iter:   1  09:33:09          +inf  -170.950532    3      5      
iter:   2  09:33:09         -1.91  -170.886026    2      2      
iter:   3  09:33:10         -2.12  -170.862371    2      2      
iter:   4  09:33:10         -2.38  -170.856813    2      2      
iter:   5  09:33:11         -2.51  -170.854474    2      2      
iter:   6  09:33:11         -2.65  -170.851881    2      2      
iter:   7  09:33:12         -2.84  -170.852205    2      2      
iter:   8  09:33:12         -2.98  -170.852591    2      2      
iter:   9  09:33:13         -3.25  -170.851559    2      1      
iter:  10  09:33:13         -3.37  -170.850824    2      1      
iter:  11  09:33:13         -3.56  -170.852000    2      1      
iter:  12  09:33:14         -3.74  -170.852052    2      1      
iter:  13  09:33:14         -3.84  -170.852296    2      1      
iter:  14  09:33:15         -3.93  -170.852312    2      1      
iter:  15  09:33:15         -4.03  -170.852162    1      1      

Converged after 15 iterations.

Dipole moment: (0.144267, -0.354595, 0.025256) |e|*Ang

Energy contributions relative to reference atoms: (reference = -24663.074771)

Kinetic:        +90.253183
Potential:     -102.169306
External:        +0.000000
XC:            -161.719278
Entropy (-ST):   -0.198128
Local:           +2.882304
--------------------------
Free energy:   -170.951226
Extrapolated:  -170.852162

Fermi level: -4.74730

 Band  Eigenvalues  Occupancy
    0    -23.65247    2.00000
    1    -22.00187    2.00000
    2    -21.63880    2.00000
    3    -20.73315    2.00000
    4    -20.41823    2.00000
    5    -20.15068    2.00000
    6    -19.45799    2.00000
    7    -19.05881    2.00000
    8    -18.65530    2.00000
    9    -18.64756    2.00000
   10    -17.93682    2.00000
   11    -17.10599    2.00000
   12    -16.51272    2.00000
   13    -15.90051    2.00000
   14    -14.88966    2.00000
   15    -14.71596    2.00000
   16    -14.30406    2.00000
   17    -13.96196    2.00000
   18    -13.16423    2.00000
   19    -12.97391    2.00000
   20    -12.66545    2.00000
   21    -12.27514    2.00000
   22    -11.91294    2.00000
   23    -11.36162    2.00000
   24    -11.13329    2.00000
   25    -11.00724    2.00000
   26     -9.89652    2.00000
   27     -9.78144    2.00000
   28     -9.48072    2.00000
   29     -9.08855    2.00000
   30     -8.67305    2.00000
   31     -8.60070    2.00000
   32     -8.53503    2.00000
   33     -8.42641    2.00000
   34     -8.02685    2.00000
   35     -7.50428    2.00000
   36     -7.39199    2.00000
   37     -7.10244    2.00000
   38     -6.85169    2.00000
   39     -6.69648    2.00000
   40     -6.34140    2.00000
   41     -6.21668    2.00000
   42     -6.04758    2.00000
   43     -5.99396    1.99999
   44     -5.89335    1.99998
   45     -5.35728    1.99552
   46     -5.05538    1.91220
   47     -4.96359    1.79375
   48     -4.56632    0.28133
   49     -4.22323    0.01054
   50     -4.16896    0.00614
   51     -3.92962    0.00056
   52     -3.14148    0.00000
   53     -2.77244    0.00000
   54     -2.44513    0.00000
   55     -2.38332    0.00000
   56     -2.05754    0.00000
   57     -1.47272    0.00000
   58     -1.35004    0.00000
   59     -1.30626    0.00000
   60     -1.26264    0.00000
   61     -0.24602    0.00000
   62     -0.19744    0.00000
   63      0.76963    0.00000
   64      1.14914    0.00000
   65      1.59059    0.00000
   66      1.99987    0.00000
   67      2.37102    0.00000
   68      2.87457    0.00000
   69      3.03841    0.00000
   70      3.41443    0.00000
   71      3.55156    0.00000
   72      4.19209    0.00000
   73      4.41753    0.00000
   74      5.21367    0.00000
   75      5.48552    0.00000
   76      5.69879    0.00000
   77      6.56900    0.00000
   78      6.65343    0.00000
   79      7.25055    0.00000
   80      7.43865    0.00000
   81      7.82671    0.00000
   82      8.16815    0.00000
   83      8.47741    0.00000
   84      8.53266    0.00000
   85      8.86248    0.00000
   86      8.98258    0.00000
   87      9.03634    0.00000
   88      9.28033    0.00000
   89      9.33654    0.00000
   90      9.41999    0.00000
   91      9.43140    0.00000
   92      9.57008    0.00000
   93      9.79055    0.00000
   94      9.83048    0.00000
   95      9.90774    0.00000
   96     10.13821    0.00000
   97     10.25292    0.00000


Forces in eV/Ang:
  0 C     1.10372    0.28479   -0.11146
  1 C     0.71036    0.00046    0.44740
  2 C     0.47856    0.67980   -0.04333
  3 C     1.46462    1.09350    0.46167
  4 C     1.33710   -0.12306   -0.15684
  5 C     0.26881    0.87960   -0.11095
  6 C    -1.00683    0.32554   -0.31121
  7 C    -0.26591    0.63651   -0.19319
  8 C    -0.79888    1.92507   -0.24056
  9 C    -0.09565   -0.03731    0.04800
 10 C    -0.42410   -0.04846   -0.05498
 11 C     0.05812   -0.27697   -0.04925
 12 C    -0.38539    0.97526    0.03028
 13 C    -1.16655   -1.49198    0.25052
 14 C    -0.13088   -0.23646    0.06885
 15 C     0.13246   -0.12482   -0.14754
 16 C    -0.06531   -0.01307    0.13111
 17 C     0.54030    0.68462    0.00680
 18 C    -1.78705   -0.68222   -0.32147
 19 C     0.22256   -0.73409    0.16353
 20 C     2.09186    0.35938    0.03087
 21 C    -3.35824    0.12875   -0.13506
 22 C     0.01211   -0.21364   -0.07965
 23 C     1.08334   -3.90131    0.26458

System changes: positions 

Initializing position-dependent things.

Density initialized from wave functions
           .--------------------------------------.  
          /|                                      |  
         / |                                      |  
        /  |                                      |  
       /   |                                      |  
      /    |                                      |  
     /     |                                      |  
    /      |                                      |  
   /       |                                      |  
  /        |         C  CC                        |  
 *         |      C       C     C  C              |  
 |         |      C   C  C C        C             |  
 |         .-----C------C----C-C---C--------------.  
 |        /      C C   C  C  C                   /   
 |       /         C                            /    
 |      /             C                        /     
 |     /                                      /      
 |    /                                      /       
 |   /                                      /        
 |  /                                      /         
 | /                                      /          
 |/                                      /           
 *--------------------------------------*            

Positions:
   0 C      6.330575    4.535306    4.856523
   1 C      7.608698    5.340740    4.798824
   2 C      5.123265    5.304664    4.997830
   3 C      7.971742    3.055098    4.655043
   4 C      6.676137    3.156470    4.764868
   5 C      4.739909    6.503437    5.055899
   6 C      7.576968    6.732728    4.820677
   7 C      6.609597    7.842590    4.906055
   8 C      5.134343    7.926692    5.008327
   9 C      7.653909   10.229482    4.777808
  10 C      7.618267    8.868237    4.826012
  11 C      6.314973   12.485236    4.744150
  12 C      5.031850   12.170712    4.839520
  13 C      8.647228    7.819123    4.778108
  14 C      7.067522   11.370147    4.747454
  15 C     12.064167    7.004767    5.084343
  16 C     12.024007    8.308009    5.039907
  17 C     10.262137    9.846794    4.919370
  18 C     10.305699    4.938154    4.929548
  19 C     10.818458    6.312034    5.020482
  20 C      9.750306    7.161858    5.009252
  21 C      9.012013    4.517775    4.808731
  22 C     11.533877    9.557997    4.999669
  23 C      4.620444    9.279777    4.924420

Unit cell:
           periodic     x           y           z      points  spacing
  1. axis:    yes   16.000000    0.000000    0.000000    80     0.2000
  2. axis:    yes    0.000000   16.000000    0.000000    80     0.2000
  3. axis:    yes    0.000000    0.000000   10.000000    48     0.2083

Effective grid spacing dv^(1/3) = 0.2027

                     log10-error:    total        iterations:
           time      wfs    density  energy       fermi  poisson
iter:   1  09:33:17          +inf  -171.495399    3      5      
iter:   2  09:33:17         -1.88  -171.420810    3      2      
iter:   3  09:33:18         -2.08  -171.386836    2      2      
iter:   4  09:33:18         -2.39  -171.382942    2      2      
iter:   5  09:33:19         -2.52  -171.380871    2      2      
iter:   6  09:33:19         -2.65  -171.377964    2      2      
iter:   7  09:33:20         -2.84  -171.378207    2      2      
iter:   8  09:33:20         -3.00  -171.379044    2      2      
iter:   9  09:33:21         -3.21  -171.376915    1      1      
iter:  10  09:33:21         -3.38  -171.377230    2      1      
iter:  11  09:33:22         -3.52  -171.378328    2      1      
iter:  12  09:33:22         -3.61  -171.377837    2      1      
iter:  13  09:33:23         -3.85  -171.378839    2      1      
iter:  14  09:33:23         -3.94  -171.378769    2      1      
iter:  15  09:33:24         -4.02  -171.378319    2      1      

Converged after 15 iterations.

Dipole moment: (0.178877, -0.402703, 0.024099) |e|*Ang

Energy contributions relative to reference atoms: (reference = -24663.074771)

Kinetic:        +91.087667
Potential:     -102.892328
External:        +0.000000
XC:            -162.364586
Entropy (-ST):   -0.202976
Local:           +2.892417
--------------------------
Free energy:   -171.479807
Extrapolated:  -171.378319

Fermi level: -4.76035

 Band  Eigenvalues  Occupancy
    0    -23.64691    2.00000
    1    -22.01855    2.00000
    2    -21.67234    2.00000
    3    -20.78467    2.00000
    4    -20.41554    2.00000
    5    -20.15063    2.00000
    6    -19.44388    2.00000
    7    -19.06834    2.00000
    8    -18.68421    2.00000
    9    -18.64454    2.00000
   10    -17.95521    2.00000
   11    -17.13528    2.00000
   12    -16.57227    2.00000
   13    -15.89077    2.00000
   14    -14.99338    2.00000
   15    -14.74513    2.00000
   16    -14.35357    2.00000
   17    -13.97286    2.00000
   18    -13.19398    2.00000
   19    -12.96107    2.00000
   20    -12.68428    2.00000
   21    -12.27569    2.00000
   22    -11.89245    2.00000
   23    -11.35723    2.00000
   24    -11.13679    2.00000
   25    -11.01028    2.00000
   26     -9.89483    2.00000
   27     -9.78532    2.00000
   28     -9.49766    2.00000
   29     -9.26645    2.00000
   30     -8.69620    2.00000
   31     -8.57132    2.00000
   32     -8.54822    2.00000
   33     -8.44487    2.00000
   34     -8.03428    2.00000
   35     -7.41883    2.00000
   36     -7.38289    2.00000
   37     -7.08240    2.00000
   38     -6.85423    2.00000
   39     -6.66300    2.00000
   40     -6.35496    2.00000
   41     -6.21739    2.00000
   42     -6.07265    2.00000
   43     -6.01130    1.99999
   44     -5.92699    1.99998
   45     -5.35330    1.99469
   46     -5.08683    1.92641
   47     -4.95928    1.75934
   48     -4.58981    0.30753
   49     -4.19774    0.00718
   50     -4.14362    0.00418
   51     -3.96391    0.00069
   52     -3.16702    0.00000
   53     -2.74864    0.00000
   54     -2.40435    0.00000
   55     -2.34506    0.00000
   56     -2.08017    0.00000
   57     -1.42116    0.00000
   58     -1.31566    0.00000
   59     -1.29188    0.00000
   60     -1.26604    0.00000
   61     -0.21324    0.00000
   62     -0.19669    0.00000
   63      0.87340    0.00000
   64      1.33218    0.00000
   65      1.58937    0.00000
   66      2.08170    0.00000
   67      2.60357    0.00000
   68      2.87313    0.00000
   69      2.99416    0.00000
   70      3.43653    0.00000
   71      3.84605    0.00000
   72      4.26556    0.00000
   73      4.81004    0.00000
   74      5.24705    0.00000
   75      5.51217    0.00000
   76      5.57467    0.00000
   77      6.49559    0.00000
   78      6.61708    0.00000
   79      7.27231    0.00000
   80      7.46142    0.00000
   81      7.83570    0.00000
   82      8.20860    0.00000
   83      8.50754    0.00000
   84      8.54351    0.00000
   85      8.85856    0.00000
   86      8.99812    0.00000
   87      9.05330    0.00000
   88      9.28378    0.00000
   89      9.31965    0.00000
   90      9.40970    0.00000
   91      9.52817    0.00000
   92      9.62232    0.00000
   93      9.79100    0.00000
   94      9.86716    0.00000
   95      9.93686    0.00000
   96     10.15246    0.00000
   97     10.26200    0.00000


Forces in eV/Ang:
  0 C     0.83519    0.31381   -0.08791
  1 C     0.35066    0.04699    0.39409
  2 C     0.54855    0.79593   -0.06387
  3 C     1.38533    1.28641    0.45413
  4 C     1.40933   -0.01559   -0.12726
  5 C     0.29826    0.54584   -0.11135
  6 C    -0.83038    0.38492   -0.25528
  7 C    -0.33426    0.55811   -0.20865
  8 C    -0.50885    0.81961   -0.16560
  9 C     0.02577   -0.21366    0.04949
 10 C    -0.17787   -0.01213   -0.06568
 11 C     0.00641   -0.33123   -0.03971
 12 C    -0.36803    0.95393    0.04756
 13 C    -0.68200   -1.71510    0.31651
 14 C    -0.17146   -0.05689    0.05980
 15 C     0.21384   -0.05528   -0.13855
 16 C    -0.00149   -0.17077    0.12295
 17 C     0.22078    0.73149   -0.01477
 18 C    -1.89034   -0.55695   -0.31332
 19 C     0.18885   -0.82706    0.11172
 20 C     1.20866    0.69894   -0.09710
 21 C    -2.78450   -0.05696   -0.09874
 22 C     0.31924   -0.29121   -0.04779
 23 C     0.69451   -2.80684    0.18216

System changes: positions 

Initializing position-dependent things.

Density initialized from wave functions
           .--------------------------------------.  
          /|                                      |  
         / |                                      |  
        /  |                                      |  
       /   |                                      |  
      /    |                                      |  
     /     |                                      |  
    /      |                                      |  
   /       |                                      |  
  /        |         C  CC                        |  
 *         |      C       C     C  C              |  
 |         |      C   C  C C       C              |  
 |         .-----C------C----C-C---C--------------.  
 |        /      C C   C  C  C                   /   
 |       /         C  C                         /    
 |      /                                      /     
 |     /                                      /      
 |    /                                      /       
 |   /                                      /        
 |  /                                      /         
 | /                                      /          
 |/                                      /           
 *--------------------------------------*            

Positions:
   0 C      6.342458    4.538794    4.855202
   1 C      7.613242    5.343137    4.804200
   2 C      5.130415    5.315509    4.996983
   3 C      7.991908    3.072537    4.661147
   4 C      6.694054    3.156913    4.763340
   5 C      4.743696    6.510214    5.054422
   6 C      7.565126    6.735886    4.817329
   7 C      6.605801    7.850452    4.903145
   8 C      5.128331    7.935972    5.006204
   9 C      7.654641   10.225444    4.778513
  10 C      7.614785    8.869285    4.825045
  11 C      6.314709   12.480388    4.743644
  12 C      5.027093   12.183867    4.840216
  13 C      8.636518    7.797921    4.781734
  14 C      7.064895   11.370037    4.748261
  15 C     12.066603    7.002957    5.082395
  16 C     12.024493    8.304470    5.041623
  17 C     10.268916    9.856073    4.919447
  18 C     10.282309    4.931729    4.925621
  19 C     10.820471    6.302021    5.021992
  20 C      9.769874    7.168625    5.008518
  21 C      8.972106    4.515601    4.807091
  22 C     11.534112    9.556325    4.998764
  23 C      4.628928    9.244062    4.926736

Unit cell:
           periodic     x           y           z      points  spacing
  1. axis:    yes   16.000000    0.000000    0.000000    80     0.2000
  2. axis:    yes    0.000000   16.000000    0.000000    80     0.2000
  3. axis:    yes    0.000000    0.000000   10.000000    48     0.2083

Effective grid spacing dv^(1/3) = 0.2027

                     log10-error:    total        iterations:
           time      wfs    density  energy       fermi  poisson
iter:   1  09:33:25          +inf  -171.970292    3      5      
iter:   2  09:33:26         -1.86  -171.882940    3      2      
iter:   3  09:33:26         -2.05  -171.840151    3      2      
iter:   4  09:33:27         -2.38  -171.838112    2      2      
iter:   5  09:33:27         -2.53  -171.836822    2      2      
iter:   6  09:33:28         -2.64  -171.833710    2      2      
iter:   7  09:33:28         -2.81  -171.833402    2      2      
iter:   8  09:33:29         -3.05  -171.830808    2      1      
iter:   9  09:33:29         -3.21  -171.834168    2      2      
iter:  10  09:33:30         -3.48  -171.834356    2      1      
iter:  11  09:33:30         -3.55  -171.833062    2      1      
iter:  12  09:33:30         -3.81  -171.834441    2      1      
iter:  13  09:33:31         -3.89  -171.834592    2      1      
iter:  14  09:33:31         -3.96  -171.833708    2      1      
iter:  15  09:33:32         -4.15  -171.834254    2      1      

Converged after 15 iterations.

Dipole moment: (0.196385, -0.441581, 0.021646) |e|*Ang

Energy contributions relative to reference atoms: (reference = -24663.074771)

Kinetic:        +93.084687
Potential:     -104.480442
External:        +0.000000
XC:            -163.234632
Entropy (-ST):   -0.212052
Local:           +2.902159
--------------------------
Free energy:   -171.940280
Extrapolated:  -171.834254

Fermi level: -4.76528

 Band  Eigenvalues  Occupancy
    0    -23.63773    2.00000
    1    -22.01737    2.00000
    2    -21.72535    2.00000
    3    -20.85052    2.00000
    4    -20.42940    2.00000
    5    -20.12741    2.00000
    6    -19.45946    2.00000
    7    -19.08355    2.00000
    8    -18.69283    2.00000
    9    -18.62573    2.00000
   10    -17.96557    2.00000
   11    -17.16737    2.00000
   12    -16.60460    2.00000
   13    -15.88231    2.00000
   14    -15.06463    2.00000
   15    -14.75874    2.00000
   16    -14.39905    2.00000
   17    -13.98256    2.00000
   18    -13.25778    2.00000
   19    -12.92879    2.00000
   20    -12.71755    2.00000
   21    -12.26835    2.00000
   22    -11.86171    2.00000
   23    -11.37030    2.00000
   24    -11.13177    2.00000
   25    -11.00077    2.00000
   26     -9.89161    2.00000
   27     -9.78179    2.00000
   28     -9.53467    2.00000
   29     -9.45460    2.00000
   30     -8.72466    2.00000
   31     -8.56726    2.00000
   32     -8.55618    2.00000
   33     -8.44586    2.00000
   34     -8.02598    2.00000
   35     -7.39229    2.00000
   36     -7.33621    2.00000
   37     -7.05972    2.00000
   38     -6.86858    2.00000
   39     -6.63039    2.00000
   40     -6.36926    2.00000
   41     -6.19839    2.00000
   42     -6.09533    2.00000
   43     -6.02861    1.99999
   44     -5.95615    1.99999
   45     -5.34223    1.99378
   46     -5.11156    1.93922
   47     -4.94402    1.71322
   48     -4.60852    0.34513
   49     -4.16378    0.00487
   50     -4.11396    0.00296
   51     -3.98846    0.00085
   52     -3.18776    0.00000
   53     -2.73694    0.00000
   54     -2.33205    0.00000
   55     -2.32007    0.00000
   56     -2.08421    0.00000
   57     -1.36976    0.00000
   58     -1.31988    0.00000
   59     -1.24462    0.00000
   60     -1.23545    0.00000
   61     -0.23621    0.00000
   62     -0.18522    0.00000
   63      0.95704    0.00000
   64      1.59495    0.00000
   65      1.64839    0.00000
   66      2.16621    0.00000
   67      2.79584    0.00000
   68      2.86809    0.00000
   69      3.04520    0.00000
   70      3.46371    0.00000
   71      4.09950    0.00000
   72      4.41622    0.00000
   73      5.10351    0.00000
   74      5.25400    0.00000
   75      5.46246    0.00000
   76      5.65840    0.00000
   77      6.42458    0.00000
   78      6.60779    0.00000
   79      7.30257    0.00000
   80      7.50029    0.00000
   81      7.85660    0.00000
   82      8.23579    0.00000
   83      8.52965    0.00000
   84      8.57638    0.00000
   85      8.86536    0.00000
   86      9.01616    0.00000
   87      9.07280    0.00000
   88      9.28688    0.00000
   89      9.31503    0.00000
   90      9.39731    0.00000
   91      9.57785    0.00000
   92      9.71001    0.00000
   93      9.79015    0.00000
   94      9.91780    0.00000
   95      9.99018    0.00000
   96     10.16811    0.00000
   97     10.27512    0.00000


Forces in eV/Ang:
  0 C     0.50867    0.35364   -0.01428
  1 C    -0.08017    0.08512    0.33659
  2 C     0.75995    0.50179   -0.11082
  3 C     1.25262    1.51285    0.44867
  4 C     1.46180    0.11396   -0.11563
  5 C     0.20379    0.53633   -0.09188
  6 C    -0.64360    0.45578   -0.18107
  7 C    -0.37094    0.41596   -0.22381
  8 C    -0.18081   -0.35168   -0.08949
  9 C    -0.04005    0.24170    0.02570
 10 C     0.05282   -0.19223   -0.06316
 11 C    -0.09261   -0.20875   -0.03543
 12 C    -0.39838    0.92539    0.04153
 13 C    -0.22253   -1.74651    0.40332
 14 C     0.10081   -0.47740    0.06372
 15 C     0.22750   -0.18706   -0.12456
 16 C     0.06208   -0.10137    0.10481
 17 C     0.00056    0.71930   -0.03592
 18 C    -1.83627   -0.36433   -0.29834
 19 C     0.11121   -0.85751    0.05668
 20 C     0.43407    0.85646   -0.20013
 21 C    -2.13610   -0.28991   -0.06804
 22 C     0.52978   -0.40765   -0.02032
 23 C     0.23985   -1.52002    0.12313

System changes: positions 

Initializing position-dependent things.

Density initialized from wave functions
           .--------------------------------------.  
          /|                                      |  
         / |                                      |  
        /  |                                      |  
       /   |                                      |  
      /    |                                      |  
     /     |                                      |  
    /      |                                      |  
   /       |                                      |  
  /        |         C  CC                        |  
 *         |      C       C     C  C              |  
 |         |      C   C  C C        C             |  
 |         .-----C------C----C-C---C--------------.  
 |        /      C C   C  C  C                   /   
 |       /         C  C                         /    
 |      /                                      /     
 |     /                                      /      
 |    /                                      /       
 |   /                                      /        
 |  /                                      /         
 | /                                      /          
 |/                                      /           
 *--------------------------------------*            

Positions:
   0 C      6.352928    4.542644    4.854524
   1 C      7.614610    5.346601    4.809749
   2 C      5.140266    5.323440    4.995589
   3 C      8.013503    3.093624    4.667821
   4 C      6.713773    3.158737    4.761722
   5 C      4.746522    6.518191    5.053021
   6 C      7.553116    6.739292    4.814356
   7 C      6.601837    7.857735    4.899784
   8 C      5.125003    7.936591    5.004522
   9 C      7.654503   10.226186    4.779042
  10 C      7.612363    8.868410    4.824024
  11 C      6.313357   12.476429    4.743110
  12 C      5.021685   12.198222    4.840860
  13 C      8.626595    7.776985    4.786010
  14 C      7.064933   11.364965    4.749240
  15 C     12.068976    6.999329    5.080312
  16 C     12.025566    8.301424    5.043367
  17 C     10.276267    9.865890    4.919409
  18 C     10.258321    4.926562    4.921396
  19 C     10.821420    6.291483    5.023227
  20 C      9.788311    7.174675    5.007404
  21 C      8.932469    4.510492    4.805417
  22 C     11.534580    9.553715    4.997890
  23 C      4.633773    9.216816    4.928802

Unit cell:
           periodic     x           y           z      points  spacing
  1. axis:    yes   16.000000    0.000000    0.000000    80     0.2000
  2. axis:    yes    0.000000   16.000000    0.000000    80     0.2000
  3. axis:    yes    0.000000    0.000000   10.000000    48     0.2083

Effective grid spacing dv^(1/3) = 0.2027

                     log10-error:    total        iterations:
           time      wfs    density  energy       fermi  poisson
iter:   1  09:33:33          +inf  -172.312935    3      5      
iter:   2  09:33:34         -1.88  -172.227662    3      2      
iter:   3  09:33:34         -2.09  -172.185153    3      2      
iter:   4  09:33:35         -2.41  -172.184613    2      2      
iter:   5  09:33:35         -2.57  -172.183190    2      2      
iter:   6  09:33:36         -2.68  -172.180996    2      2      
iter:   7  09:33:36         -2.85  -172.181134    2      2      
iter:   8  09:33:37         -3.12  -172.179415    2      1      
iter:   9  09:33:37         -3.23  -172.181251    2      2      
iter:  10  09:33:38         -3.56  -172.181603    2      1      
iter:  11  09:33:38         -3.63  -172.180817    2      1      
iter:  12  09:33:39         -3.90  -172.181813    2      1      
iter:  13  09:33:39         -3.98  -172.181877    2      1      
iter:  14  09:33:40         -4.05  -172.181247    2      1      

Converged after 14 iterations.

Dipole moment: (0.207856, -0.508721, 0.019885) |e|*Ang

Energy contributions relative to reference atoms: (reference = -24663.074771)

Kinetic:        +95.322249
Potential:     -106.218648
External:        +0.000000
XC:            -164.082054
Entropy (-ST):   -0.227207
Local:           +2.910809
--------------------------
Free energy:   -172.294851
Extrapolated:  -172.181247

Fermi level: -4.77137

 Band  Eigenvalues  Occupancy
    0    -23.64527    2.00000
    1    -22.02373    2.00000
    2    -21.80322    2.00000
    3    -20.92941    2.00000
    4    -20.41254    2.00000
    5    -20.10103    2.00000
    6    -19.48000    2.00000
    7    -19.08882    2.00000
    8    -18.67345    2.00000
    9    -18.59116    2.00000
   10    -17.97464    2.00000
   11    -17.20545    2.00000
   12    -16.63124    2.00000
   13    -15.87649    2.00000
   14    -15.10783    2.00000
   15    -14.78848    2.00000
   16    -14.43580    2.00000
   17    -14.00258    2.00000
   18    -13.28689    2.00000
   19    -12.89699    2.00000
   20    -12.77486    2.00000
   21    -12.26349    2.00000
   22    -11.84014    2.00000
   23    -11.39567    2.00000
   24    -11.13022    2.00000
   25    -10.99840    2.00000
   26     -9.90168    2.00000
   27     -9.78132    2.00000
   28     -9.68380    2.00000
   29     -9.54354    2.00000
   30     -8.76330    2.00000
   31     -8.56371    2.00000
   32     -8.53665    2.00000
   33     -8.44544    2.00000
   34     -8.01661    2.00000
   35     -7.39284    2.00000
   36     -7.29314    2.00000
   37     -7.03081    2.00000
   38     -6.86551    2.00000
   39     -6.59310    2.00000
   40     -6.35991    2.00000
   41     -6.17912    2.00000
   42     -6.12850    2.00000
   43     -6.03627    1.99999
   44     -5.97418    1.99999
   45     -5.32273    1.99197
   46     -5.13247    1.94737
   47     -4.92798    1.65445
   48     -4.63235    0.39874
   49     -4.15070    0.00402
   50     -4.10584    0.00257
   51     -4.00026    0.00090
   52     -3.21490    0.00000
   53     -2.72525    0.00000
   54     -2.32692    0.00000
   55     -2.29988    0.00000
   56     -2.10152    0.00000
   57     -1.34328    0.00000
   58     -1.30720    0.00000
   59     -1.22266    0.00000
   60     -1.17745    0.00000
   61     -0.21949    0.00000
   62     -0.14277    0.00000
   63      1.00942    0.00000
   64      1.61329    0.00000
   65      2.00650    0.00000
   66      2.24890    0.00000
   67      2.77354    0.00000
   68      2.92526    0.00000
   69      3.21033    0.00000
   70      3.48872    0.00000
   71      4.20761    0.00000
   72      4.63171    0.00000
   73      5.10842    0.00000
   74      5.37857    0.00000
   75      5.60601    0.00000
   76      5.81922    0.00000
   77      6.39841    0.00000
   78      6.64479    0.00000
   79      7.34066    0.00000
   80      7.53238    0.00000
   81      7.87916    0.00000
   82      8.24296    0.00000
   83      8.53910    0.00000
   84      8.61520    0.00000
   85      8.87794    0.00000
   86      9.02989    0.00000
   87      9.08266    0.00000
   88      9.28807    0.00000
   89      9.31808    0.00000
   90      9.38486    0.00000
   91      9.58312    0.00000
   92      9.78944    0.00000
   93      9.79889    0.00000
   94      9.95069    0.00000
   95     10.03847    0.00000
   96     10.16676    0.00000
   97     10.27608    0.00000


Forces in eV/Ang:
  0 C     0.19428    0.30865    0.02676
  1 C    -0.47052    0.18992    0.26296
  2 C     0.69714    0.60914   -0.13132
  3 C     1.09884    1.66880    0.43599
  4 C     1.49364    0.19489   -0.08172
  5 C     0.20452    0.00996   -0.08192
  6 C    -0.45776    0.39012   -0.11007
  7 C    -0.36797    0.28875   -0.21972
  8 C     0.07070   -1.08380   -0.03242
  9 C     0.14413   -0.13673    0.03589
 10 C     0.28948   -0.14106   -0.06036
 11 C    -0.08157   -0.32231   -0.02547
 12 C    -0.37988    0.93222    0.02626
 13 C     0.24458   -1.64058    0.41716
 14 C    -0.07249   -0.08163    0.05713
 15 C     0.24365   -0.18412   -0.10979
 16 C     0.13070   -0.21806    0.09005
 17 C    -0.22453    0.76317   -0.05522
 18 C    -1.79098   -0.18931   -0.25557
 19 C     0.04861   -0.88179    0.00226
 20 C    -0.33955    0.96910   -0.28423
 21 C    -1.35085   -0.48760   -0.04593
 22 C     0.72133   -0.48293    0.00421
 23 C    -0.14117   -0.49829    0.04619

System changes: positions 

Initializing position-dependent things.

Density initialized from wave functions
           .--------------------------------------.  
          /|                                      |  
         / |                                      |  
        /  |                                      |  
       /   |                                      |  
      /    |                                      |  
     /     |                                      |  
    /      |                                      |  
   /       |                                      |  
  /        |         C  CC                        |  
 *         |      C       C     C  C              |  
 |         |      C   C  C C        C             |  
 |         .-----C------C----C-C---C--------------.  
 |        /      C C   C C   C                   /   
 |       /         C   C                        /    
 |      /                                      /     
 |     /                                      /      
 |    /                                      /       
 |   /                                      /        
 |  /                                      /         
 | /                                      /          
 |/                                      /           
 *--------------------------------------*            

Positions:
   0 C      6.362332    4.546291    4.854123
   1 C      7.612550    5.352159    4.815576
   2 C      5.150459    5.334040    4.993774
   3 C      8.037555    3.119863    4.675557
   4 C      6.737248    3.161550    4.760180
   5 C      4.749768    6.521118    5.051484
   6 C      7.540331    6.741835    4.811573
   7 C      6.597770    7.865009    4.895917
   8 C      5.123526    7.932302    5.002993
   9 C      7.656706   10.221572    4.779846
  10 C      7.611480    8.868055    4.822880
  11 C      6.312222   12.470037    4.742581
  12 C      5.015612   12.215494    4.841367
  13 C      8.617877    7.755875    4.790596
  14 C      7.062148   11.364701    4.750343
  15 C     12.071626    6.995068    5.077971
  16 C     12.027435    8.296662    5.045288
  17 C     10.283869    9.877966    4.919212
  18 C     10.231071    4.922165    4.916898
  19 C     10.821481    6.279376    5.024190
  20 C      9.805162    7.180676    5.005759
  21 C      8.893367    4.502276    4.803540
  22 C     11.536009    9.549862    4.997020
  23 C      4.635677    9.194273    4.930441

Unit cell:
           periodic     x           y           z      points  spacing
  1. axis:    yes   16.000000    0.000000    0.000000    80     0.2000
  2. axis:    yes    0.000000   16.000000    0.000000    80     0.2000
  3. axis:    yes    0.000000    0.000000   10.000000    48     0.2083

Effective grid spacing dv^(1/3) = 0.2027

                     log10-error:    total        iterations:
           time      wfs    density  energy       fermi  poisson
iter:   1  09:33:41          +inf  -172.632929    3      5      
iter:   2  09:33:42         -1.87  -172.529306    3      2      
iter:   3  09:33:42         -2.10  -172.480058    3      2      
iter:   4  09:33:43         -2.40  -172.478905    2      2      
iter:   5  09:33:43         -2.56  -172.477375    2      2      
iter:   6  09:33:44         -2.68  -172.475555    2      2      
iter:   7  09:33:44         -2.86  -172.475865    2      2      
iter:   8  09:33:45         -3.15  -172.474043    2      1      
iter:   9  09:33:45         -3.26  -172.472862    2      1      
iter:  10  09:33:46         -3.52  -172.475298    2      1      
iter:  11  09:33:46         -3.67  -172.476495    2      1      
iter:  12  09:33:47         -3.81  -172.476517    2      1      
iter:  13  09:33:47         -3.90  -172.476456    2      1      
iter:  14  09:33:47         -3.97  -172.476396    2      1      
iter:  15  09:33:48         -4.05  -172.476221    1      1      

Converged after 15 iterations.

Dipole moment: (0.207906, -0.554452, 0.016845) |e|*Ang

Energy contributions relative to reference atoms: (reference = -24663.074771)

Kinetic:        +98.333674
Potential:     -108.557213
External:        +0.000000
XC:            -165.062037
Entropy (-ST):   -0.241965
Local:           +2.930339
--------------------------
Free energy:   -172.597203
Extrapolated:  -172.476221

Fermi level: -4.76618

 Band  Eigenvalues  Occupancy
    0    -23.63821    2.00000
    1    -22.04475    2.00000
    2    -21.86039    2.00000
    3    -20.98534    2.00000
    4    -20.41701    2.00000
    5    -20.05621    2.00000
    6    -19.53189    2.00000
    7    -19.08705    2.00000
    8    -18.65108    2.00000
    9    -18.53802    2.00000
   10    -17.97815    2.00000
   11    -17.23801    2.00000
   12    -16.62923    2.00000
   13    -15.86314    2.00000
   14    -15.12265    2.00000
   15    -14.83064    2.00000
   16    -14.43914    2.00000
   17    -14.02054    2.00000
   18    -13.35593    2.00000
   19    -12.87130    2.00000
   20    -12.83086    2.00000
   21    -12.24608    2.00000
   22    -11.80903    2.00000
   23    -11.42900    2.00000
   24    -11.11377    2.00000
   25    -10.98166    2.00000
   26     -9.93006    2.00000
   27     -9.84057    2.00000
   28     -9.75323    2.00000
   29     -9.59009    2.00000
   30     -8.79027    2.00000
   31     -8.56556    2.00000
   32     -8.52995    2.00000
   33     -8.43502    2.00000
   34     -7.99176    2.00000
   35     -7.39770    2.00000
   36     -7.27219    2.00000
   37     -7.00473    2.00000
   38     -6.87346    2.00000
   39     -6.56667    2.00000
   40     -6.35053    2.00000
   41     -6.19391    2.00000
   42     -6.12153    2.00000
   43     -6.03355    1.99999
   44     -5.98876    1.99999
   45     -5.29724    1.99017
   46     -5.13990    1.95347
   47     -4.90275    1.59336
   48     -4.64424    0.45608
   49     -4.14306    0.00393
   50     -4.08821    0.00227
   51     -3.97535    0.00074
   52     -3.22427    0.00000
   53     -2.72362    0.00000
   54     -2.31955    0.00000
   55     -2.22622    0.00000
   56     -2.10475    0.00000
   57     -1.34061    0.00000
   58     -1.31651    0.00000
   59     -1.17227    0.00000
   60     -1.11561    0.00000
   61     -0.24908    0.00000
   62     -0.11725    0.00000
   63      1.06124    0.00000
   64      1.65993    0.00000
   65      2.32430    0.00000
   66      2.38730    0.00000
   67      2.72776    0.00000
   68      3.00769    0.00000
   69      3.38940    0.00000
   70      3.52416    0.00000
   71      4.25861    0.00000
   72      4.75702    0.00000
   73      5.08900    0.00000
   74      5.50768    0.00000
   75      5.88593    0.00000
   76      6.02874    0.00000
   77      6.41060    0.00000
   78      6.70417    0.00000
   79      7.39701    0.00000
   80      7.59288    0.00000
   81      7.91664    0.00000
   82      8.25587    0.00000
   83      8.55492    0.00000
   84      8.68060    0.00000
   85      8.90065    0.00000
   86      9.04974    0.00000
   87      9.09863    0.00000
   88      9.29491    0.00000
   89      9.32848    0.00000
   90      9.38624    0.00000
   91      9.60182    0.00000
   92      9.79121    0.00000
   93      9.86825    0.00000
   94      9.98287    0.00000
   95     10.10072    0.00000
   96     10.16288    0.00000
   97     10.26940    0.00000


Forces in eV/Ang:
  0 C    -0.10724    0.24245    0.05385
  1 C    -0.86293    0.17101    0.19157
  2 C     0.81619    0.15743   -0.16241
  3 C     0.93341    1.66238    0.38440
  4 C     1.42357    0.29232   -0.07351
  5 C     0.04647    0.03858   -0.05155
  6 C    -0.25760    0.44276   -0.04637
  7 C    -0.35594    0.13104   -0.20563
  8 C     0.21272   -1.50140   -0.00332
  9 C     0.04677    0.37632    0.01920
 10 C     0.46220   -0.33070   -0.04644
 11 C    -0.23049   -0.15480   -0.01454
 12 C    -0.37647    0.92246    0.02460
 13 C     0.63553   -1.39961    0.42166
 14 C     0.24408   -0.61766    0.06449
 15 C     0.22151   -0.25294   -0.08297
 16 C     0.19544   -0.26164    0.07326
 17 C    -0.36584    0.75252   -0.05128
 18 C    -1.57369    0.02858   -0.20383
 19 C    -0.03665   -0.82169   -0.05796
 20 C    -1.01266    0.96814   -0.35108
 21 C    -0.54578   -0.59299   -0.01433
 22 C     0.79681   -0.54470    0.02255
 23 C    -0.40233    0.26469    0.00812

System changes: positions 

Initializing position-dependent things.

Density initialized from wave functions
           .--------------------------------------.  
          /|                                      |  
         / |                                      |  
        /  |                                      |  
       /   |                                      |  
      /    |                                      |  
     /     |                                      |  
    /      |                                      |  
   /       |                                      |  
[...]

Dipole moment: (0.029899, -2.161628, -0.109327) |e|*Ang

Energy contributions relative to reference atoms: (reference = -24663.074771)

Kinetic:       +110.736178
Potential:     -118.832552
External:        +0.000000
XC:            -171.692577
Entropy (-ST):   -0.230531
Local:           +2.977916
--------------------------
Free energy:   -177.041566
Extrapolated:  -176.926300

Fermi level: -5.07151

 Band  Eigenvalues  Occupancy
    0    -24.03282    2.00000
    1    -23.21166    2.00000
    2    -22.57850    2.00000
    3    -21.28641    2.00000
    4    -20.14648    2.00000
    5    -20.00753    2.00000
    6    -19.87391    2.00000
    7    -19.25164    2.00000
    8    -18.44645    2.00000
    9    -18.28550    2.00000
   10    -17.92165    2.00000
   11    -17.84088    2.00000
   12    -16.98206    2.00000
   13    -16.32101    2.00000
   14    -15.97273    2.00000
   15    -15.33028    2.00000
   16    -14.61296    2.00000
   17    -14.49333    2.00000
   18    -14.20969    2.00000
   19    -13.96590    2.00000
   20    -13.48990    2.00000
   21    -11.99568    2.00000
   22    -11.78302    2.00000
   23    -11.46113    2.00000
   24    -11.44021    2.00000
   25    -11.27794    2.00000
   26    -10.60493    2.00000
   27    -10.36388    2.00000
   28     -9.96138    2.00000
   29     -9.53033    2.00000
   30     -9.09065    2.00000
   31     -8.58218    2.00000
   32     -8.34488    2.00000
   33     -8.26457    2.00000
   34     -8.10010    2.00000
   35     -7.98213    2.00000
   36     -7.63097    2.00000
   37     -7.54524    2.00000
   38     -6.92909    2.00000
   39     -6.77982    2.00000
   40     -6.56162    2.00000
   41     -6.31832    1.99999
   42     -6.13122    1.99995
   43     -5.53247    1.98028
   44     -5.53020    1.97984
   45     -5.43143    1.94677
   46     -5.39613    1.92507
   47     -5.31288    1.83573
   48     -4.90677    0.32293
   49     -4.52371    0.00832
   50     -4.30297    0.00092
   51     -4.14934    0.00020
   52     -3.12722    0.00000
   53     -2.60281    0.00000
   54     -2.06016    0.00000
   55     -1.79744    0.00000
   56     -1.64295    0.00000
   57     -1.62672    0.00000
   58     -1.00721    0.00000
   59     -0.01616    0.00000
   60      0.75110    0.00000
   61      1.66510    0.00000
   62      1.78659    0.00000
   63      2.19395    0.00000
   64      2.48451    0.00000
   65      2.89523    0.00000
   66      2.94856    0.00000
   67      3.00888    0.00000
   68      3.42984    0.00000
   69      3.64685    0.00000
   70      4.26301    0.00000
   71      4.34675    0.00000
   72      4.52753    0.00000
   73      4.75800    0.00000
   74      5.25480    0.00000
   75      5.74243    0.00000
   76      6.09600    0.00000
   77      6.20970    0.00000
   78      6.50754    0.00000
   79      7.23680    0.00000
   80      7.24907    0.00000
   81      7.74203    0.00000
   82      8.05805    0.00000
   83      8.33041    0.00000
   84      8.48286    0.00000
   85      8.53083    0.00000
   86      8.79480    0.00000
   87      8.80461    0.00000
   88      8.98798    0.00000
   89      9.10093    0.00000
   90      9.25184    0.00000
   91      9.36330    0.00000
   92      9.49120    0.00000
   93      9.59968    0.00000
   94      9.71420    0.00000
   95      9.80206    0.00000
   96      9.87060    0.00000
   97     10.06831    0.00000


Forces in eV/Ang:
  0 C     0.06571    0.02632    0.00292
  1 C     0.04147   -0.01394   -0.02230
  2 C    -0.11245    0.06561   -0.00147
  3 C     0.04330   -0.01255   -0.01513
  4 C    -0.00885   -0.03900    0.00861
  5 C     0.04417   -0.01826    0.00819
  6 C     0.01916   -0.01045    0.01372
  7 C    -0.04263    0.02622   -0.00442
  8 C    -0.01935   -0.04106    0.01465
  9 C    -0.02065   -0.08506   -0.01968
 10 C    -0.06074    0.04459   -0.01167
 11 C    -0.00630   -0.21389    0.01191
 12 C    -0.01535    0.22020    0.02828
 13 C     0.06845   -0.04635    0.03288
 14 C     0.00856    0.09565   -0.00822
 15 C    -0.00276   -0.02651    0.00318
 16 C     0.06198    0.04338   -0.01139
 17 C     0.13331    0.06022    0.02810
 18 C     0.06575   -0.03711    0.01206
 19 C    -0.01986    0.02948    0.00513
 20 C    -0.06346    0.03991   -0.03490
 21 C     0.00188    0.08484    0.03916
 22 C    -0.10485   -0.13607    0.00587
 23 C    -0.06247   -0.01998    0.00434

System changes: positions 

Initializing position-dependent things.

Density initialized from wave functions
           .--------------------------------------.  
          /|                                      |  
         / |                                      |  
        /  |                                      |  
       /   |                                      |  
      /    |                                      |  
     /     |                                      |  
    /      |              C                       |  
   /       |             C                        |  
  /        |            C                         |  
 *         |           C                C  C      |  
 |         |  C       C           C  C            |  
 |         .----C--C--C-C--C---C------------------.  
 |        /    CC     C  C  C                    /   
 |       /         C C  C                       /    
 |      /                                      /     
 |     /                                      /      
 |    /                                      /       
 |   /                                      /        
 |  /                                      /         
 | /                                      /          
 |/                                      /           
 *--------------------------------------*            

Positions:
   0 C      6.280498    4.049492    4.943141
   1 C      7.122297    5.216405    4.732020
   2 C      4.920336    4.472499    4.966173
   3 C      8.452194    3.411701    5.076590
   4 C      7.237357    3.000224    5.135384
   5 C      4.231224    5.509396    4.863141
   6 C      6.741243    6.546636    4.601223
   7 C      5.598441    7.423717    4.621910
   8 C      4.205087    6.954245    4.730959
   9 C      6.308848    9.967595    4.627434
  10 C      6.478846    8.624783    4.580991
  11 C      6.502922   12.559296    4.755489
  12 C      6.707294   13.845454    4.887138
  13 C      7.656660    7.670816    4.555345
  14 C      6.417307   11.238888    4.685511
  15 C     11.642193    7.499538    4.873911
  16 C     12.642796    8.289951    4.934609
  17 C     14.695646    9.936344    5.063234
  18 C      9.418092    5.932479    4.766657
  19 C     10.385094    7.006397    4.778415
  20 C      8.990807    7.309192    4.629126
  21 C      8.565929    4.828224    4.835369
  22 C     13.713316    9.068686    5.003523
  23 C      3.148708    7.827196    4.699200

Unit cell:
           periodic     x           y           z      points  spacing
  1. axis:    yes   16.000000    0.000000    0.000000    80     0.2000
  2. axis:    yes    0.000000   16.000000    0.000000    80     0.2000
  3. axis:    yes    0.000000    0.000000   10.000000    48     0.2083

Effective grid spacing dv^(1/3) = 0.2027

                     log10-error:    total        iterations:
           time      wfs    density  energy       fermi  poisson
iter:   1  09:51:21          +inf  -176.932929    3      5      
iter:   2  09:51:22         -2.74  -176.931970    2      1      
iter:   3  09:51:22         -2.80  -176.927454    2      2      
iter:   4  09:51:23         -3.02  -176.930201    2      1      
iter:   5  09:51:23         -3.27  -176.926502    2      2      
iter:   6  09:51:24         -2.94  -176.926248    2      1      
iter:   7  09:51:24         -3.16  -176.929500    2      2      
iter:   8  09:51:25         -3.48  -176.929401    2      1      
iter:   9  09:51:25         -3.94  -176.928787    2      1      
iter:  10  09:51:26         -4.03  -176.928862    2      1      

Converged after 10 iterations.

Dipole moment: (0.081398, -2.145942, -0.113124) |e|*Ang

Energy contributions relative to reference atoms: (reference = -24663.074771)

Kinetic:       +110.537156
Potential:     -118.681896
External:        +0.000000
XC:            -171.641045
Entropy (-ST):   -0.230263
Local:           +2.972054
--------------------------
Free energy:   -177.043993
Extrapolated:  -176.928862

Fermi level: -5.06732

 Band  Eigenvalues  Occupancy
    0    -24.02867    2.00000
    1    -23.20435    2.00000
    2    -22.56965    2.00000
    3    -21.28079    2.00000
    4    -20.14403    2.00000
    5    -20.00462    2.00000
    6    -19.86749    2.00000
    7    -19.24874    2.00000
    8    -18.44419    2.00000
    9    -18.28361    2.00000
   10    -17.91091    2.00000
   11    -17.83989    2.00000
   12    -16.97288    2.00000
   13    -16.32060    2.00000
   14    -15.96592    2.00000
   15    -15.33844    2.00000
   16    -14.61117    2.00000
   17    -14.47816    2.00000
   18    -14.21095    2.00000
   19    -13.96674    2.00000
   20    -13.48092    2.00000
   21    -11.98751    2.00000
   22    -11.77305    2.00000
   23    -11.45394    2.00000
   24    -11.43543    2.00000
   25    -11.26730    2.00000
   26    -10.59930    2.00000
   27    -10.35938    2.00000
   28     -9.95390    2.00000
   29     -9.52442    2.00000
   30     -9.08741    2.00000
   31     -8.58221    2.00000
   32     -8.34918    2.00000
   33     -8.26434    2.00000
   34     -8.10285    2.00000
   35     -7.98104    2.00000
   36     -7.62272    2.00000
   37     -7.53886    2.00000
   38     -6.92475    2.00000
   39     -6.77798    2.00000
   40     -6.56002    2.00000
   41     -6.31479    1.99999
   42     -6.12825    1.99995
   43     -5.55025    1.98414
   44     -5.54374    1.98309
   45     -5.42095    1.94341
   46     -5.38767    1.92193
   47     -5.30704    1.83324
   48     -4.90333    0.32496
   49     -4.51696    0.00811
   50     -4.30492    0.00098
   51     -4.14407    0.00020
   52     -3.12852    0.00000
   53     -2.59428    0.00000
   54     -2.05400    0.00000
   55     -1.79325    0.00000
   56     -1.64275    0.00000
   57     -1.62829    0.00000
   58     -0.99480    0.00000
   59     -0.02415    0.00000
   60      0.74489    0.00000
   61      1.67031    0.00000
   62      1.78613    0.00000
   63      2.19255    0.00000
   64      2.48688    0.00000
   65      2.88077    0.00000
   66      2.93690    0.00000
   67      3.00978    0.00000
   68      3.42482    0.00000
   69      3.64204    0.00000
   70      4.26788    0.00000
   71      4.35241    0.00000
   72      4.52610    0.00000
   73      4.75755    0.00000
   74      5.26831    0.00000
   75      5.74963    0.00000
   76      6.12911    0.00000
   77      6.21524    0.00000
   78      6.51903    0.00000
   79      7.22436    0.00000
   80      7.27078    0.00000
   81      7.72948    0.00000
   82      8.03506    0.00000
   83      8.32720    0.00000
   84      8.48728    0.00000
   85      8.52637    0.00000
   86      8.79112    0.00000
   87      8.79651    0.00000
   88      8.99182    0.00000
   89      9.11057    0.00000
   90      9.24274    0.00000
   91      9.36969    0.00000
   92      9.50153    0.00000
   93      9.60537    0.00000
   94      9.71611    0.00000
   95      9.80252    0.00000
   96      9.87303    0.00000
   97     10.06813    0.00000


Forces in eV/Ang:
  0 C     0.01263    0.02768    0.01613
  1 C     0.05125    0.00294   -0.01212
  2 C    -0.05346    0.00996   -0.00393
  3 C     0.00840    0.00889   -0.01619
  4 C     0.01239   -0.01865    0.00803
  5 C    -0.00452    0.00259    0.00545
  6 C    -0.00429   -0.01307    0.02311
  7 C    -0.00343   -0.00609   -0.02275
  8 C     0.00361    0.01516    0.00146
  9 C    -0.02950   -0.03071   -0.02003
 10 C    -0.06321    0.00594    0.00085
 11 C    -0.01548   -0.05043    0.01045
 12 C    -0.03806    0.09741   -0.01446
 13 C    -0.00680   -0.00288    0.01756
 14 C     0.00122   -0.00884   -0.01801
 15 C    -0.04515   -0.04393    0.00204
 16 C     0.05137   -0.00541   -0.00716
 17 C     0.03509   -0.04663   -0.00084
 18 C     0.07280   -0.10274    0.00846
 19 C    -0.01750    0.06980   -0.00264
 20 C     0.00292    0.10033   -0.01157
 21 C     0.00906    0.04472    0.03061
 22 C     0.02381    0.00686   -0.00235
 23 C     0.01856    0.03923    0.01487

System changes: positions 

Initializing position-dependent things.

Density initialized from wave functions
           .--------------------------------------.  
          /|                                      |  
         / |                                      |  
        /  |                                      |  
       /   |                                      |  
      /    |                                      |  
     /     |                                      |  
    /      |              C                       |  
   /       |             C                        |  
  /        |            C                         |  
 *         |           C                C  C      |  
 |         |  C       C           C  C            |  
 |         .----C--C--C-C--C---C------------------.  
 |        /    CC     C  C  C                    /   
 |       /         C C  C                       /    
 |      /                                      /     
 |     /                                      /      
 |    /                                      /       
 |   /                                      /        
 |  /                                      /         
 | /                                      /          
 |/                                      /           
 *--------------------------------------*            

Positions:
   0 C      6.281540    4.049548    4.942570
   1 C      7.123549    5.216764    4.733429
   2 C      4.920943    4.472066    4.964899
   3 C      8.453013    3.411479    5.076897
   4 C      7.238316    2.999836    5.133972
   5 C      4.231939    5.509073    4.864126
   6 C      6.741990    6.546906    4.602048
   7 C      5.598751    7.423732    4.621727
   8 C      4.206123    6.953783    4.731339
   9 C      6.308653    9.968379    4.627790
  10 C      6.478120    8.625392    4.581211
  11 C      6.500253   12.560569    4.755457
  12 C      6.709910   13.847062    4.886628
  13 C      7.656650    7.671725    4.554879
  14 C      6.415785   11.240092    4.685747
  15 C     11.640771    7.501733    4.875241
  16 C     12.642947    8.290461    4.935245
  17 C     14.697153    9.934605    5.063979
  18 C      9.418976    5.932698    4.766923
  19 C     10.384705    7.007972    4.778029
  20 C      8.990862    7.310063    4.628238
  21 C      8.566854    4.828647    4.837359
  22 C     13.713822    9.068299    5.003871
  23 C      3.150529    7.827546    4.700441

Unit cell:
           periodic     x           y           z      points  spacing
  1. axis:    yes   16.000000    0.000000    0.000000    80     0.2000
  2. axis:    yes    0.000000   16.000000    0.000000    80     0.2000
  3. axis:    yes    0.000000    0.000000   10.000000    48     0.2083

Effective grid spacing dv^(1/3) = 0.2027

                     log10-error:    total        iterations:
           time      wfs    density  energy       fermi  poisson
iter:   1  09:51:28          +inf  -176.929558    2      4      
iter:   2  09:51:28         -3.18  -176.928810    2      1      
iter:   3  09:51:29         -3.35  -176.929500    2      1      
iter:   4  09:51:29         -3.63  -176.929542    2      1      
iter:   5  09:51:30         -3.82  -176.929723    2      1      
iter:   6  09:51:30         -4.02  -176.929567    2      1      

Converged after 6 iterations.

Dipole moment: (0.085907, -2.145126, -0.113665) |e|*Ang

Energy contributions relative to reference atoms: (reference = -24663.074771)

Kinetic:       +110.466828
Potential:     -118.627652
External:        +0.000000
XC:            -171.622693
Entropy (-ST):   -0.230487
Local:           +2.969194
--------------------------
Free energy:   -177.044810
Extrapolated:  -176.929567

Fermi level: -5.06601

 Band  Eigenvalues  Occupancy
    0    -24.02738    2.00000
    1    -23.20324    2.00000
    2    -22.56953    2.00000
    3    -21.28205    2.00000
    4    -20.14296    2.00000
    5    -20.00452    2.00000
    6    -19.86733    2.00000
    7    -19.24887    2.00000
    8    -18.44386    2.00000
    9    -18.28416    2.00000
   10    -17.91058    2.00000
   11    -17.83933    2.00000
   12    -16.97059    2.00000
   13    -16.32157    2.00000
   14    -15.96467    2.00000
   15    -15.33770    2.00000
   16    -14.61109    2.00000
   17    -14.47885    2.00000
   18    -14.21061    2.00000
   19    -13.96705    2.00000
   20    -13.48163    2.00000
   21    -11.98713    2.00000
   22    -11.77402    2.00000
   23    -11.45298    2.00000
   24    -11.43527    2.00000
   25    -11.26982    2.00000
   26    -10.60043    2.00000
   27    -10.35994    2.00000
   28     -9.95388    2.00000
   29     -9.52493    2.00000
   30     -9.08801    2.00000
   31     -8.58076    2.00000
   32     -8.34633    2.00000
   33     -8.26340    2.00000
   34     -8.10228    2.00000
   35     -7.97927    2.00000
   36     -7.62312    2.00000
   37     -7.53931    2.00000
   38     -6.92445    2.00000
   39     -6.77730    2.00000
   40     -6.56114    2.00000
   41     -6.31507    1.99999
   42     -6.12868    1.99995
   43     -5.54884    1.98413
   44     -5.54707    1.98385
   45     -5.41883    1.94296
   46     -5.38449    1.92051
   47     -5.30610    1.83378
   48     -4.90224    0.32555
   49     -4.51549    0.00810
   50     -4.30465    0.00099
   51     -4.14347    0.00020
   52     -3.12796    0.00000
   53     -2.59557    0.00000
   54     -2.05474    0.00000
   55     -1.79190    0.00000
   56     -1.64419    0.00000
   57     -1.63004    0.00000
   58     -0.99603    0.00000
   59     -0.02597    0.00000
   60      0.74653    0.00000
   61      1.66396    0.00000
   62      1.78703    0.00000
   63      2.19557    0.00000
   64      2.48658    0.00000
   65      2.87645    0.00000
   66      2.93481    0.00000
   67      3.00938    0.00000
   68      3.42521    0.00000
   69      3.63650    0.00000
   70      4.26677    0.00000
   71      4.35488    0.00000
   72      4.52478    0.00000
   73      4.75402    0.00000
   74      5.27010    0.00000
   75      5.75089    0.00000
   76      6.12966    0.00000
   77      6.21786    0.00000
   78      6.51788    0.00000
   79      7.22910    0.00000
   80      7.27670    0.00000
   81      7.72675    0.00000
   82      8.03153    0.00000
   83      8.32644    0.00000
   84      8.48773    0.00000
   85      8.52638    0.00000
   86      8.79001    0.00000
   87      8.79670    0.00000
   88      8.99166    0.00000
   89      9.10833    0.00000
   90      9.24164    0.00000
   91      9.36977    0.00000
   92      9.50175    0.00000
   93      9.60498    0.00000
   94      9.71520    0.00000
   95      9.80019    0.00000
   96      9.87297    0.00000
   97     10.06520    0.00000


Forces in eV/Ang:
  0 C     0.00691    0.02766    0.01805
  1 C     0.04040    0.00810   -0.00754
  2 C    -0.03455   -0.00152   -0.00111
  3 C     0.01679    0.01941   -0.01623
  4 C    -0.00177   -0.02180    0.01134
  5 C    -0.00964    0.01097   -0.00623
  6 C    -0.00841    0.00116    0.01771
  7 C     0.00885   -0.00753   -0.01371
  8 C    -0.01876    0.00669    0.00594
  9 C    -0.03609   -0.02039   -0.01923
 10 C    -0.04753    0.00075   -0.00857
 11 C     0.02246    0.00448    0.02469
 12 C    -0.05769    0.04160   -0.01281
 13 C    -0.00093   -0.01977    0.02580
 14 C    -0.00428   -0.02711   -0.01677
 15 C     0.00503   -0.02936   -0.00039
 16 C     0.02462   -0.01753   -0.00608
 17 C     0.04393   -0.03450    0.01751
 18 C     0.06036   -0.07398    0.00923
 19 C    -0.02560    0.06072    0.00168
 20 C    -0.00122    0.08694   -0.00705
 21 C     0.01199    0.03931    0.01820
 22 C     0.02627    0.01706    0.00241
 23 C    -0.02752    0.00382    0.01531

