
  ___ ___ ___ _ _ _  
 |   |   |_  | | | | 
 | | | | | . | | | | 
 |__ |  _|___|_____|  1.3.0b1
 |___|_|             

User:   esb@s65n82.grendel.cscaa.dk
Date:   Thu Nov  9 10:02:35 2017
Arch:   x86_64
Pid:    64833
Python: 2.7.13
gpaw:   /home/esb/DFT/gpaw_git/gpaw
_gpaw:  /home/esb/DFT/gpaw_git/build/bin.linux-x86_64-2.7/gpaw-python
ase:    /home/esb/DFT/ase_git/ase (version 3.15.0b1)
numpy:  /comm/swstack/core/python/2.7.13/lib/python2.7/site-packages/numpy (version 1.13.3)
scipy:  /comm/swstack/core/python/2.7.13/lib/python2.7/site-packages/scipy (version 0.19.1)
units:  Angstrom and eV
cores:  16
Extra parameters: {'blacs': True}

Input parameters:
  basis: dzp
  gpts: [80 80 48]
  kpts: [1 1 1]
  maxiter: 99
  mixer: {backend: pulay,
          beta: 0.05,
          method: separate,
          nmaxold: 5,
          weight: 75}
  mode: lcao
  nbands: -50
  occupations: {name: fermi-dirac,
                width: 0.1}
  poissonsolver: {eps: 1e-07,
                  name: fd,
                  nn: 3,
                  relax: GS}
  xc: PBE

System changes: positions, numbers, cell, pbc, initial_charges, initial_magmoms 

Initialize ...

C-setup:
  name: Carbon
  id: 4aa54d4b901d75f77cc0ea3eec22967b
  Z: 6
  valence: 4
  core: 2
  charge: 0.0
  file: /home/esb/DFT/gpaw-setups-0.8.7929/C.PBE.gz
  cutoffs: 0.64(comp), 1.14(filt), 1.14(core), lmax=2
  valence states:
                energy  radius
    2s(2.00)   -13.751   0.635
    2p(2.00)    -5.284   0.635
    *s          13.461   0.635
    *p          21.927   0.635
    *d           0.000   0.635

  LCAO basis set for C:
    Name: dzp
    File: /home/esb/DFT/gpaw-setups-0.8.7929/C.dzp.basis.gz
    Number of radial functions: 5
    Number of spherical harmonics: 13
      l=0, rc=5.5469 Bohr: 2s-sz confined orbital
      l=1, rc=6.6719 Bohr: 2p-sz confined orbital
      l=0, rc=3.0312 Bohr: 2s-dz split-valence wave
      l=1, rc=3.7500 Bohr: 2p-dz split-valence wave
      l=2, rc=6.6719 Bohr: d-type Gaussian polarization

Reference energy: -24663.074771

Spin-paired calculation

Occupation numbers:
  Fermi-Dirac: width=0.1000 eV

Convergence criteria:
  Maximum total energy change: 0.0005 eV / electron
  Maximum integral of absolute density change: 0.0001 electrons
  Maximum integral of absolute eigenstate change: 4e-08 eV^2
  Maximum number of iterations: 99

Symmetries present (total): 1

  ( 1  0  0)
  ( 0  1  0)
  ( 0  0  1)

1 k-point (Gamma)
1 k-point in the irreducible part of the Brillouin zone
       k-points in crystal coordinates                weights
   0:     0.00000000    0.00000000    0.00000000          1/1

Wave functions: LCAO
  Diagonalizer: Serial LAPACK
  Atomic Correction: dense with blas
  Datatype: float
  Eigensolver: None 

LCAO using direct dense diagonalizer 

Densities:
  Coarse grid: 80*80*48 grid
  Fine grid: 160*160*96 grid
  Total Charge: 0.000000 

Density mixing:
  Method: separate
  Backend: pulay
  Linear mixing parameter: 0.05
  Mixing with 5 old densities
  Damping of long wave oscillations: 75 

Hamiltonian:
  XC and Coulomb potentials evaluated on a 160*160*96 grid
  Using the PBE Exchange-Correlation functional
  Interpolation: tri-quintic (5. degree polynomial)
  Poisson solver: Gauss-Seidel solver with 6 multi-grid levels
    Coarsest grid: 5 x 5 x 3 points
    Stencil: 6*3+1=19 point O(h^6) finite-difference Laplacian
    Max iterations: 1000
    Tolerance: 1.000000e-07 

Memory estimate:
  Process memory now: 79.55 MiB
  Calculator: 15.59 MiB
    Density: 6.13 MiB
      Arrays: 3.81 MiB
      Localized functions: 0.86 MiB
      Mixer: 1.46 MiB
    Hamiltonian: 5.40 MiB
      Arrays: 2.49 MiB
      XC: 0.00 MiB
      Poisson: 2.85 MiB
      vbar: 0.07 MiB
    Wavefunctions: 4.05 MiB
      C [qnM]: 0.23 MiB
      S, T [2 x qmm]: 1.49 MiB
      P [aqMi]: 0.01 MiB
      TCI: 0.00 MiB
      BasisFunctions: 2.33 MiB
      Eigensolver: 0.00 MiB

Total number of cores used: 16
Domain decomposition: 2 x 4 x 2

Number of atoms: 24
Number of atomic orbitals: 312
Number of bands in calculation: 98
Bands to converge: occupied states only
Number of valence electrons: 96

... initialized

Initializing position-dependent things.

Density initialized from atomic densities
           .--------------------------------------.  
          /|                                      |  
         / |                                      |  
        /  |                                      |  
       /   |                                      |  
      /    |                                      |  
     /     |                                      |  
    /      |                                      |  
   /       |              C  C  C                 |  
  /        |        C   C     C CC                |  
 *         |  C  C        C    C    C             |  
 |         C  C  C  C    C  C       C             |  
 |         .--------------------------------------.  
 |        /          C    C                      /   
 |       /     C C                              /    
 |      /                                      /     
 |     /                                      /      
 |    /                                      /       
 |   /                                      /        
 |  /                                      /         
 | /                                      /          
 |/                                      /           
 *--------------------------------------*            

Positions:
   0 C      4.334405    9.192652    5.387182
   1 C      4.785273    7.735214    5.441031
   2 C      2.966481    8.837768    4.997802
   3 C      3.539421    7.177636    5.063123
   4 C      2.262896    7.677107    4.824522
   5 C      5.086087   10.301841    5.456508
   6 C      6.090910    7.249879    5.556812
   7 C      9.719381   11.622443    5.231542
   8 C     11.647281    9.898995    4.757997
   9 C     10.377465   10.361208    5.175915
  10 C      7.172089   11.844728    5.482773
  11 C      8.484206   11.936390    5.419579
  12 C     12.289500    8.842986    4.473229
  13 C      4.721990    4.126056    4.903132
  14 C      5.740551    3.387568    4.956784
  15 C      7.036786    3.769117    5.384702
  16 C     10.759126    6.972609    6.967925
  17 C      9.716283    7.935086    6.999952
  18 C     10.745136    5.749104    6.669709
  19 C      9.619129    4.987979    6.268930
  20 C      8.479059    7.237264    6.527302
  21 C      8.383408    5.815244    6.177413
  22 C      9.365741    3.655230    5.932901
  23 C      7.279238    7.958209    6.384313

Unit cell:
           periodic     x           y           z      points  spacing
  1. axis:    yes   16.000000    0.000000    0.000000    80     0.2000
  2. axis:    yes    0.000000   16.000000    0.000000    80     0.2000
  3. axis:    yes    0.000000    0.000000   10.000000    48     0.2083

Effective grid spacing dv^(1/3) = 0.2027

                     log10-error:    total        iterations:
           time      wfs    density  energy       fermi  poisson
iter:   1  10:02:36          +inf  -162.216558    2      6      
iter:   2  10:02:37         -0.86  -160.055073    3      3      
iter:   3  10:02:37         -0.90  -158.540172    4      3      
iter:   4  10:02:38         -0.95  -157.698365    3      3      
iter:   5  10:02:38         -1.04  -156.900329    36     3      
iter:   6  10:02:39         -1.18  -156.598030    3      2      
iter:   7  10:02:40         -1.25  -156.284498    4      3      
iter:   8  10:02:40         -1.51  -156.232368    3      3      
iter:   9  10:02:41         -1.65  -156.206098    3      3      
iter:  10  10:02:41         -1.78  -156.154520    3      3      
iter:  11  10:02:42         -1.96  -156.143438    3      2      
iter:  12  10:02:42         -2.08  -156.137807    3      2      
iter:  13  10:02:43         -2.19  -156.137919    3      2      
iter:  14  10:02:43         -2.29  -156.135504    3      2      
iter:  15  10:02:44         -2.48  -156.133903    3      2      
iter:  16  10:02:44         -2.56  -156.132181    3      2      
iter:  17  10:02:45         -2.71  -156.131870    3      2      
iter:  18  10:02:45         -2.83  -156.132374    3      2      
iter:  19  10:02:46         -3.03  -156.142240    2      1      
iter:  20  10:02:46         -3.23  -156.138295    2      1      
iter:  21  10:02:47         -3.36  -156.132590    2      1      
iter:  22  10:02:47         -3.43  -156.132959    2      1      
iter:  23  10:02:48         -3.51  -156.131607    2      1      
iter:  24  10:02:48         -3.56  -156.129194    2      1      
iter:  25  10:02:49         -3.73  -156.128369    2      1      
iter:  26  10:02:49         -4.02  -156.130089    2      1      

Converged after 26 iterations.

Dipole moment: (-0.395062, -0.465223, 0.299438) |e|*Ang

Energy contributions relative to reference atoms: (reference = -24663.074771)

Kinetic:        +88.591185
Potential:     -101.788258
External:        +0.000000
XC:            -145.325729
Entropy (-ST):   -0.637276
Local:           +2.711350
--------------------------
Free energy:   -156.448727
Extrapolated:  -156.130089

Fermi level: -4.88327

 Band  Eigenvalues  Occupancy
    0    -23.90954    2.00000
    1    -22.19473    2.00000
    2    -20.38179    2.00000
    3    -20.35160    2.00000
    4    -20.16243    2.00000
    5    -20.02240    2.00000
    6    -19.51199    2.00000
    7    -18.82153    2.00000
    8    -18.72079    2.00000
    9    -17.12715    2.00000
   10    -17.04566    2.00000
   11    -16.56057    2.00000
   12    -16.06158    2.00000
   13    -15.86393    2.00000
   14    -15.33154    2.00000
   15    -15.05408    2.00000
   16    -14.23487    2.00000
   17    -12.78656    2.00000
   18    -12.28856    2.00000
   19    -12.20749    2.00000
   20    -11.82108    2.00000
   21    -11.38310    2.00000
   22    -10.63831    2.00000
   23    -10.24619    2.00000
   24    -10.03757    2.00000
   25     -9.39503    2.00000
   26     -8.76881    2.00000
   27     -8.67374    2.00000
   28     -8.61983    2.00000
   29     -8.45402    2.00000
   30     -8.35170    2.00000
   31     -8.29819    2.00000
   32     -8.13402    2.00000
   33     -7.69005    2.00000
   34     -7.62455    2.00000
   35     -7.27417    2.00000
   36     -7.11132    2.00000
   37     -7.05069    2.00000
   38     -6.98908    2.00000
   39     -6.91361    2.00000
   40     -6.86932    2.00000
   41     -6.62213    2.00000
   42     -5.60536    1.99854
   43     -5.46681    1.99417
   44     -5.30761    1.97169
   45     -5.14113    1.85895
   46     -5.02465    1.60873
   47     -4.90938    1.12985
   48     -4.81967    0.69230
   49     -4.78358    0.53912
   50     -4.60063    0.11183
   51     -4.57266    0.08572
   52     -4.30966    0.00643
   53     -4.22082    0.00265
   54     -3.49495    0.00000
   55     -3.28682    0.00000
   56     -3.02374    0.00000
   57     -2.98957    0.00000
   58     -2.75464    0.00000
   59     -2.41540    0.00000
   60     -2.14595    0.00000
   61     -2.03278    0.00000
   62     -1.08183    0.00000
   63     -0.92002    0.00000
   64     -0.05137    0.00000
   65      0.44674    0.00000
   66      0.83132    0.00000
   67      0.92447    0.00000
   68      1.18582    0.00000
   69      1.55574    0.00000
   70      1.86454    0.00000
   71      2.98520    0.00000
   72      3.17638    0.00000
   73      3.34637    0.00000
   74      4.98717    0.00000
   75      5.24772    0.00000
   76      5.60233    0.00000
   77      6.28483    0.00000
   78      6.68948    0.00000
   79      6.72833    0.00000
   80      7.01405    0.00000
   81      7.14530    0.00000
   82      7.56323    0.00000
   83      7.73125    0.00000
   84      8.18776    0.00000
   85      8.24956    0.00000
   86      8.45730    0.00000
   87      8.69473    0.00000
   88      8.79159    0.00000
   89      8.90367    0.00000
   90      9.02003    0.00000
   91      9.15214    0.00000
   92      9.18084    0.00000
   93      9.35794    0.00000
   94      9.45676    0.00000
   95      9.65444    0.00000
   96      9.74774    0.00000
   97      9.91914    0.00000


Forces in eV/Ang:
  0 C     0.53467   -0.34937    0.08872
  1 C     1.98517   -0.15982   -0.27917
  2 C     0.01947    0.16841   -0.07811
  3 C    -0.54097   -0.07809   -0.10507
  4 C    -0.90292   -0.66331   -0.18423
  5 C    -0.42137    0.45905    0.06212
  6 C     2.73645    3.52551    3.79891
  7 C     3.03947   -4.85654   -0.08858
  8 C    -5.14165    2.77813    1.92759
  9 C     2.99524    3.16240   -1.08499
 10 C     0.15467    0.71334    0.10732
 11 C    -3.03260    0.74089    0.30693
 12 C     2.22745   -2.84854   -0.90794
 13 C    -4.00748    2.87260   -0.24958
 14 C     7.55974   -1.29701    1.50496
 15 C    -1.24826   -0.72180   -0.50681
 16 C    -1.01146    1.96954   -0.01349
 17 C     0.71977   -1.53063   -0.28695
 18 C     0.54193   -1.17590    0.03158
 19 C    -1.42290   -0.17536   -0.37123
 20 C     0.45126    0.62335    0.21589
 21 C    -0.24486    0.34518   -0.26242
 22 C    -0.46003   -0.56184   -0.24333
 23 C    -4.51917   -3.00879   -3.42695

System changes: positions 

Initializing position-dependent things.

Density initialized from wave functions
           .--------------------------------------.  
          /|                                      |  
         / |                                      |  
        /  |                                      |  
       /   |                                      |  
      /    |                                      |  
     /     |                                      |  
    /      |                                      |  
   /       |              C  C  C                 |  
  /        |        C   C     C CC                |  
 *         |  C  C        C    C    C             |  
 |         C  C   C C    C  C        C            |  
 |         .--------------------------------------.  
 |        /         C     C                      /   
 |       /     C C                              /    
 |      /                                      /     
 |     /                                      /      
 |    /                                      /       
 |   /                                      /        
 |  /                                      /         
 | /                                      /          
 |/                                      /           
 *--------------------------------------*            

Positions:
   0 C      4.337142    9.190864    5.387636
   1 C      4.795432    7.734396    5.439602
   2 C      2.966581    8.838630    4.997402
   3 C      3.536653    7.177236    5.062586
   4 C      2.258276    7.673713    4.823579
   5 C      5.083931   10.304190    5.456825
   6 C      6.104913    7.267920    5.576253
   7 C      9.734935   11.597590    5.231088
   8 C     11.620969    9.913211    4.767862
   9 C     10.392793   10.377392    5.170363
  10 C      7.172881   11.848378    5.483322
  11 C      8.468686   11.940182    5.421150
  12 C     12.300898    8.828409    4.468582
  13 C      4.701482    4.140756    4.901854
  14 C      5.779237    3.380931    4.964486
  15 C      7.030399    3.765423    5.382109
  16 C     10.753950    6.982688    6.967856
  17 C      9.719967    7.927253    6.998484
  18 C     10.747910    5.743087    6.669870
  19 C      9.611848    4.987082    6.267031
  20 C      8.481368    7.240454    6.528407
  21 C      8.382155    5.817011    6.176070
  22 C      9.363387    3.652355    5.931656
  23 C      7.256111    7.942812    6.366776

Unit cell:
           periodic     x           y           z      points  spacing
  1. axis:    yes   16.000000    0.000000    0.000000    80     0.2000
  2. axis:    yes    0.000000   16.000000    0.000000    80     0.2000
  3. axis:    yes    0.000000    0.000000   10.000000    48     0.2083

Effective grid spacing dv^(1/3) = 0.2027

                     log10-error:    total        iterations:
           time      wfs    density  energy       fermi  poisson
iter:   1  10:02:51          +inf  -157.518881    4      5      
iter:   2  10:02:51         -1.71  -157.384959    3      2      
iter:   3  10:02:52         -1.94  -157.324323    3      2      
iter:   4  10:02:52         -2.13  -157.310374    2      2      
iter:   5  10:02:53         -2.22  -157.303446    2      2      
iter:   6  10:02:53         -2.40  -157.301995    2      2      
iter:   7  10:02:54         -2.52  -157.303569    2      2      
iter:   8  10:02:54         -2.64  -157.304283    2      2      
iter:   9  10:02:55         -2.83  -157.303983    2      2      
iter:  10  10:02:55         -2.97  -157.303021    2      2      
iter:  11  10:02:56         -3.18  -157.302356    2      1      
iter:  12  10:02:56         -3.28  -157.302145    2      1      
iter:  13  10:02:57         -3.40  -157.301711    2      1      
iter:  14  10:02:57         -3.58  -157.302399    2      1      
iter:  15  10:02:58         -3.71  -157.302366    2      1      
iter:  16  10:02:58         -3.83  -157.302298    2      1      
iter:  17  10:02:59         -3.99  -157.302509    2      1      
iter:  18  10:02:59         -4.09  -157.302517    2      1      

Converged after 18 iterations.

Dipole moment: (-0.391038, -0.539333, 0.261443) |e|*Ang

Energy contributions relative to reference atoms: (reference = -24663.074771)

Kinetic:        +81.581379
Potential:      -96.743994
External:        +0.000000
XC:            -144.548480
Entropy (-ST):   -0.652363
Local:           +2.734759
--------------------------
Free energy:   -157.628699
Extrapolated:  -157.302517

Fermi level: -4.85868

 Band  Eigenvalues  Occupancy
    0    -23.79633    2.00000
    1    -22.12046    2.00000
    2    -20.36572    2.00000
    3    -20.31986    2.00000
    4    -20.10046    2.00000
    5    -19.96199    2.00000
    6    -19.46271    2.00000
    7    -18.78692    2.00000
    8    -18.66901    2.00000
    9    -17.12139    2.00000
   10    -17.07571    2.00000
   11    -16.54386    2.00000
   12    -16.10601    2.00000
   13    -15.77870    2.00000
   14    -15.23335    2.00000
   15    -14.99682    2.00000
   16    -14.13355    2.00000
   17    -12.89922    2.00000
   18    -12.48261    2.00000
   19    -12.14955    2.00000
   20    -11.73504    2.00000
   21    -11.33183    2.00000
   22    -10.57524    2.00000
   23    -10.34301    2.00000
   24     -9.98553    2.00000
   25     -9.36099    2.00000
   26     -8.75329    2.00000
   27     -8.66648    2.00000
   28     -8.59085    2.00000
   29     -8.46383    2.00000
   30     -8.33207    2.00000
   31     -8.27345    2.00000
   32     -8.10056    2.00000
   33     -7.66649    2.00000
   34     -7.60339    2.00000
   35     -7.22086    2.00000
   36     -7.18470    2.00000
   37     -7.09175    2.00000
   38     -7.00524    2.00000
   39     -6.95416    2.00000
   40     -6.84166    2.00000
   41     -6.60880    2.00000
   42     -5.74477    1.99972
   43     -5.39950    1.99108
   44     -5.28057    1.97100
   45     -5.09252    1.82402
   46     -4.98391    1.55539
   47     -4.87815    1.09707
   48     -4.80911    0.75711
   49     -4.78416    0.64376
   50     -4.56874    0.10437
   51     -4.48783    0.04786
   52     -4.27891    0.00605
   53     -4.19348    0.00258
   54     -3.41539    0.00000
   55     -3.27658    0.00000
   56     -2.97922    0.00000
   57     -2.86810    0.00000
   58     -2.70361    0.00000
   59     -2.32680    0.00000
   60     -2.04113    0.00000
   61     -2.00084    0.00000
   62     -1.28867    0.00000
   63     -0.84924    0.00000
   64     -0.05117    0.00000
   65      0.35794    0.00000
   66      0.80827    0.00000
   67      0.88090    0.00000
   68      1.02230    0.00000
   69      1.50912    0.00000
   70      1.80708    0.00000
   71      3.16061    0.00000
   72      3.30359    0.00000
   73      3.42711    0.00000
   74      4.99739    0.00000
   75      5.32618    0.00000
   76      5.76021    0.00000
   77      6.37720    0.00000
   78      6.75450    0.00000
   79      6.84019    0.00000
   80      7.02271    0.00000
   81      7.23385    0.00000
   82      7.58340    0.00000
   83      7.76740    0.00000
   84      8.33994    0.00000
   85      8.36824    0.00000
   86      8.43873    0.00000
   87      8.68781    0.00000
   88      8.84822    0.00000
   89      8.94145    0.00000
   90      8.99465    0.00000
   91      9.18705    0.00000
   92      9.24367    0.00000
   93      9.39595    0.00000
   94      9.49458    0.00000
   95      9.67052    0.00000
   96      9.75266    0.00000
   97      9.91439    0.00000


Forces in eV/Ang:
  0 C     0.61596   -0.31445    0.07659
  1 C     1.21324   -0.17850   -0.37807
  2 C    -0.14461   -0.09392   -0.13673
  3 C     0.00943    0.06126    0.02373
  4 C    -0.71852   -0.37355   -0.11103
  5 C    -0.42025    0.44719    0.05285
  6 C     2.84038    3.67022    3.79462
  7 C     0.52001   -3.49713    0.28970
  8 C    -2.20362   -0.39501    0.80976
  9 C     2.11235    3.09805   -0.77030
 10 C    -0.45817    0.55448    0.13144
 11 C    -0.43141    0.20823   -0.01537
 12 C     0.63216   -0.30869   -0.19747
 13 C    -0.54583    0.32496   -0.08172
 14 C     2.71715    0.84504    0.87610
 15 C     0.15049   -0.41044   -0.06908
 16 C    -0.77058    0.85222   -0.23918
 17 C     0.36978   -1.47042   -0.31285
 18 C     0.46730   -0.43873    0.22161
 19 C    -1.19649    0.02304   -0.32057
 20 C     0.15292    0.81594    0.17972
 21 C    -0.23981    0.50511   -0.19326
 22 C    -0.53522   -0.58064   -0.26648
 23 C    -4.14808   -3.41853   -3.39961

System changes: positions 

Initializing position-dependent things.

Density initialized from wave functions
           .--------------------------------------.  
          /|                                      |  
         / |                                      |  
        /  |                                      |  
       /   |                                      |  
      /    |                                      |  
     /     |                                      |  
    /      |                                      |  
   /       |              C  C  C                 |  
  /        |        C   C     C CC                |  
 *         |  C  C        C    C   C              |  
 |         C  C   C C    C  C        C            |  
 |         .--------------------------------------.  
 |        /         C     C                      /   
 |       /     C C                              /    
 |      /                                      /     
 |     /                                      /      
 |    /                                      /       
 |   /                                      /        
 |  /                                      /         
 | /                                      /          
 |/                                      /           
 *--------------------------------------*            

Positions:
   0 C      4.341048    9.188899    5.388114
   1 C      4.802769    7.733266    5.437186
   2 C      2.965608    8.837939    4.996519
   3 C      3.536923    7.177675    5.062784
   4 C      2.253826    7.671474    4.822908
   5 C      5.081287   10.306999    5.457154
   6 C      6.122823    7.291066    5.600124
   7 C      9.737241   11.576109    5.233056
   8 C     11.608231    9.909511    4.772528
   9 C     10.405744   10.396858    5.165637
  10 C      7.169764   11.851806    5.484158
  11 C      8.466969   11.941288    5.420930
  12 C     12.304265    8.827440    4.467612
  13 C      4.699374    4.141825    4.901405
  14 C      5.794477    3.387068    4.969757
  15 C      7.031881    3.762960    5.381842
  16 C     10.749194    6.987621    6.966265
  17 C      9.722159    7.918025    6.996505
  18 C     10.750821    5.740609    6.671337
  19 C      9.604407    4.987303    6.265033
  20 C      8.482216    7.245661    6.529524
  21 C      8.380648    5.820250    6.174881
  22 C      9.359991    3.648694    5.929970
  23 C      7.230156    7.921148    6.345398

Unit cell:
           periodic     x           y           z      points  spacing
  1. axis:    yes   16.000000    0.000000    0.000000    80     0.2000
  2. axis:    yes    0.000000   16.000000    0.000000    80     0.2000
  3. axis:    yes    0.000000    0.000000   10.000000    48     0.2083

Effective grid spacing dv^(1/3) = 0.2027

                     log10-error:    total        iterations:
           time      wfs    density  energy       fermi  poisson
iter:   1  10:03:01          +inf  -158.276995    3      5      
iter:   2  10:03:01         -1.74  -158.141396    3      2      
iter:   3  10:03:02         -1.99  -158.082466    3      2      
iter:   4  10:03:02         -2.17  -158.070546    3      2      
iter:   5  10:03:03         -2.24  -158.063629    2      2      
iter:   6  10:03:03         -2.33  -158.057642    2      2      
iter:   7  10:03:04         -2.52  -158.058189    2      2      
iter:   8  10:03:04         -2.62  -158.059061    2      2      
iter:   9  10:03:05         -2.82  -158.059876    2      2      
iter:  10  10:03:05         -2.94  -158.059207    2      2      
iter:  11  10:03:06         -3.10  -158.057421    2      1      
iter:  12  10:03:06         -3.30  -158.057923    2      1      
iter:  13  10:03:07         -3.38  -158.058125    2      1      
iter:  14  10:03:07         -3.48  -158.057423    2      1      
iter:  15  10:03:08         -3.72  -158.058328    2      1      
iter:  16  10:03:08         -3.81  -158.058220    2      1      
iter:  17  10:03:09         -3.95  -158.058157    2      1      
iter:  18  10:03:09         -4.09  -158.058619    2      1      

Converged after 18 iterations.

Dipole moment: (-0.387320, -0.541179, 0.258823) |e|*Ang

Energy contributions relative to reference atoms: (reference = -24663.074771)

Kinetic:        +81.117465
Potential:      -96.437606
External:        +0.000000
XC:            -145.159948
Entropy (-ST):   -0.662991
Local:           +2.752965
--------------------------
Free energy:   -158.390114
Extrapolated:  -158.058619

Fermi level: -4.87096

 Band  Eigenvalues  Occupancy
    0    -23.70342    2.00000
    1    -22.08666    2.00000
    2    -20.39451    2.00000
    3    -20.35132    2.00000
    4    -20.15723    2.00000
    5    -19.92323    2.00000
    6    -19.47223    2.00000
    7    -18.79047    2.00000
    8    -18.62895    2.00000
    9    -17.17853    2.00000
   10    -17.15464    2.00000
   11    -16.55390    2.00000
   12    -16.16256    2.00000
   13    -15.70887    2.00000
   14    -15.23217    2.00000
   15    -14.95421    2.00000
   16    -14.07905    2.00000
   17    -13.05794    2.00000
   18    -12.69325    2.00000
   19    -12.10333    2.00000
   20    -11.68277    2.00000
   21    -11.30598    2.00000
   22    -10.58475    2.00000
   23    -10.43106    2.00000
   24     -9.95527    2.00000
   25     -9.34149    2.00000
   26     -8.78746    2.00000
   27     -8.69146    2.00000
   28     -8.64677    2.00000
   29     -8.49951    2.00000
   30     -8.34115    2.00000
   31     -8.28722    2.00000
   32     -8.11429    2.00000
   33     -7.68083    2.00000
   34     -7.61385    2.00000
   35     -7.25357    2.00000
   36     -7.19767    2.00000
   37     -7.11672    2.00000
   38     -6.99277    2.00000
   39     -6.94316    2.00000
   40     -6.79254    2.00000
   41     -6.62363    2.00000
   42     -5.78148    1.99978
   43     -5.37423    1.98704
   44     -5.28177    1.96765
   45     -5.07450    1.76892
   46     -4.99067    1.53601
   47     -4.88123    1.05131
   48     -4.83701    0.83187
   49     -4.81759    0.73930
   50     -4.57149    0.09533
   51     -4.38989    0.01615
   52     -4.26467    0.00464
   53     -4.17976    0.00199
   54     -3.33813    0.00000
   55     -3.25911    0.00000
   56     -2.92113    0.00000
   57     -2.80332    0.00000
   58     -2.62573    0.00000
   59     -2.23664    0.00000
   60     -1.98405    0.00000
   61     -1.95320    0.00000
   62     -1.25275    0.00000
   63     -0.80085    0.00000
   64     -0.03698    0.00000
   65      0.41006    0.00000
   66      0.81314    0.00000
   67      0.94165    0.00000
   68      1.06239    0.00000
   69      1.50268    0.00000
   70      1.85810    0.00000
   71      3.20806    0.00000
   72      3.48008    0.00000
   73      3.56715    0.00000
   74      5.00339    0.00000
   75      5.38171    0.00000
   76      5.94011    0.00000
   77      6.45379    0.00000
   78      6.70797    0.00000
   79      6.86462    0.00000
   80      6.95891    0.00000
   81      7.35300    0.00000
   82      7.56010    0.00000
   83      7.86624    0.00000
   84      8.36516    0.00000
   85      8.39526    0.00000
   86      8.44838    0.00000
   87      8.68232    0.00000
   88      8.84092    0.00000
   89      8.97088    0.00000
   90      9.00150    0.00000
   91      9.19971    0.00000
   92      9.32487    0.00000
   93      9.42807    0.00000
   94      9.51728    0.00000
   95      9.66764    0.00000
   96      9.76946    0.00000
   97      9.90418    0.00000


Forces in eV/Ang:
  0 C     0.56913   -0.31525    0.02559
  1 C     0.64560   -0.22988   -0.44109
  2 C    -0.29174   -0.30836   -0.17465
  3 C     0.41480    0.15543    0.11253
  4 C    -0.40588   -0.09000   -0.02319
  5 C    -0.42004    0.40203    0.04250
  6 C     2.51454    3.71612    3.54798
  7 C    -0.36313   -2.57959    0.36881
  8 C    -1.28875   -1.01497    0.49691
  9 C     1.84039    2.59921   -0.62339
 10 C    -0.28290    0.52670    0.12005
 11 C    -0.13758    0.05128   -0.06957
 12 C     0.36933    0.07788   -0.07820
 13 C    -0.03406   -0.08325   -0.05861
 14 C     1.54660    1.05543    0.61908
 15 C     0.83833   -0.23308    0.15499
 16 C    -0.51284    0.37590   -0.27912
 17 C    -0.00704   -1.36329   -0.35789
 18 C     0.29932   -0.33386    0.23806
 19 C    -0.97688    0.12971   -0.28841
 20 C    -0.00861    0.82655    0.14584
 21 C    -0.19498    0.65303   -0.08783
 22 C    -0.54832   -0.50767   -0.25428
 23 C    -3.55602   -3.60419   -3.18859

System changes: positions 

Initializing position-dependent things.

Density initialized from wave functions
           .--------------------------------------.  
          /|                                      |  
         / |                                      |  
        /  |                                      |  
       /   |                                      |  
      /    |                                      |  
     /     |                                      |  
    /      |                                      |  
   /       |              C  C  C                 |  
  /        |        C   C     C CC                |  
 *         |  C  C        C    C   C              |  
 |         C  C   C  C   C  C        C            |  
 |         .--------------------------------------.  
 |        /          C    C                      /   
 |       /     C C                              /    
 |      /                                      /     
 |     /                                      /      
 |    /                                      /       
 |   /                                      /        
 |  /                                      /         
 | /                                      /          
 |/                                      /           
 *--------------------------------------*            

Positions:
   0 C      4.344730    9.186694    5.388130
   1 C      4.806038    7.731529    5.434033
   2 C      2.963263    8.835347    4.995246
   3 C      3.540615    7.178928    5.063735
   4 C      2.251906    7.671531    4.822974
   5 C      5.078397   10.309625    5.457421
   6 C      6.138935    7.316652    5.623714
   7 C      9.734162   11.560150    5.235501
   8 C     11.599656    9.903444    4.775954
   9 C     10.418329   10.413132    5.161543
  10 C      7.168982   11.855487    5.484924
  11 C      8.464553   11.941618    5.420574
  12 C     12.307430    8.826874    4.466803
  13 C      4.697588    4.142288    4.900920
  14 C      5.805766    3.393014    4.973749
  15 C      7.038633    3.761657    5.383246
  16 C     10.746301    6.989667    6.964423
  17 C      9.721179    7.908947    6.993917
  18 C     10.752388    5.737968    6.672851
  19 C      9.598207    4.988365    6.263109
  20 C      8.481897    7.251202    6.530448
  21 C      8.379452    5.825087    6.174565
  22 C      9.356245    3.645463    5.928283
  23 C      7.207322    7.896114    6.324140

Unit cell:
           periodic     x           y           z      points  spacing
  1. axis:    yes   16.000000    0.000000    0.000000    80     0.2000
  2. axis:    yes    0.000000   16.000000    0.000000    80     0.2000
  3. axis:    yes    0.000000    0.000000   10.000000    48     0.2083

Effective grid spacing dv^(1/3) = 0.2027

                     log10-error:    total        iterations:
           time      wfs    density  energy       fermi  poisson
iter:   1  10:03:11          +inf  -158.837406    3      5      
iter:   2  10:03:11         -1.81  -158.742098    3      2      
iter:   3  10:03:12         -2.08  -158.701869    3      2      
iter:   4  10:03:12         -2.23  -158.693056    3      2      
iter:   5  10:03:13         -2.28  -158.687221    2      2      
iter:   6  10:03:13         -2.36  -158.681437    3      2      
iter:   7  10:03:14         -2.54  -158.681415    2      2      
iter:   8  10:03:14         -2.64  -158.681799    2      2      
iter:   9  10:03:15         -2.80  -158.682512    2      2      
iter:  10  10:03:15         -2.96  -158.679344    2      1      
iter:  11  10:03:16         -3.07  -158.679393    2      1      
iter:  12  10:03:16         -3.28  -158.680715    2      1      
iter:  13  10:03:17         -3.40  -158.681557    2      1      
iter:  14  10:03:17         -3.49  -158.681012    2      1      
iter:  15  10:03:18         -3.67  -158.681515    2      1      
iter:  16  10:03:18         -3.79  -158.681588    2      1      
iter:  17  10:03:19         -3.96  -158.682036    2      1      
iter:  18  10:03:19         -4.05  -158.681900    2      1      

Converged after 18 iterations.

Dipole moment: (-0.377990, -0.531992, 0.262149) |e|*Ang

Energy contributions relative to reference atoms: (reference = -24663.074771)

Kinetic:        +82.198337
Potential:      -97.254217
External:        +0.000000
XC:            -146.063922
Entropy (-ST):   -0.671388
Local:           +2.773595
--------------------------
Free energy:   -159.017594
Extrapolated:  -158.681900

Fermi level: -4.88928

 Band  Eigenvalues  Occupancy
    0    -23.63482    2.00000
    1    -22.07214    2.00000
    2    -20.44025    2.00000
    3    -20.34229    2.00000
    4    -20.21352    2.00000
    5    -19.89277    2.00000
    6    -19.49020    2.00000
    7    -18.81485    2.00000
    8    -18.58754    2.00000
    9    -17.28468    2.00000
   10    -17.21027    2.00000
   11    -16.56570    2.00000
   12    -16.18943    2.00000
   13    -15.63916    2.00000
   14    -15.26011    2.00000
   15    -14.91536    2.00000
   16    -14.06108    2.00000
   17    -13.20004    2.00000
   18    -12.87200    2.00000
   19    -12.05082    2.00000
   20    -11.66107    2.00000
   21    -11.29812    2.00000
   22    -10.68279    2.00000
   23    -10.41198    2.00000
   24     -9.93754    2.00000
   25     -9.33813    2.00000
   26     -8.82616    2.00000
   27     -8.71693    2.00000
   28     -8.69357    2.00000
   29     -8.50651    2.00000
   30     -8.36498    2.00000
   31     -8.30282    2.00000
   32     -8.13340    2.00000
   33     -7.69442    2.00000
   34     -7.62245    2.00000
   35     -7.28879    2.00000
   36     -7.20913    2.00000
   37     -7.11494    2.00000
   38     -7.00123    2.00000
   39     -6.94647    2.00000
   40     -6.74233    2.00000
   41     -6.63756    2.00000
   42     -5.80636    1.99979
   43     -5.36855    1.98356
   44     -5.28380    1.96204
   45     -5.06633    1.70904
   46     -5.00993    1.53935
   47     -4.89785    1.04284
   48     -4.87198    0.91370
   49     -4.83853    0.75154
   50     -4.58228    0.08872
   51     -4.28306    0.00465
   52     -4.25523    0.00352
   53     -4.15112    0.00124
   54     -3.28869    0.00000
   55     -3.20102    0.00000
   56     -2.79433    0.00000
   57     -2.77905    0.00000
   58     -2.54365    0.00000
   59     -2.13781    0.00000
   60     -1.94850    0.00000
   61     -1.90348    0.00000
   62     -1.21680    0.00000
   63     -0.77538    0.00000
   64      0.00829    0.00000
   65      0.45549    0.00000
   66      0.81312    0.00000
   67      1.02075    0.00000
   68      1.15191    0.00000
   69      1.52065    0.00000
   70      1.94645    0.00000
   71      3.24749    0.00000
   72      3.58674    0.00000
   73      3.69577    0.00000
   74      5.03281    0.00000
   75      5.44010    0.00000
   76      6.07386    0.00000
   77      6.49656    0.00000
   78      6.61416    0.00000
   79      6.87335    0.00000
   80      6.94347    0.00000
   81      7.44665    0.00000
   82      7.57244    0.00000
   83      7.97655    0.00000
   84      8.35379    0.00000
   85      8.38242    0.00000
   86      8.48706    0.00000
   87      8.68439    0.00000
   88      8.82788    0.00000
   89      8.98881    0.00000
   90      9.02921    0.00000
   91      9.21042    0.00000
   92      9.37782    0.00000
   93      9.45426    0.00000
   94      9.56095    0.00000
   95      9.68777    0.00000
   96      9.78598    0.00000
   97      9.89986    0.00000


Forces in eV/Ang:
  0 C     0.45480   -0.28694   -0.04268
  1 C     0.35429   -0.27941   -0.45067
  2 C    -0.33577   -0.37375   -0.16096
  3 C     0.64396    0.18210    0.15899
  4 C    -0.15365    0.08112    0.03082
  5 C    -0.41739    0.35288    0.03610
  6 C     1.58622    3.43528    2.95223
  7 C    -0.82416   -1.96361    0.42210
  8 C    -0.66580   -1.30597    0.27868
  9 C     1.58762    2.23151   -0.51775
 10 C    -0.34148    0.49590    0.11718
 11 C     0.07990   -0.03226   -0.09270
 12 C     0.25001    0.22220   -0.02723
 13 C     0.30250   -0.34629   -0.04018
 14 C     0.94818    1.23912    0.52059
 15 C     1.16673   -0.13366    0.26206
 16 C    -0.29705    0.10745   -0.27747
 17 C    -0.26219   -1.28488   -0.40324
 18 C     0.15361   -0.27153    0.23389
 19 C    -0.85430    0.15299   -0.27613
 20 C    -0.09226    0.65747    0.10193
 21 C    -0.08043    0.75051    0.03351
 22 C    -0.57940   -0.41526   -0.24356
 23 C    -2.57325   -3.35172   -2.66205

System changes: positions 

Initializing position-dependent things.

Density initialized from wave functions
           .--------------------------------------.  
          /|                                      |  
         / |                                      |  
        /  |                                      |  
       /   |                                      |  
      /    |                                      |  
     /     |                                      |  
    /      |                                      |  
   /       |              C  C  C                 |  
  /        |        C         C CC                |  
 *         |  C  C     C  C    C   C              |  
 |         C  C   C  C   C C         C            |  
 |         .--------------------------------------.  
 |        /          C    C                      /   
 |       /     C C                              /    
 |      /                                      /     
 |     /                                      /      
 |    /                                      /       
 |   /                                      /        
 |  /                                      /         
 | /                                      /          
 |/                                      /           
 *--------------------------------------*            

Positions:
   0 C      4.348075    9.184180    5.387355
   1 C      4.808452    7.728715    5.429997
   2 C      2.960114    8.831838    4.993918
   3 C      3.547141    7.180581    5.065293
   4 C      2.251837    7.672961    4.823502
   5 C      5.074622   10.312544    5.457720
   6 C      6.147964    7.346151    5.647138
   7 C      9.727606   11.544203    5.239056
   8 C     11.592873    9.894765    4.778898
   9 C     10.432615   10.431061    5.157019
  10 C      7.166778   11.860062    5.485920
  11 C      8.462355   11.941622    5.420097
  12 C     12.311482    8.825780    4.465753
  13 C      4.696811    4.141626    4.900394
  14 C      5.818172    3.401842    4.978752
  15 C      7.049283    3.760621    5.385675
  16 C     10.744591    6.990630    6.962253
  17 C      9.717674    7.897707    6.990019
  18 C     10.752976    5.734701    6.674650
  19 C      9.590939    4.989650    6.260615
  20 C      8.480960    7.255969    6.531169
  21 C      8.379358    5.832287    6.175494
  22 C      9.350939    3.642284    5.926181
  23 C      7.189094    7.867529    6.302912

Unit cell:
           periodic     x           y           z      points  spacing
  1. axis:    yes   16.000000    0.000000    0.000000    80     0.2000
  2. axis:    yes    0.000000   16.000000    0.000000    80     0.2000
  3. axis:    yes    0.000000    0.000000   10.000000    48     0.2083

Effective grid spacing dv^(1/3) = 0.2027

                     log10-error:    total        iterations:
           time      wfs    density  energy       fermi  poisson
iter:   1  10:03:21          +inf  -159.341975    3      5      
iter:   2  10:03:21         -1.83  -159.259718    3      2      
iter:   3  10:03:22         -2.10  -159.233126    3      2      
iter:   4  10:03:22         -2.20  -159.222247    2      2      
iter:   5  10:03:23         -2.31  -159.216487    2      2      
iter:   6  10:03:23         -2.39  -159.211167    3      2      
iter:   7  10:03:24         -2.56  -159.211184    2      2      
iter:   8  10:03:25         -2.65  -159.211269    2      2      
iter:   9  10:03:25         -2.81  -159.211530    2      2      
iter:  10  10:03:26         -2.98  -159.208879    2      1      
iter:  11  10:03:26         -3.08  -159.208416    2      1      
iter:  12  10:03:26         -3.24  -159.209804    2      1      
iter:  13  10:03:27         -3.37  -159.210752    2      1      
iter:  14  10:03:27         -3.48  -159.210479    2      1      
iter:  15  10:03:28         -3.64  -159.211218    2      1      
iter:  16  10:03:28         -3.76  -159.211034    2      1      
iter:  17  10:03:29         -3.95  -159.211464    2      1      
iter:  18  10:03:29         -4.07  -159.211743    2      1      

Converged after 18 iterations.

Dipole moment: (-0.364479, -0.522643, 0.269295) |e|*Ang

Energy contributions relative to reference atoms: (reference = -24663.074771)

Kinetic:        +85.138451
Potential:      -99.470848
External:        +0.000000
XC:            -147.337592
Entropy (-ST):   -0.675833
Local:           +2.796162
--------------------------
Free energy:   -159.549660
Extrapolated:  -159.211743

Fermi level: -4.90692

 Band  Eigenvalues  Occupancy
    0    -23.58331    2.00000
    1    -22.08245    2.00000
    2    -20.50514    2.00000
    3    -20.32294    2.00000
    4    -20.26865    2.00000
    5    -19.87681    2.00000
    6    -19.51188    2.00000
    7    -18.84235    2.00000
    8    -18.56925    2.00000
    9    -17.39697    2.00000
   10    -17.26330    2.00000
   11    -16.58799    2.00000
   12    -16.21947    2.00000
   13    -15.58274    2.00000
   14    -15.29913    2.00000
   15    -14.88476    2.00000
   16    -14.07232    2.00000
   17    -13.33905    2.00000
   18    -13.05676    2.00000
   19    -12.00343    2.00000
   20    -11.68792    2.00000
   21    -11.30618    2.00000
   22    -10.78447    2.00000
   23    -10.38049    2.00000
   24     -9.93809    2.00000
   25     -9.34368    2.00000
   26     -8.86979    2.00000
   27     -8.77381    2.00000
   28     -8.71429    2.00000
   29     -8.51059    2.00000
   30     -8.40764    2.00000
   31     -8.30941    2.00000
   32     -8.15482    2.00000
   33     -7.70531    2.00000
   34     -7.63717    2.00000
   35     -7.31150    2.00000
   36     -7.23623    2.00000
   37     -7.09931    2.00000
   38     -7.01160    2.00000
   39     -6.95136    2.00000
   40     -6.71003    2.00000
   41     -6.65051    2.00000
   42     -5.82096    1.99979
   43     -5.36985    1.98067
   44     -5.28740    1.95644
   45     -5.06799    1.66703
   46     -5.03296    1.55818
   47     -4.92072    1.06890
   48     -4.89740    0.95241
   49     -4.84986    0.72218
   50     -4.59997    0.08876
   51     -4.25204    0.00286
   52     -4.23134    0.00233
   53     -4.06817    0.00046
   54     -3.28563    0.00000
   55     -3.10796    0.00000
   56     -2.76697    0.00000
   57     -2.56955    0.00000
   58     -2.44907    0.00000
   59     -2.05111    0.00000
   60     -1.91371    0.00000
   61     -1.84008    0.00000
   62     -1.16009    0.00000
   63     -0.76320    0.00000
   64      0.06704    0.00000
   65      0.49074    0.00000
   66      0.81848    0.00000
   67      1.10356    0.00000
   68      1.30154    0.00000
   69      1.54796    0.00000
   70      2.07919    0.00000
   71      3.29487    0.00000
   72      3.67681    0.00000
   73      3.83372    0.00000
   74      5.07441    0.00000
   75      5.50202    0.00000
   76      6.16477    0.00000
   77      6.41470    0.00000
   78      6.61092    0.00000
   79      6.86197    0.00000
   80      6.97525    0.00000
   81      7.46165    0.00000
   82      7.67011    0.00000
   83      8.07043    0.00000
   84      8.33127    0.00000
   85      8.36704    0.00000
   86      8.51543    0.00000
   87      8.69114    0.00000
   88      8.82660    0.00000
   89      9.00226    0.00000
   90      9.06151    0.00000
   91      9.22672    0.00000
   92      9.40385    0.00000
   93      9.48273    0.00000
   94      9.61324    0.00000
   95      9.72828    0.00000
   96      9.80398    0.00000
   97      9.90074    0.00000


Forces in eV/Ang:
  0 C     0.29763   -0.23178   -0.12010
  1 C     0.08965   -0.23391   -0.44063
  2 C    -0.28119   -0.33522   -0.10607
  3 C     0.67766    0.16413    0.16400
  4 C     0.05189    0.13763    0.05559
  5 C    -0.43009    0.30263    0.03559
  6 C     0.18145    2.69160    1.95684
  7 C    -1.10478   -1.36828    0.43343
  8 C    -0.19300   -1.44919    0.12501
  9 C     1.41869    1.82906   -0.42964
 10 C    -0.33609    0.48160    0.10627
 11 C     0.08990   -0.09001   -0.08764
 12 C     0.18878    0.27114   -0.00084
 13 C     0.54441   -0.52763   -0.02471
 14 C     0.54485    1.36804    0.45323
 15 C     1.39212   -0.03617    0.34178
 16 C    -0.09831   -0.10908   -0.27241
 17 C    -0.40071   -1.16637   -0.40740
 18 C     0.00365   -0.21491    0.21438
 19 C    -0.75015    0.18321   -0.25092
 20 C    -0.20174    0.42833    0.02278
 21 C     0.06352    0.75139    0.13662
 22 C    -0.64134   -0.32758   -0.24134
 23 C    -1.03963   -2.64613   -1.71166

System changes: positions 

Initializing position-dependent things.

Density initialized from wave functions
           .--------------------------------------.  
          /|                                      |  
         / |                                      |  
        /  |                                      |  
       /   |                                      |  
      /    |                                      |  
     /     |                                      |  
    /      |                                      |  
   /       |              C  C                    |  
  /        |        C         C CC                |  
 *         |  C  C     C  C    C   C              |  
 |         C  C   C  C   C C         C            |  
 |         .--------------------------------------.  
 |        /          C    C                      /   
 |       /     C C                              /    
 |      /                                      /     
 |     /                                      /      
 |    /                                      /       
 |   /                                      /        
 |  /                                      /         
 | /                                      /          
 |/                                      /           
 *--------------------------------------*            

Positions:
   0 C      4.351242    9.181224    5.385472
   1 C      4.810388    7.725672    5.424398
   2 C      2.956861    8.828038    4.992826
   3 C      3.555303    7.182416    5.067256
   4 C      2.252997    7.674506    4.824208
   5 C      5.068877   10.316388    5.458204
   6 C      6.144799    7.379141    5.669535
   7 C      9.717180   11.525321    5.244108
   8 C     11.585977    9.881693    4.782289
   9 C     10.452555   10.454049    5.150989
  10 C      7.163353   11.866718    5.487257
  11 C      8.458327   11.941342    5.419617
  12 C     12.317162    8.824137    4.464321
  13 C      4.697665    4.139288    4.899772
  14 C      5.834233    3.416054    4.985918
  15 C      7.065618    3.759813    5.389564
  16 C     10.743570    6.990761    6.959159
  17 C      9.712431    7.882460    6.984572
  18 C     10.752601    5.730477    6.677025
  19 C      9.580859    4.991709    6.257236
  20 C      8.478574    7.260288    6.531280
  21 C      8.380779    5.842062    6.177622
  22 C      9.342358    3.638346    5.923043
  23 C      7.180070    7.835657    6.283478

Unit cell:
           periodic     x           y           z      points  spacing
  1. axis:    yes   16.000000    0.000000    0.000000    80     0.2000
  2. axis:    yes    0.000000   16.000000    0.000000    80     0.2000
  3. axis:    yes    0.000000    0.000000   10.000000    48     0.2083

Effective grid spacing dv^(1/3) = 0.2027

                     log10-error:    total        iterations:
           time      wfs    density  energy       fermi  poisson
iter:   1  10:03:31          +inf  -159.770822    3      5      
iter:   2  10:03:31         -1.82  -159.695670    3      2      
iter:   3  10:03:32         -2.08  -159.678928    3      2      
iter:   4  10:03:32         -2.18  -159.666852    3      2      
iter:   5  10:03:33         -2.33  -159.663277    2      2      
iter:   6  10:03:34         -2.40  -159.658565    3      2      
iter:   7  10:03:34         -2.56  -159.657900    2      2      
iter:   8  10:03:35         -2.67  -159.658018    2      2      
iter:   9  10:03:35         -2.81  -159.657931    2      2      
iter:  10  10:03:36         -3.00  -159.655958    2      1      
iter:  11  10:03:36         -3.07  -159.653930    2      1      
iter:  12  10:03:37         -3.22  -159.655813    2      1      
iter:  13  10:03:37         -3.38  -159.657338    2      1      
iter:  14  10:03:38         -3.47  -159.657149    2      1      
iter:  15  10:03:38         -3.63  -159.657475    2      1      
iter:  16  10:03:38         -3.78  -159.657395    2      1      
iter:  17  10:03:39         -3.96  -159.658222    2      1      
iter:  18  10:03:39         -4.06  -159.658595    2      1      

Converged after 18 iterations.

Dipole moment: (-0.351161, -0.514382, 0.281465) |e|*Ang

Energy contributions relative to reference atoms: (reference = -24663.074771)

Kinetic:        +89.856773
Potential:     -103.027594
External:        +0.000000
XC:            -148.964544
Entropy (-ST):   -0.676926
Local:           +2.815233
--------------------------
Free energy:   -159.997058
Extrapolated:  -159.658595

Fermi level: -4.92200

 Band  Eigenvalues  Occupancy
    0    -23.56232    2.00000
    1    -22.12625    2.00000
    2    -20.58120    2.00000
    3    -20.31821    2.00000
    4    -20.29317    2.00000
    5    -19.88407    2.00000
    6    -19.54232    2.00000
    7    -18.87336    2.00000
    8    -18.58997    2.00000
    9    -17.50196    2.00000
   10    -17.32349    2.00000
   11    -16.62181    2.00000
   12    -16.25919    2.00000
   13    -15.57107    2.00000
   14    -15.34742    2.00000
   15    -14.87523    2.00000
   16    -14.11819    2.00000
   17    -13.48310    2.00000
   18    -13.26685    2.00000
   19    -11.99286    2.00000
   20    -11.76868    2.00000
   21    -11.34991    2.00000
   22    -10.87920    2.00000
   23    -10.37552    2.00000
   24     -9.96423    2.00000
   25     -9.36073    2.00000
   26     -8.91745    2.00000
   27     -8.83747    2.00000
   28     -8.73619    2.00000
   29     -8.52145    2.00000
   30     -8.45569    2.00000
   31     -8.31153    2.00000
   32     -8.17761    2.00000
   33     -7.70860    2.00000
   34     -7.66127    2.00000
   35     -7.32166    2.00000
   36     -7.25499    2.00000
   37     -7.09830    2.00000
   38     -7.02470    2.00000
   39     -6.95736    2.00000
   40     -6.70614    2.00000
   41     -6.66400    2.00000
   42     -5.82278    1.99976
   43     -5.37500    1.97867
   44     -5.29491    1.95310
   45     -5.08911    1.68342
   46     -5.04100    1.53348
   47     -4.94216    1.10042
   48     -4.91679    0.97393
   49     -4.85455    0.67495
   50     -4.62527    0.09784
   51     -4.25272    0.00248
   52     -4.22172    0.00182
   53     -3.97265    0.00015
   54     -3.29724    0.00000
   55     -3.03482    0.00000
   56     -2.75075    0.00000
   57     -2.32616    0.00000
   58     -2.28337    0.00000
   59     -2.00056    0.00000
   60     -1.87725    0.00000
   61     -1.75124    0.00000
   62     -1.06311    0.00000
   63     -0.76180    0.00000
   64      0.11734    0.00000
   65      0.53586    0.00000
   66      0.83916    0.00000
   67      1.16728    0.00000
   68      1.50269    0.00000
   69      1.64474    0.00000
   70      2.23777    0.00000
   71      3.35850    0.00000
   72      3.79777    0.00000
   73      4.00864    0.00000
   74      5.11587    0.00000
   75      5.54584    0.00000
   76      6.23212    0.00000
   77      6.34813    0.00000
   78      6.63413    0.00000
   79      6.84174    0.00000
   80      7.02142    0.00000
   81      7.45492    0.00000
   82      7.77926    0.00000
   83      8.12450    0.00000
   84      8.29370    0.00000
   85      8.35596    0.00000
   86      8.53472    0.00000
   87      8.69880    0.00000
   88      8.84615    0.00000
   89      9.01305    0.00000
   90      9.11186    0.00000
   91      9.25018    0.00000
   92      9.43277    0.00000
   93      9.50702    0.00000
   94      9.65569    0.00000
   95      9.76355    0.00000
   96      9.82839    0.00000
   97      9.90567    0.00000


Forces in eV/Ang:
  0 C     0.12020   -0.12231   -0.20088
  1 C    -0.21224   -0.04461   -0.41341
  2 C    -0.15814   -0.22943   -0.03311
  3 C     0.49036    0.10112    0.11719
  4 C     0.20117    0.08494    0.05566
  5 C    -0.46337    0.28044    0.03877
  6 C    -1.06361    1.70672    0.92568
  7 C    -1.34103   -0.78532    0.41729
  8 C     0.26337   -1.52338   -0.01318
  9 C     1.22231    1.39849   -0.35955
 10 C    -0.39329    0.47357    0.10328
 11 C     0.12878   -0.15809   -0.07414
 12 C     0.16513    0.23835    0.00901
 13 C     0.70920   -0.64134   -0.01173
 14 C     0.25437    1.42955    0.39626
 15 C     1.62574    0.05967    0.42809
 16 C     0.09120   -0.27726   -0.27166
 17 C    -0.41882   -0.98276   -0.33667
 18 C    -0.16675   -0.21304    0.17542
 19 C    -0.62012    0.21007   -0.21763
 20 C    -0.24784    0.15537   -0.07013
 21 C     0.14171    0.61555    0.17894
 22 C    -0.73267   -0.21943   -0.23955
 23 C     0.44362   -1.66818   -0.67492

System changes: positions 

Initializing position-dependent things.

Density initialized from wave functions
           .--------------------------------------.  
          /|                                      |  
         / |                                      |  
        /  |                                      |  
       /   |                                      |  
      /    |                                      |  
     /     |                                      |  
    /      |                                      |  
   /       |              C  C                    |  
  /        |        C         C CC                |  
 *         |  C  C     C  C    C   C              |  
 |         C  C   C  C   C C         C            |  
 |         .--------------------------------------.  
 |        /          C    C                      /   
 |       /     C C                              /    
 |      /                                      /     
 |     /                                      /      
 |    /                                      /       
 |   /                                      /        
 |  /                                      /         
 | /                                      /          
 |/                                      /           
 *--------------------------------------*            

Positions:
   0 C      4.353779    9.178733    5.382398
   1 C      4.810716    7.724615    5.417553
   2 C      2.954526    8.824903    4.992264
   3 C      3.561933    7.183780    5.068874
   4 C      2.254805    7.674705    4.824774
   5 C      5.060946   10.321463    5.458914
   6 C      6.130994    7.411052    5.689313
   7 C      9.702739   11.504629    5.250264
   8 C     11.580033    9.864578    4.785875
   9 C     10.477011   10.480812    5.143458
  10 C      7.157795   11.875381    5.489024
  11 C      8.453574   11.940429    5.419190
  12 C     12.324501    8.821394    4.462478
  13 C      4.699953    4.135597    4.899074
  14 C      5.853757    3.434933    4.995013
  15 C      7.088151    3.759412    5.395165
  16 C     10.743386    6.990253    6.955076
  17 C      9.707047    7.864578    6.978769
  18 C     10.750791    5.724754    6.679675
  19 C      9.568729    4.994556    6.253189
  20 C      8.475548    7.263335    6.530506
  21 C      8.382802    5.852281    6.180116
  22 C      9.330159    3.634105    5.918922
  23 C      7.180825    7.805387    6.268101

Unit cell:
           periodic     x           y           z      points  spacing
  1. axis:    yes   16.000000    0.000000    0.000000    80     0.2000
  2. axis:    yes    0.000000   16.000000    0.000000    80     0.2000
  3. axis:    yes    0.000000    0.000000   10.000000    48     0.2083

Effective grid spacing dv^(1/3) = 0.2027

                     log10-error:    total        iterations:
           time      wfs    density  energy       fermi  poisson
iter:   1  10:03:41          +inf  -160.122479    3      5      
iter:   2  10:03:41         -1.84  -160.062823    3      2      
iter:   3  10:03:42         -2.08  -160.054890    3      2      
iter:   4  10:03:43         -2.20  -160.045663    3      2      
iter:   5  10:03:43         -2.38  -160.037518    2      1      
iter:   6  10:03:44         -2.44  -160.040581    2      2      
iter:   7  10:03:44         -2.61  -160.039583    2      2      
iter:   8  10:03:45         -2.74  -160.039768    2      2      
iter:   9  10:03:45         -2.88  -160.039502    2      2      
iter:  10  10:03:46         -3.06  -160.036210    2      1      
iter:  11  10:03:46         -3.20  -160.036026    2      1      
iter:  12  10:03:47         -3.34  -160.038468    2      1      
iter:  13  10:03:47         -3.46  -160.039025    2      1      
iter:  14  10:03:48         -3.57  -160.039412    2      1      
iter:  15  10:03:48         -3.78  -160.039634    2      1      
iter:  16  10:03:48         -3.91  -160.039694    2      1      
iter:  17  10:03:49         -4.02  -160.039921    2      1      

Converged after 17 iterations.

Dipole moment: (-0.342070, -0.498826, 0.296690) |e|*Ang

Energy contributions relative to reference atoms: (reference = -24663.074771)

Kinetic:        +94.509046
Potential:     -106.543909
External:        +0.000000
XC:            -150.501060
Entropy (-ST):   -0.676623
Local:           +2.834314
--------------------------
Free energy:   -160.378232
Extrapolated:  -160.039921

Fermi level: -4.93323

 Band  Eigenvalues  Occupancy
    0    -23.57871    2.00000
    1    -22.19682    2.00000
    2    -20.64795    2.00000
    3    -20.35661    2.00000
    4    -20.24338    2.00000
    5    -19.91255    2.00000
    6    -19.58249    2.00000
    7    -18.90517    2.00000
    8    -18.63418    2.00000
    9    -17.58533    2.00000
   10    -17.38237    2.00000
   11    -16.66003    2.00000
   12    -16.29480    2.00000
   13    -15.61043    2.00000
   14    -15.40330    2.00000
   15    -14.88893    2.00000
   16    -14.19596    2.00000
   17    -13.61124    2.00000
   18    -13.48035    2.00000
   19    -12.03889    2.00000
   20    -11.87087    2.00000
   21    -11.43239    2.00000
   22    -10.95080    2.00000
   23    -10.40375    2.00000
   24    -10.01083    2.00000
   25     -9.39716    2.00000
   26     -8.96410    2.00000
   27     -8.89781    2.00000
   28     -8.75414    2.00000
   29     -8.55323    2.00000
   30     -8.46597    2.00000
   31     -8.31391    2.00000
   32     -8.19540    2.00000
   33     -7.70394    2.00000
   34     -7.68835    2.00000
   35     -7.31743    2.00000
   36     -7.26063    2.00000
   37     -7.11520    2.00000
   38     -7.04464    2.00000
   39     -6.96962    2.00000
   40     -6.71990    2.00000
   41     -6.67081    2.00000
   42     -5.81039    1.99969
   43     -5.38428    1.97825
   44     -5.30662    1.95331
   45     -5.11293    1.71556
   46     -5.03943    1.48613
   47     -4.96050    1.13549
   48     -4.93165    0.99211
   49     -4.85326    0.62015
   50     -4.65410    0.11559
   51     -4.24890    0.00213
   52     -4.21472    0.00151
   53     -3.91124    0.00007
   54     -3.30684    0.00000
   55     -3.00152    0.00000
   56     -2.71594    0.00000
   57     -2.19364    0.00000
   58     -2.08435    0.00000
   59     -1.97771    0.00000
   60     -1.85705    0.00000
   61     -1.61768    0.00000
   62     -0.93018    0.00000
   63     -0.76690    0.00000
   64      0.14425    0.00000
   65      0.58319    0.00000
   66      0.86932    0.00000
   67      1.19819    0.00000
   68      1.55695    0.00000
   69      1.97599    0.00000
   70      2.36881    0.00000
   71      3.43396    0.00000
   72      3.93727    0.00000
   73      4.19138    0.00000
   74      5.14731    0.00000
   75      5.55090    0.00000
   76      6.27467    0.00000
   77      6.34438    0.00000
   78      6.64742    0.00000
   79      6.81153    0.00000
   80      7.06448    0.00000
   81      7.43423    0.00000
   82      7.87428    0.00000
   83      8.11987    0.00000
   84      8.25468    0.00000
   85      8.35356    0.00000
   86      8.54956    0.00000
   87      8.70040    0.00000
   88      8.87356    0.00000
   89      9.02264    0.00000
   90      9.15878    0.00000
   91      9.27397    0.00000
   92      9.46229    0.00000
   93      9.52621    0.00000
   94      9.68798    0.00000
   95      9.76246    0.00000
   96      9.84988    0.00000
   97      9.91731    0.00000


Forces in eV/Ang:
  0 C    -0.04984    0.04024   -0.27476
  1 C    -0.51961    0.20352   -0.36739
  2 C    -0.06045   -0.10764    0.02497
  3 C     0.22362    0.00709    0.05964
  4 C     0.26116    0.00105    0.03765
  5 C    -0.48288    0.25470    0.03571
  6 C    -1.39683    0.93471    0.36156
  7 C    -1.41507   -0.27502    0.38584
  8 C     0.59679   -1.46666   -0.11497
  9 C     1.03686    1.01847   -0.24417
 10 C    -0.40795    0.47195    0.11270
 11 C     0.03104   -0.21022   -0.03944
 12 C     0.18081    0.12681    0.00604
 13 C     0.84772   -0.71579    0.00305
 14 C     0.07322    1.46294    0.36299
 15 C     1.78309    0.16934    0.49936
 16 C     0.27232   -0.41610   -0.28109
 17 C    -0.32924   -0.75437   -0.22410
 18 C    -0.31968   -0.22063    0.13926
 19 C    -0.46932    0.18630   -0.17240
 20 C    -0.18949   -0.09880   -0.13946
 21 C     0.15234    0.34431    0.15739
 22 C    -0.88797   -0.12070   -0.26066
 23 C     1.02365   -0.90956   -0.09639

System changes: positions 

Initializing position-dependent things.

Density initialized from wave functions
           .--------------------------------------.  
          /|                                      |  
         / |                                      |  
        /  |                                      |  
       /   |                                      |  
      /    |                                      |  
     /     |                                      |  
    /      |                                      |  
   /       |              C  C                    |  
  /        |        C         C CC                |  
 *         |  C  C     C  C    C   C              |  
 |         C  C   C  C   C C         C            |  
 |         .--------------------------------------.  
 |        /          C    C                      /   
 |       /     C C                              /    
 |      /                                      /     
 |     /                                      /      
 |    /                                      /       
 |   /                                      /        
 |  /                                      /         
 | /                                      /          
 |/                                      /           
 *--------------------------------------*            

Positions:
   0 C      4.354871    9.177989    5.377903
   1 C      4.807679    7.726935    5.410012
   2 C      2.953078    8.822956    4.992293
   3 C      3.565599    7.184027    5.069908
   4 C      2.256937    7.673330    4.825038
   5 C      5.051179   10.327352    5.459727
   6 C      6.114483    7.440303    5.708171
   7 C      9.685486   11.484983    5.257156
   8 C     11.576084    9.845186    4.789226
   9 C     10.504324   10.509020    5.135823
  10 C      7.150808   11.885813    5.491329
  11 C      8.446439   11.938778    5.419172
  12 C     12.333610    8.816544    4.460200
  13 C      4.704348    4.130408    4.898426
  14 C      5.875699    3.458000    5.005725
  15 C      7.116516    3.760195    5.402597
  16 C     10.745042    6.988398    6.949985
  17 C      9.702649    7.846047    6.973522
  18 C     10.746978    5.717711    6.682423
  19 C      9.555926    4.997485    6.248921
  20 C      8.473167    7.264048    6.528818
  21 C      8.384903    5.860383    6.182369
  22 C      9.313352    3.630089    5.913612
  23 C      7.184848    7.778015    6.254926

Unit cell:
           periodic     x           y           z      points  spacing
  1. axis:    yes   16.000000    0.000000    0.000000    80     0.2000
  2. axis:    yes    0.000000   16.000000    0.000000    80     0.2000
  3. axis:    yes    0.000000    0.000000   10.000000    48     0.2083

Effective grid spacing dv^(1/3) = 0.2027

                     log10-error:    total        iterations:
           time      wfs    density  energy       fermi  poisson
iter:   1  10:03:50          +inf  -160.450462    3      5      
iter:   2  10:03:51         -1.88  -160.400832    2      2      
iter:   3  10:03:51         -2.06  -160.392035    3      1      
iter:   4  10:03:52         -2.25  -160.392021    3      2      
iter:   5  10:03:53         -2.40  -160.388266    2      2      
iter:   6  10:03:53         -2.51  -160.385457    2      2      
iter:   7  10:03:54         -2.70  -160.385500    2      2      
iter:   8  10:03:54         -2.83  -160.379947    2      1      
iter:   9  10:03:55         -2.93  -160.385345    2      2      
iter:  10  10:03:55         -3.18  -160.384414    2      1      
iter:  11  10:03:56         -3.26  -160.381405    2      1      
iter:  12  10:03:56         -3.48  -160.384268    2      1      
iter:  13  10:03:57         -3.60  -160.385120    2      1      
iter:  14  10:03:57         -3.69  -160.385160    2      1      
iter:  15  10:03:58         -3.87  -160.385242    2      1      
iter:  16  10:03:58         -4.02  -160.385704    2      1      

Converged after 16 iterations.

Dipole moment: (-0.330554, -0.476457, 0.313096) |e|*Ang

Energy contributions relative to reference atoms: (reference = -24663.074771)

Kinetic:        +98.049542
Potential:     -109.201747
External:        +0.000000
XC:            -151.742822
Entropy (-ST):   -0.675889
Local:           +2.847267
--------------------------
Free energy:   -160.723649
Extrapolated:  -160.385704

Fermi level: -4.94427

 Band  Eigenvalues  Occupancy
    0    -23.61575    2.00000
    1    -22.28099    2.00000
    2    -20.69706    2.00000
    3    -20.37482    2.00000
    4    -20.18019    2.00000
    5    -19.94657    2.00000
    6    -19.62772    2.00000
    7    -18.93605    2.00000
    8    -18.67933    2.00000
    9    -17.65255    2.00000
   10    -17.43568    2.00000
   11    -16.69893    2.00000
   12    -16.32311    2.00000
   13    -15.66278    2.00000
   14    -15.46088    2.00000
   15    -14.92093    2.00000
   16    -14.28527    2.00000
   17    -13.72086    2.00000
   18    -13.66311    2.00000
   19    -12.12653    2.00000
   20    -11.95948    2.00000
   21    -11.52210    2.00000
   22    -10.99626    2.00000
   23    -10.44579    2.00000
   24    -10.06750    2.00000
   25     -9.47165    2.00000
   26     -8.99998    2.00000
   27     -8.94242    2.00000
   28     -8.76698    2.00000
   29     -8.59286    2.00000
   30     -8.44567    2.00000
   31     -8.31482    2.00000
   32     -8.20625    2.00000
   33     -7.71388    2.00000
   34     -7.69518    2.00000
   35     -7.29934    2.00000
   36     -7.26041    2.00000
   37     -7.14034    2.00000
   38     -7.07005    2.00000
   39     -6.98871    2.00000
   40     -6.73998    2.00000
   41     -6.66779    2.00000
   42     -5.79486    1.99960
   43     -5.39780    1.97878
   44     -5.32396    1.95610
   45     -5.13404    1.73926
   46     -5.04009    1.44550
   47     -4.97899    1.17185
   48     -4.94397    0.99850
   49     -4.85104    0.56491
   50     -4.68757    0.14258
   51     -4.23560    0.00167
   52     -4.20335    0.00121
   53     -3.87182    0.00004
   54     -3.30725    0.00000
   55     -2.99418    0.00000
   56     -2.64959    0.00000
   57     -2.08636    0.00000
   58     -2.01507    0.00000
   59     -1.96026    0.00000
   60     -1.85461    0.00000
   61     -1.42500    0.00000
   62     -0.78126    0.00000
   63     -0.76478    0.00000
   64      0.16205    0.00000
   65      0.64159    0.00000
   66      0.90542    0.00000
   67      1.21446    0.00000
   68      1.57039    0.00000
   69      2.35215    0.00000
   70      2.46677    0.00000
   71      3.51732    0.00000
   72      4.06662    0.00000
   73      4.33941    0.00000
   74      5.17158    0.00000
   75      5.52501    0.00000
   76      6.26082    0.00000
   77      6.37410    0.00000
   78      6.64085    0.00000
   79      6.76422    0.00000
   80      7.10106    0.00000
   81      7.39907    0.00000
   82      7.94087    0.00000
   83      8.09326    0.00000
   84      8.21892    0.00000
   85      8.35621    0.00000
   86      8.56314    0.00000
   87      8.69837    0.00000
   88      8.88909    0.00000
   89      9.03444    0.00000
   90      9.19665    0.00000
   91      9.29388    0.00000
   92      9.48219    0.00000
   93      9.52840    0.00000
   94      9.70646    0.00000
   95      9.73121    0.00000
   96      9.85782    0.00000
   97      9.93791    0.00000


Forces in eV/Ang:
  0 C    -0.19838    0.20400   -0.33036
  1 C    -0.64495    0.37532   -0.29314
  2 C    -0.05814   -0.05229    0.05494
  3 C    -0.00292   -0.08565    0.01179
  4 C     0.27254   -0.01998    0.01494
  5 C    -0.46384    0.23498    0.01020
  6 C    -1.31626    0.43029    0.09989
  7 C    -1.27415   -0.02877    0.34656
  8 C     0.75113   -1.32505   -0.15850
  9 C     0.81289    0.79666   -0.17597
 10 C    -0.49276    0.46805    0.11697
 11 C    -0.02642   -0.25230   -0.00741
 12 C     0.20576    0.01161    0.01018
 13 C     0.91491   -0.72698    0.02003
 14 C     0.10513    1.46360    0.40013
 15 C     1.85902    0.25247    0.52082
 16 C     0.44625   -0.50523   -0.28972
 17 C    -0.20470   -0.56225   -0.09777
 18 C    -0.46490   -0.21283    0.09498
 19 C    -0.28384    0.09355   -0.12501
 20 C    -0.10654   -0.27543   -0.17415
 21 C     0.10861    0.07468    0.10341
 22 C    -1.05770   -0.04112   -0.30416
 23 C     1.09490   -0.38394    0.17402

System changes: positions 

Initializing position-dependent things.

Density initialized from wave functions
           .--------------------------------------.  
          /|                                      |  
         / |                                      |  
        /  |                                      |  
       /   |                                      |  
      /    |                                      |  
     /     |                                      |  
    /      |                                      |  
   /       |              C  C                    |  
  /        |        C         C CC                |  
 *         |  C  C   C C  C    C   C              |  
 |         C  C   C      C C         C            |  
 |         .--------------------------------------.  
 |        /          C    C                      /   
 |       /     C  C                             /    
 |      /                                      /     
 |     /                                      /      
 |    /                                      /       
 |   /                                      /        
 |  /                                      /         
 | /                                      /          
 |/                                      /           
 *--------------------------------------*            

Positions:
   0 C      4.354253    9.179307    5.372287
   1 C      4.802864    7.731638    5.402693
   2 C      2.951324    8.821379    4.992637
   3 C      3.566802    7.183119    5.070456
   4 C      2.259292    7.671647    4.825025
   5 C      5.040733   10.333603    5.460258
   6 C      6.098836    7.466684    5.726492
   7 C      9.668261   11.466249    5.264282
   8 C     11.573861    9.825262    4.792280
   9 C     10.531339   10.537542    5.128289
  10 C      7.141855   11.897226    5.493926
  11 C      8.438318   11.936346    5.419510
  12 C     12.343696    8.810158    4.457882
  13 C      4.710539    4.124221    4.897964
  14 C      5.899770    3.483708    5.017992
  15 C      7.148811    3.762140    5.411052
  16 C     10.749087    6.985122    6.944213
  17 C      9.699499    7.828089    6.969425
  18 C     10.740947    5.710199    6.684908
  19 C      9.544310    4.999431    6.244851
  20 C      8.471670    7.262785    6.526584
  21 C      8.386489    5.865771    6.184048
  22 C      9.292605    3.626633    5.907156
  23 C      7.188676    7.753970    6.243000

Unit cell:
           periodic     x           y           z      points  spacing
  1. axis:    yes   16.000000    0.000000    0.000000    80     0.2000
  2. axis:    yes    0.000000   16.000000    0.000000    80     0.2000
  3. axis:    yes    0.000000    0.000000   10.000000    48     0.2083

Effective grid spacing dv^(1/3) = 0.2027

                     log10-error:    total        iterations:
           time      wfs    density  energy       fermi  poisson
iter:   1  10:04:00          +inf  -160.797624    3      5      
iter:   2  10:04:00         -1.81  -160.723078    2      2      
iter:   3  10:04:01         -1.98  -160.714855    3      2      
iter:   4  10:04:01         -2.29  -160.710063    3      2      
iter:   5  10:04:02         -2.44  -160.708987    2      2      
iter:   6  10:04:02         -2.55  -160.707763    2      2      
iter:   7  10:04:03         -2.66  -160.705088    2      2      
iter:   8  10:04:03         -2.87  -160.700678    2      1      
iter:   9  10:04:04         -2.98  -160.704236    2      2      
iter:  10  10:04:04         -3.18  -160.704504    2      1      
iter:  11  10:04:05         -3.29  -160.703910    2      1      
iter:  12  10:04:05         -3.38  -160.703355    2      1      
iter:  13  10:04:06         -3.58  -160.704218    2      1      
iter:  14  10:04:06         -3.70  -160.704859    2      1      
iter:  15  10:04:07         -3.78  -160.704176    2      1      
iter:  16  10:04:07         -4.00  -160.704605    2      1      
iter:  17  10:04:07         -4.16  -160.705232    2      1      

Converged after 17 iterations.

Dipole moment: (-0.317765, -0.451492, 0.329800) |e|*Ang

Energy contributions relative to reference atoms: (reference = -24663.074771)

Kinetic:       +100.209241
Potential:     -110.781082
External:        +0.000000
XC:            -152.639432
Entropy (-ST):   -0.674537
Local:           +2.843309
--------------------------
Free energy:   -161.042500
Extrapolated:  -160.705232

Fermi level: -4.95605

 Band  Eigenvalues  Occupancy
    0    -23.65848    2.00000
    1    -22.36838    2.00000
    2    -20.73500    2.00000
    3    -20.37867    2.00000
    4    -20.12263    2.00000
    5    -19.97071    2.00000
    6    -19.67034    2.00000
    7    -18.95360    2.00000
    8    -18.72005    2.00000
    9    -17.70727    2.00000
   10    -17.47846    2.00000
   11    -16.73818    2.00000
   12    -16.34254    2.00000
   13    -15.70615    2.00000
   14    -15.50575    2.00000
   15    -14.96008    2.00000
   16    -14.37122    2.00000
   17    -13.82664    2.00000
   18    -13.80214    2.00000
   19    -12.23234    2.00000
   20    -12.02272    2.00000
   21    -11.59884    2.00000
   22    -11.03033    2.00000
   23    -10.48783    2.00000
   24    -10.12601    2.00000
   25     -9.58813    2.00000
   26     -9.02378    2.00000
   27     -8.97037    2.00000
   28     -8.77636    2.00000
   29     -8.62829    2.00000
   30     -8.41618    2.00000
   31     -8.31561    2.00000
   32     -8.21318    2.00000
   33     -7.73349    2.00000
   34     -7.68953    2.00000
   35     -7.29328    2.00000
   36     -7.24404    2.00000
   37     -7.16264    2.00000
   38     -7.08959    2.00000
   39     -7.00503    2.00000
   40     -6.76142    2.00000
   41     -6.65449    2.00000
   42     -5.77928    1.99947
   43     -5.41399    1.97969
   44     -5.34495    1.95989
   45     -5.15446    1.75824
   46     -5.04533    1.41894
   47     -4.99803    1.20685
   48     -4.95323    0.98592
   49     -4.84834    0.50812
   50     -4.72515    0.18076
   51     -4.21118    0.00116
   52     -4.18915    0.00093
   53     -3.84339    0.00003
   54     -3.30572    0.00000
   55     -2.99883    0.00000
   56     -2.53816    0.00000
   57     -2.01773    0.00000
   58     -1.99897    0.00000
   59     -1.95347    0.00000
   60     -1.85904    0.00000
   61     -1.21847    0.00000
   62     -0.79806    0.00000
   63     -0.59082    0.00000
   64      0.17595    0.00000
   65      0.70073    0.00000
   66      0.94186    0.00000
   67      1.22655    0.00000
   68      1.57026    0.00000
   69      2.53391    0.00000
   70      2.66198    0.00000
   71      3.60255    0.00000
   72      4.16887    0.00000
   73      4.45068    0.00000
   74      5.19215    0.00000
   75      5.48259    0.00000
   76      6.20012    0.00000
   77      6.39953    0.00000
   78      6.61217    0.00000
   79      6.71476    0.00000
   80      7.12270    0.00000
   81      7.36195    0.00000
   82      7.91426    0.00000
   83      8.12344    0.00000
   84      8.17840    0.00000
   85      8.36205    0.00000
   86      8.57199    0.00000
   87      8.69237    0.00000
   88      8.88000    0.00000
   89      9.04925    0.00000
   90      9.21645    0.00000
   91      9.31129    0.00000
   92      9.47740    0.00000
   93      9.50851    0.00000
   94      9.65675    0.00000
   95      9.73968    0.00000
   96      9.85151    0.00000
   97      9.90117    0.00000


Forces in eV/Ang:
  0 C    -0.33629    0.32834   -0.37695
  1 C    -0.65396    0.46576   -0.22336
  2 C    -0.07976    0.00674    0.07406
  3 C    -0.13448   -0.15893   -0.01374
  4 C     0.21892   -0.03314   -0.01775
  5 C    -0.44257    0.26544    0.01095
  6 C    -1.19631    0.07305   -0.04682
  7 C    -1.05369    0.10038    0.27681
  8 C     0.71376   -1.05323   -0.12847
[...]

Fermi level: -4.57874

 Band  Eigenvalues  Occupancy
    0    -24.74760    2.00000
    1    -23.37345    2.00000
    2    -21.39056    2.00000
    3    -21.24091    2.00000
    4    -20.77192    2.00000
    5    -20.26958    2.00000
    6    -19.90189    2.00000
    7    -19.24007    2.00000
    8    -19.06091    2.00000
    9    -18.65774    2.00000
   10    -17.93509    2.00000
   11    -17.35120    2.00000
   12    -17.07644    2.00000
   13    -15.96787    2.00000
   14    -15.82117    2.00000
   15    -15.32804    2.00000
   16    -14.77343    2.00000
   17    -14.39875    2.00000
   18    -14.12698    2.00000
   19    -13.91487    2.00000
   20    -13.49842    2.00000
   21    -13.23444    2.00000
   22    -12.91961    2.00000
   23    -11.84380    2.00000
   24    -11.70251    2.00000
   25    -11.48142    2.00000
   26    -10.92938    2.00000
   27    -10.29900    2.00000
   28     -9.50163    2.00000
   29     -9.33216    2.00000
   30     -8.93429    2.00000
   31     -8.86572    2.00000
   32     -8.35416    2.00000
   33     -8.19778    2.00000
   34     -8.10548    2.00000
   35     -7.83655    2.00000
   36     -7.66597    2.00000
   37     -7.55936    2.00000
   38     -7.34128    2.00000
   39     -7.03753    2.00000
   40     -6.95807    2.00000
   41     -6.56082    2.00000
   42     -5.79807    1.99999
   43     -5.21769    1.99665
   44     -5.20075    1.99603
   45     -4.92161    1.93718
   46     -4.87067    1.89759
   47     -4.84475    1.86925
   48     -4.40533    0.30013
   49     -3.93490    0.00319
   50     -2.74572    0.00000
   51     -2.55478    0.00000
   52     -2.35419    0.00000
   53     -2.20814    0.00000
   54     -2.15493    0.00000
   55     -1.94375    0.00000
   56     -1.76018    0.00000
   57     -1.04636    0.00000
   58     -0.95255    0.00000
   59     -0.73700    0.00000
   60     -0.54917    0.00000
   61      0.21378    0.00000
   62      0.60889    0.00000
   63      0.88748    0.00000
   64      0.98274    0.00000
   65      2.14242    0.00000
   66      2.83135    0.00000
   67      3.55263    0.00000
   68      3.72795    0.00000
   69      3.82458    0.00000
   70      4.25252    0.00000
   71      4.73997    0.00000
   72      4.97635    0.00000
   73      5.40644    0.00000
   74      5.45650    0.00000
   75      6.22930    0.00000
   76      6.52402    0.00000
   77      6.74932    0.00000
   78      6.87587    0.00000
   79      7.16625    0.00000
   80      7.67448    0.00000
   81      7.68012    0.00000
   82      7.94027    0.00000
   83      8.05840    0.00000
   84      8.34414    0.00000
   85      8.61796    0.00000
   86      8.69383    0.00000
   87      8.73392    0.00000
   88      8.92892    0.00000
   89      9.08725    0.00000
   90      9.18182    0.00000
   91      9.30117    0.00000
   92      9.36482    0.00000
   93      9.40225    0.00000
   94      9.62797    0.00000
   95      9.70763    0.00000
   96      9.81024    0.00000
   97      9.92353    0.00000


Forces in eV/Ang:
  0 C    -0.01051    0.04283   -0.02233
  1 C    -0.02526    0.03941   -0.00234
  2 C     0.00348    0.00490    0.02232
  3 C     0.05424   -0.00763   -0.01556
  4 C     0.07198   -0.03616    0.01577
  5 C     0.01785   -0.02232   -0.03333
  6 C     0.00604    0.00229   -0.00147
  7 C    -0.06741    0.01561   -0.07137
  8 C     0.03256    0.01095   -0.01689
  9 C     0.02699    0.04944    0.02186
 10 C    -0.01915    0.04282    0.01965
 11 C    -0.04826    0.05433    0.04762
 12 C     0.07466   -0.07853    0.02486
 13 C    -0.00403   -0.13099    0.06103
 14 C     0.03344   -0.03148   -0.04939
 15 C     0.00048    0.05950    0.03803
 16 C     0.06063   -0.01569   -0.06152
 17 C     0.00680    0.00271    0.00644
 18 C    -0.02206   -0.04637    0.00083
 19 C    -0.06874    0.00576    0.00166
 20 C    -0.02996   -0.03193    0.01657
 21 C     0.00318    0.00775   -0.01946
 22 C     0.01900   -0.01706   -0.00819
 23 C    -0.04404    0.03546   -0.03454

System changes: positions 

Initializing position-dependent things.

Density initialized from wave functions
           .--------------------------------------.  
          /|                                      |  
         / |                                      |  
        /  |                                      |  
       /   |                                      |  
      /    |                                      |  
     /     |                                      |  
    /      |                  C                   |  
   /       |                                      |  
  /        |C CC CCC C                            |  
 *         |         C  CC CC C  C                |  
 |         |            C   C                     |  
 |         .--------------C-----------------------.  
 |        /              C                       /   
 |       /                                      /    
 |      /              C                       /     
 |     /             C                        /      
 |    /                                      /       
 |   /                                      /        
 |  /                                      /         
 | /                                      /          
 |/                                      /           
 *--------------------------------------*            

Positions:
   0 C      4.424708   10.396392    5.249076
   1 C      4.272103    9.035243    5.943956
   2 C      2.972629   10.688193    5.267522
   3 C      2.883649    9.108823    6.071078
   4 C      1.882352   10.028984    5.706759
   5 C      5.550815   10.964786    4.817114
   6 C      5.285185    8.145241    6.283087
   7 C      9.341943   10.748639    4.484661
   8 C     10.900675    8.991141    5.166450
   9 C     10.471669   10.150169    4.645283
  10 C      6.827099   11.090806    4.572959
  11 C      8.102908   11.184977    4.379761
  12 C     11.118454    7.821377    5.624554
  13 C      7.744944   -0.048721    3.811848
  14 C      8.147211    0.975036    4.494702
  15 C      8.504789    2.114174    5.105011
  16 C     10.140008    6.903352    6.102399
  17 C      8.838612    7.138236    6.544428
  18 C      9.859493    5.547403    6.260218
  19 C      8.927315    4.506788    6.078161
  20 C      7.502230    6.753167    6.545598
  21 C      8.012019    5.452769    6.589317
  22 C      8.866906    3.200797    5.639150
  23 C      6.289359    7.446564    6.503865

Unit cell:
           periodic     x           y           z      points  spacing
  1. axis:    yes   16.000000    0.000000    0.000000    80     0.2000
  2. axis:    yes    0.000000   16.000000    0.000000    80     0.2000
  3. axis:    yes    0.000000    0.000000   10.000000    48     0.2083

Effective grid spacing dv^(1/3) = 0.2027

                     log10-error:    total        iterations:
           time      wfs    density  energy       fermi  poisson
iter:   1  10:41:48          +inf  -177.079292    3      5      
iter:   2  10:41:49         -2.66  -177.074832    2      1      
iter:   3  10:41:49         -2.80  -177.073743    2      1      
iter:   4  10:41:50         -2.90  -177.076808    2      1      
iter:   5  10:41:50         -3.06  -177.071432    2      2      
iter:   6  10:41:51         -3.09  -177.075009    2      1      
iter:   7  10:41:51         -3.33  -177.076317    2      1      
iter:   8  10:41:52         -3.37  -177.074165    2      1      
iter:   9  10:41:52         -3.73  -177.073823    2      1      
iter:  10  10:41:53         -3.78  -177.074455    2      1      
iter:  11  10:41:53         -3.89  -177.074068    2      1      
iter:  12  10:41:54         -4.12  -177.073888    2      1      

Converged after 12 iterations.

Dipole moment: (0.242843, -2.524833, 0.612289) |e|*Ang

Energy contributions relative to reference atoms: (reference = -24663.074771)

Kinetic:       +102.730313
Potential:     -111.862553
External:        +0.000000
XC:            -170.853740
Entropy (-ST):   -0.208792
Local:           +3.016488
--------------------------
Free energy:   -177.178284
Extrapolated:  -177.073888

Fermi level: -4.57910

 Band  Eigenvalues  Occupancy
    0    -24.76868    2.00000
    1    -23.35746    2.00000
    2    -21.39097    2.00000
    3    -21.25129    2.00000
    4    -20.76836    2.00000
    5    -20.26374    2.00000
    6    -19.90093    2.00000
    7    -19.23607    2.00000
    8    -19.05928    2.00000
    9    -18.65877    2.00000
   10    -17.92867    2.00000
   11    -17.35020    2.00000
   12    -17.07597    2.00000
   13    -15.95991    2.00000
   14    -15.82240    2.00000
   15    -15.33157    2.00000
   16    -14.76670    2.00000
   17    -14.39542    2.00000
   18    -14.12449    2.00000
   19    -13.91358    2.00000
   20    -13.50130    2.00000
   21    -13.23690    2.00000
   22    -12.92408    2.00000
   23    -11.84557    2.00000
   24    -11.69433    2.00000
   25    -11.49184    2.00000
   26    -10.92507    2.00000
   27    -10.29224    2.00000
   28     -9.49668    2.00000
   29     -9.32672    2.00000
   30     -8.93136    2.00000
   31     -8.86773    2.00000
   32     -8.36017    2.00000
   33     -8.19996    2.00000
   34     -8.10612    2.00000
   35     -7.82760    2.00000
   36     -7.66146    2.00000
   37     -7.55700    2.00000
   38     -7.33591    2.00000
   39     -7.03437    2.00000
   40     -6.95964    2.00000
   41     -6.56200    2.00000
   42     -5.80119    1.99999
   43     -5.21239    1.99645
   44     -5.19947    1.99596
   45     -4.91190    1.93075
   46     -4.87162    1.89816
   47     -4.85163    1.87700
   48     -4.40499    0.29835
   49     -3.93950    0.00333
   50     -2.73521    0.00000
   51     -2.55158    0.00000
   52     -2.35650    0.00000
   53     -2.20190    0.00000
   54     -2.13452    0.00000
   55     -1.96424    0.00000
   56     -1.74354    0.00000
   57     -1.04097    0.00000
   58     -0.94404    0.00000
   59     -0.72695    0.00000
   60     -0.55192    0.00000
   61      0.21913    0.00000
   62      0.60812    0.00000
   63      0.86072    0.00000
   64      0.96510    0.00000
   65      2.14395    0.00000
   66      2.83683    0.00000
   67      3.56398    0.00000
   68      3.72215    0.00000
   69      3.80653    0.00000
   70      4.25262    0.00000
   71      4.73281    0.00000
   72      4.95811    0.00000
   73      5.40257    0.00000
   74      5.48248    0.00000
   75      6.18981    0.00000
   76      6.51549    0.00000
   77      6.77238    0.00000
   78      6.87690    0.00000
   79      7.18422    0.00000
   80      7.65701    0.00000
   81      7.66873    0.00000
   82      7.94010    0.00000
   83      8.06495    0.00000
   84      8.34889    0.00000
   85      8.61568    0.00000
   86      8.69118    0.00000
   87      8.74232    0.00000
   88      8.91049    0.00000
   89      9.05913    0.00000
   90      9.17935    0.00000
   91      9.27410    0.00000
   92      9.35945    0.00000
   93      9.39068    0.00000
   94      9.62950    0.00000
   95      9.72537    0.00000
   96      9.81706    0.00000
   97      9.91028    0.00000


Forces in eV/Ang:
  0 C     0.00901    0.05571   -0.08034
  1 C    -0.03678    0.00086    0.07999
  2 C     0.05157    0.03093    0.02679
  3 C     0.05896    0.02293   -0.05376
  4 C     0.06597   -0.04753    0.00569
  5 C    -0.03057    0.01232   -0.05137
  6 C    -0.05395    0.08273   -0.02021
  7 C    -0.02563   -0.02129   -0.04762
  8 C    -0.00077    0.02461   -0.02570
  9 C    -0.02187    0.01935    0.06096
 10 C    -0.00627    0.01859    0.07530
 11 C    -0.04460    0.02336    0.05633
 12 C     0.05404   -0.01672   -0.00444
 13 C     0.02334   -0.09530    0.06968
 14 C     0.05791    0.01017    0.01103
 15 C    -0.00523    0.09363    0.00361
 16 C     0.03318    0.03015   -0.05056
 17 C    -0.02293   -0.01558    0.02784
 18 C     0.04017   -0.08899   -0.01453
 19 C    -0.04534   -0.00559   -0.02178
 20 C    -0.02028   -0.02273    0.03702
 21 C     0.01338    0.00620   -0.02591
 22 C    -0.00217   -0.07358   -0.01490
 23 C    -0.00883   -0.01115   -0.03982

System changes: positions 

Initializing position-dependent things.

Density initialized from wave functions
           .--------------------------------------.  
          /|                                      |  
         / |                                      |  
        /  |                                      |  
       /   |                                      |  
      /    |                                      |  
     /     |                                      |  
    /      |                  C                   |  
   /       |                                      |  
  /        |C CC CCC C                            |  
 *         |         C C C CC C  C                |  
 |         |            C   C                     |  
 |         .--------------C-----------------------.  
 |        /              C                       /   
 |       /                                      /    
 |      /              C                       /     
 |     /             C                        /      
 |    /                                      /       
 |   /                                      /        
 |  /                                      /         
 | /                                      /          
 |/                                      /           
 *--------------------------------------*            

Positions:
   0 C      4.424589   10.395792    5.249527
   1 C      4.266908    9.035540    5.945423
   2 C      2.973225   10.694853    5.271992
   3 C      2.879507    9.115008    6.076050
   4 C      1.881509   10.037202    5.710425
   5 C      5.552407   10.958223    4.815409
   6 C      5.276854    8.142527    6.284442
   7 C      9.343344   10.744886    4.489423
   8 C     10.904138    8.988624    5.171956
   9 C     10.472997   10.147366    4.653676
  10 C      6.828180   11.082551    4.571254
  11 C      8.104373   11.180656    4.381001
  12 C     11.119829    7.815805    5.624510
  13 C      7.764709   -0.065539    3.820079
  14 C      8.151325    0.967949    4.498868
  15 C      8.502201    2.110864    5.105921
  16 C     10.136528    6.899067    6.097079
  17 C      8.833832    7.139480    6.536003
  18 C      9.854229    5.543719    6.255399
  19 C      8.919553    4.505510    6.074887
  20 C      7.497481    6.752921    6.537537
  21 C      8.004069    5.452521    6.582400
  22 C      8.861168    3.198495    5.638296
  23 C      6.284456    7.446579    6.498424

Unit cell:
           periodic     x           y           z      points  spacing
  1. axis:    yes   16.000000    0.000000    0.000000    80     0.2000
  2. axis:    yes    0.000000   16.000000    0.000000    80     0.2000
  3. axis:    yes    0.000000    0.000000   10.000000    48     0.2083

Effective grid spacing dv^(1/3) = 0.2027

                     log10-error:    total        iterations:
           time      wfs    density  energy       fermi  poisson
iter:   1  10:41:55          +inf  -177.082097    2      5      
iter:   2  10:41:56         -2.89  -177.076980    2      1      
iter:   3  10:41:56         -3.09  -177.075437    2      1      
iter:   4  10:41:57         -3.19  -177.077122    2      1      
iter:   5  10:41:57         -3.34  -177.073825    2      1      
iter:   6  10:41:58         -3.34  -177.076278    2      1      
iter:   7  10:41:58         -3.71  -177.077955    2      1      
iter:   8  10:41:59         -3.49  -177.075890    2      1      
iter:   9  10:41:59         -3.98  -177.075792    2      1      
iter:  10  10:42:00         -4.01  -177.076556    2      1      

Converged after 10 iterations.

Dipole moment: (0.236233, -0.275169, 0.608116) |e|*Ang

Energy contributions relative to reference atoms: (reference = -24663.074771)

Kinetic:       +102.791730
Potential:     -111.939436
External:        +0.000000
XC:            -170.849520
Entropy (-ST):   -0.207657
Local:           +3.024498
--------------------------
Free energy:   -177.180385
Extrapolated:  -177.076556

Fermi level: -4.57782

 Band  Eigenvalues  Occupancy
    0    -24.75833    2.00000
    1    -23.35274    2.00000
    2    -21.38893    2.00000
    3    -21.25120    2.00000
    4    -20.76734    2.00000
    5    -20.26315    2.00000
    6    -19.90052    2.00000
    7    -19.23498    2.00000
    8    -19.05933    2.00000
    9    -18.65573    2.00000
   10    -17.92663    2.00000
   11    -17.34761    2.00000
   12    -17.07420    2.00000
   13    -15.95876    2.00000
   14    -15.82099    2.00000
   15    -15.33227    2.00000
   16    -14.76846    2.00000
   17    -14.39961    2.00000
   18    -14.12654    2.00000
   19    -13.91328    2.00000
   20    -13.50058    2.00000
   21    -13.23668    2.00000
   22    -12.92064    2.00000
   23    -11.84699    2.00000
   24    -11.70605    2.00000
   25    -11.48828    2.00000
   26    -10.92520    2.00000
   27    -10.28997    2.00000
   28     -9.49689    2.00000
   29     -9.32617    2.00000
   30     -8.93259    2.00000
   31     -8.86741    2.00000
   32     -8.35831    2.00000
   33     -8.19499    2.00000
   34     -8.10488    2.00000
   35     -7.82554    2.00000
   36     -7.66122    2.00000
   37     -7.55793    2.00000
   38     -7.33575    2.00000
   39     -7.03415    2.00000
   40     -6.95944    2.00000
   41     -6.56184    2.00000
   42     -5.79817    1.99999
   43     -5.21106    1.99645
   44     -5.19847    1.99598
   45     -4.91074    1.93083
   46     -4.86915    1.89699
   47     -4.85358    1.88067
   48     -4.40267    0.29572
   49     -3.93931    0.00337
   50     -2.73759    0.00000
   51     -2.55173    0.00000
   52     -2.36337    0.00000
   53     -2.20038    0.00000
   54     -2.16046    0.00000
   55     -1.97207    0.00000
   56     -1.75912    0.00000
   57     -1.03903    0.00000
   58     -0.94209    0.00000
   59     -0.72575    0.00000
   60     -0.54964    0.00000
   61      0.22384    0.00000
   62      0.61411    0.00000
   63      0.86303    0.00000
   64      0.96830    0.00000
   65      2.15187    0.00000
   66      2.84179    0.00000
   67      3.57456    0.00000
   68      3.72090    0.00000
   69      3.81176    0.00000
   70      4.24708    0.00000
   71      4.73695    0.00000
   72      4.95228    0.00000
   73      5.40309    0.00000
   74      5.48788    0.00000
   75      6.17550    0.00000
   76      6.51036    0.00000
   77      6.78331    0.00000
   78      6.87880    0.00000
   79      7.19775    0.00000
   80      7.64910    0.00000
   81      7.67334    0.00000
   82      7.94591    0.00000
   83      8.05706    0.00000
   84      8.34677    0.00000
   85      8.61567    0.00000
   86      8.69128    0.00000
   87      8.74646    0.00000
   88      8.91279    0.00000
   89      9.05870    0.00000
   90      9.18045    0.00000
   91      9.26973    0.00000
   92      9.35721    0.00000
   93      9.39141    0.00000
   94      9.63113    0.00000
   95      9.72942    0.00000
   96      9.81826    0.00000
   97      9.91194    0.00000


Forces in eV/Ang:
  0 C    -0.02490    0.04447   -0.06982
  1 C    -0.04415    0.00777    0.07623
  2 C     0.05073    0.03411    0.02783
  3 C     0.05177   -0.00304   -0.05277
  4 C     0.01644   -0.02000    0.01084
  5 C    -0.05263    0.01518   -0.03878
  6 C    -0.02200    0.08787   -0.02495
  7 C    -0.02648   -0.02015   -0.05278
  8 C    -0.00587   -0.01205   -0.02683
  9 C    -0.02966    0.04864    0.03001
 10 C     0.03613    0.03412    0.05850
 11 C    -0.05483    0.01878    0.05403
 12 C     0.03625   -0.02294   -0.00011
 13 C     0.04469   -0.01865    0.07898
 14 C     0.02532   -0.01427   -0.02502
 15 C    -0.00927    0.04437   -0.01103
 16 C     0.01589    0.06289   -0.04350
 17 C     0.00223   -0.02299   -0.00613
 18 C     0.03680   -0.07403   -0.01295
 19 C    -0.02725   -0.01148   -0.01750
 20 C    -0.04330    0.00680    0.01271
 21 C     0.01288   -0.02897   -0.02662
 22 C    -0.00778   -0.02627    0.00162
 23 C    -0.01211   -0.01589   -0.03024

