
  ___ ___ ___ _ _ _  
 |   |   |_  | | | | 
 | | | | | . | | | | 
 |__ |  _|___|_____|  1.3.0b1
 |___|_|             

User:   esb@s65n31.grendel.cscaa.dk
Date:   Wed Nov  8 17:12:57 2017
Arch:   x86_64
Pid:    7262
Python: 2.7.13
gpaw:   /home/esb/DFT/gpaw_git/gpaw
_gpaw:  /home/esb/DFT/gpaw_git/build/bin.linux-x86_64-2.7/gpaw-python
ase:    /home/esb/DFT/ase_git/ase (version 3.15.0b1)
numpy:  /comm/swstack/core/python/2.7.13/lib/python2.7/site-packages/numpy (version 1.13.3)
scipy:  /comm/swstack/core/python/2.7.13/lib/python2.7/site-packages/scipy (version 0.19.1)
units:  Angstrom and eV
cores:  16
Extra parameters: {'blacs': True}

Input parameters:
  basis: dzp
  gpts: [80 80 48]
  kpts: [1 1 1]
  maxiter: 99
  mixer: {backend: pulay,
          beta: 0.05,
          method: separate,
          nmaxold: 5,
          weight: 75}
  mode: lcao
  nbands: -50
  occupations: {name: fermi-dirac,
                width: 0.1}
  poissonsolver: {eps: 1e-07,
                  name: fd,
                  nn: 3,
                  relax: GS}
  xc: PBE

System changes: positions, numbers, cell, pbc, initial_charges, initial_magmoms 

Initialize ...

C-setup:
  name: Carbon
  id: 4aa54d4b901d75f77cc0ea3eec22967b
  Z: 6
  valence: 4
  core: 2
  charge: 0.0
  file: /home/esb/DFT/gpaw-setups-0.8.7929/C.PBE.gz
  cutoffs: 0.64(comp), 1.14(filt), 1.14(core), lmax=2
  valence states:
                energy  radius
    2s(2.00)   -13.751   0.635
    2p(2.00)    -5.284   0.635
    *s          13.461   0.635
    *p          21.927   0.635
    *d           0.000   0.635

  LCAO basis set for C:
    Name: dzp
    File: /home/esb/DFT/gpaw-setups-0.8.7929/C.dzp.basis.gz
    Number of radial functions: 5
    Number of spherical harmonics: 13
      l=0, rc=5.5469 Bohr: 2s-sz confined orbital
      l=1, rc=6.6719 Bohr: 2p-sz confined orbital
      l=0, rc=3.0312 Bohr: 2s-dz split-valence wave
      l=1, rc=3.7500 Bohr: 2p-dz split-valence wave
      l=2, rc=6.6719 Bohr: d-type Gaussian polarization

Reference energy: -24663.074771

Spin-paired calculation

Occupation numbers:
  Fermi-Dirac: width=0.1000 eV

Convergence criteria:
  Maximum total energy change: 0.0005 eV / electron
  Maximum integral of absolute density change: 0.0001 electrons
  Maximum integral of absolute eigenstate change: 4e-08 eV^2
  Maximum number of iterations: 99

Symmetries present (total): 1

  ( 1  0  0)
  ( 0  1  0)
  ( 0  0  1)

1 k-point (Gamma)
1 k-point in the irreducible part of the Brillouin zone
       k-points in crystal coordinates                weights
   0:     0.00000000    0.00000000    0.00000000          1/1

Wave functions: LCAO
  Diagonalizer: Serial LAPACK
  Atomic Correction: dense with blas
  Datatype: float
  Eigensolver: None 

LCAO using direct dense diagonalizer 

Densities:
  Coarse grid: 80*80*48 grid
  Fine grid: 160*160*96 grid
  Total Charge: 0.000000 

Density mixing:
  Method: separate
  Backend: pulay
  Linear mixing parameter: 0.05
  Mixing with 5 old densities
  Damping of long wave oscillations: 75 

Hamiltonian:
  XC and Coulomb potentials evaluated on a 160*160*96 grid
  Using the PBE Exchange-Correlation functional
  Interpolation: tri-quintic (5. degree polynomial)
  Poisson solver: Gauss-Seidel solver with 6 multi-grid levels
    Coarsest grid: 5 x 5 x 3 points
    Stencil: 6*3+1=19 point O(h^6) finite-difference Laplacian
    Max iterations: 1000
    Tolerance: 1.000000e-07 

Memory estimate:
  Process memory now: 77.57 MiB
  Calculator: 15.59 MiB
    Density: 6.13 MiB
      Arrays: 3.81 MiB
      Localized functions: 0.86 MiB
      Mixer: 1.46 MiB
    Hamiltonian: 5.40 MiB
      Arrays: 2.49 MiB
      XC: 0.00 MiB
      Poisson: 2.85 MiB
      vbar: 0.07 MiB
    Wavefunctions: 4.05 MiB
      C [qnM]: 0.23 MiB
      S, T [2 x qmm]: 1.49 MiB
      P [aqMi]: 0.01 MiB
      TCI: 0.00 MiB
      BasisFunctions: 2.33 MiB
      Eigensolver: 0.00 MiB

Total number of cores used: 16
Domain decomposition: 2 x 4 x 2

Number of atoms: 24
Number of atomic orbitals: 312
Number of bands in calculation: 98
Bands to converge: occupied states only
Number of valence electrons: 96

... initialized

Initializing position-dependent things.

Density initialized from atomic densities
           .--------------------------------------.  
          /|                                      |  
         / |                                      |  
        /  |                                      |  
       /   |                                      |  
      /    |                                      |  
     /     |                                      |  
    /      |                                      |  
   /       |                                      |  
  /        |        C  C    C C                   |  
 *         |     C       C    C                   |  
 |         C  C          C  C                     |  
 |         .--------C-C----C----------------------.  
 |        /      C C  C  C         CC            /   
 |       /            C                         /    
 |      /                                      /     
 |     /                                      /      
 |    /                                      /       
 |   /                                      /        
 |  /                                      /         
 | /                                      /          
 |/                                      /           
 *--------------------------------------*            

Positions:
   0 C      6.181076   10.530965    5.157235
   1 C      7.433542    9.885691    5.047738
   2 C      8.668672   10.101004    5.717851
   3 C      6.818571    7.532055    3.708141
   4 C      5.024650    5.647637    4.664863
   5 C      5.905748    6.451393    3.771839
   6 C      7.595645    8.605082    4.378795
   7 C      9.985191    4.490825    7.060063
   8 C      8.915557    3.808268    6.972799
   9 C      7.706691    3.437780    6.509269
  10 C      6.668514    3.873962    5.918090
  11 C      9.756382    7.924533    5.608263
  12 C      9.619518    9.297190    5.948474
  13 C      7.958922    6.570902    3.980670
  14 C      6.143453    4.708045    4.932752
  15 C      7.031779    5.503978    4.041924
  16 C      8.697496    7.675659    4.642982
  17 C      4.360432    9.223486    5.358530
  18 C      3.000382    8.840544    4.969809
  19 C      3.583505    7.185934    5.089279
  20 C      2.310579    7.669470    4.807715
  21 C     12.511980    7.550929    3.913586
  22 C      5.096985   10.340314    5.452164
  23 C     12.188073    6.319287    3.901705

Unit cell:
           periodic     x           y           z      points  spacing
  1. axis:    yes   16.000000    0.000000    0.000000    80     0.2000
  2. axis:    yes    0.000000   16.000000    0.000000    80     0.2000
  3. axis:    yes    0.000000    0.000000   10.000000    48     0.2083

Effective grid spacing dv^(1/3) = 0.2027

                     log10-error:    total        iterations:
           time      wfs    density  energy       fermi  poisson
iter:   1  17:12:59          +inf  -169.440352    2      6      
iter:   2  17:13:00         -0.84  -165.876541    3      3      
iter:   3  17:13:00         -0.93  -164.733691    3      3      
iter:   4  17:13:01         -0.98  -164.051775    3      3      
iter:   5  17:13:01         -1.02  -162.779438    33     3      
iter:   6  17:13:02         -1.13  -162.449462    3      2      
iter:   7  17:13:02         -1.19  -161.981867    32     3      
iter:   8  17:13:03         -1.46  -161.989282    3      3      
iter:   9  17:13:03         -1.54  -161.992817    3      3      
iter:  10  17:13:04         -1.58  -161.932188    3      3      
iter:  11  17:13:05         -1.83  -161.928253    2      3      
iter:  12  17:13:05         -1.96  -161.915178    3      2      
iter:  13  17:13:06         -2.08  -161.911554    3      2      
iter:  14  17:13:06         -2.23  -161.906809    3      2      
iter:  15  17:13:07         -2.35  -161.903667    3      2      
iter:  16  17:13:07         -2.55  -161.900185    3      2      
iter:  17  17:13:08         -2.75  -161.898663    3      2      
iter:  18  17:13:08         -2.91  -161.906445    2      1      
iter:  19  17:13:09         -3.01  -161.907360    2      1      
iter:  20  17:13:09         -3.13  -161.900694    2      1      
iter:  21  17:13:10         -3.20  -161.901601    2      1      
iter:  22  17:13:10         -3.39  -161.900500    2      1      
iter:  23  17:13:11         -3.47  -161.894697    2      1      
iter:  24  17:13:11         -3.57  -161.896567    2      1      
iter:  25  17:13:12         -3.67  -161.891330    2      1      
iter:  26  17:13:12         -4.06  -161.895596    2      1      

Converged after 26 iterations.

Dipole moment: (-1.624420, 0.720091, -0.113583) |e|*Ang

Energy contributions relative to reference atoms: (reference = -24663.074771)

Kinetic:       +108.181993
Potential:     -111.327207
External:        +0.000000
XC:            -161.388824
Entropy (-ST):   -0.536625
Local:           +2.906753
--------------------------
Free energy:   -162.163909
Extrapolated:  -161.895596

Fermi level: -4.96465

 Band  Eigenvalues  Occupancy
    0    -24.19030    2.00000
    1    -22.73426    2.00000
    2    -22.59912    2.00000
    3    -21.67772    2.00000
    4    -21.06945    2.00000
    5    -20.13915    2.00000
    6    -19.37687    2.00000
    7    -18.95534    2.00000
    8    -17.97550    2.00000
    9    -17.72434    2.00000
   10    -16.95255    2.00000
   11    -16.90214    2.00000
   12    -16.53033    2.00000
   13    -15.80805    2.00000
   14    -14.91845    2.00000
   15    -14.58150    2.00000
   16    -14.06876    2.00000
   17    -13.75439    2.00000
   18    -13.39160    2.00000
   19    -12.83934    2.00000
   20    -12.48570    2.00000
   21    -11.56520    2.00000
   22    -11.36231    2.00000
   23    -11.03664    2.00000
   24    -10.72631    2.00000
   25    -10.23020    2.00000
   26     -9.87474    2.00000
   27     -9.68223    2.00000
   28     -9.64713    2.00000
   29     -8.92833    2.00000
   30     -8.88008    2.00000
   31     -8.68849    2.00000
   32     -8.32056    2.00000
   33     -8.24183    2.00000
   34     -7.97224    2.00000
   35     -7.74074    2.00000
   36     -7.47686    2.00000
   37     -7.01545    2.00000
   38     -6.89841    2.00000
   39     -6.42281    2.00000
   40     -6.13125    1.99998
   41     -5.72483    1.99900
   42     -5.61673    1.99706
   43     -5.38227    1.96975
   44     -5.31833    1.94344
   45     -5.27113    1.91084
   46     -5.22980    1.86820
   47     -4.96645    1.00902
   48     -4.92711    0.81446
   49     -4.83109    0.41645
   50     -4.63555    0.07176
   51     -3.87548    0.00004
   52     -3.58301    0.00000
   53     -3.28284    0.00000
   54     -3.02044    0.00000
   55     -2.83168    0.00000
   56     -1.83920    0.00000
   57     -1.67168    0.00000
   58     -1.42887    0.00000
   59     -1.36632    0.00000
   60     -0.53328    0.00000
   61     -0.33080    0.00000
   62     -0.01843    0.00000
   63      0.41756    0.00000
   64      1.03577    0.00000
   65      1.36450    0.00000
   66      1.62122    0.00000
   67      1.73361    0.00000
   68      1.86380    0.00000
   69      2.59226    0.00000
   70      2.78427    0.00000
   71      3.17841    0.00000
   72      3.73872    0.00000
   73      4.56778    0.00000
   74      4.95668    0.00000
   75      5.49378    0.00000
   76      5.75146    0.00000
   77      6.22223    0.00000
   78      6.53755    0.00000
   79      6.66572    0.00000
   80      7.31441    0.00000
   81      7.46129    0.00000
   82      7.76111    0.00000
   83      7.97708    0.00000
   84      8.43628    0.00000
   85      8.50153    0.00000
   86      8.68371    0.00000
   87      8.70145    0.00000
   88      8.85003    0.00000
   89      9.01750    0.00000
   90      9.09818    0.00000
   91      9.15156    0.00000
   92      9.28456    0.00000
   93      9.38572    0.00000
   94      9.63268    0.00000
   95      9.78634    0.00000
   96      9.87637    0.00000
   97      9.97667    0.00000


Forces in eV/Ang:
  0 C    14.72398    2.23290   -2.90166
  1 C     1.29790    0.34433    0.04077
  2 C    -0.62956    0.92665    0.23991
  3 C     0.81036    0.54827    0.00456
  4 C    -0.26151    3.03706   -2.22380
  5 C    -1.30093   -0.70205    1.17031
  6 C    -1.15633   -0.04264    0.05612
  7 C     2.27545    1.35184    0.37025
  8 C    -1.99350   -2.09764   -0.00941
  9 C     0.68763    1.15038    0.03121
 10 C    -1.63233    0.27088   -0.93599
 11 C    -0.81986    1.69948   -1.06419
 12 C     0.60507   -2.36942   -0.62998
 13 C    -0.37517   -0.01469   -0.39763
 14 C     1.13294   -0.71194    1.84951
 15 C    -0.20570   -0.26592   -0.38430
 16 C     1.58946   -0.40520    1.10450
 17 C    -7.00474   -0.38903   -0.90056
 18 C     5.81562    1.35437    1.93023
 19 C    -1.09280   -1.26461    0.02709
 20 C     0.40729   -2.37919   -0.17697
 21 C     0.25081    2.06265    0.21665
 22 C   -12.38314   -2.39798    2.36550
 23 C    -0.77620   -1.94506    0.18052

System changes: positions 

Initializing position-dependent things.

Density initialized from wave functions
           .--------------------------------------.  
          /|                                      |  
         / |                                      |  
        /  |                                      |  
       /   |                                      |  
      /    |                                      |  
     /     |                                      |  
    /      |                                      |  
   /       |                                      |  
  /        |        C  C    C C                   |  
 *         |     C       C    C                   |  
 |         C  C          C  C                     |  
 |         .--------C-C----C----------------------.  
 |        /      C C  C  C         CC            /   
 |       /            C                         /    
 |      /                                      /     
 |     /                                      /      
 |    /                                      /       
 |   /                                      /        
 |  /                                      /         
 | /                                      /          
 |/                                      /           
 *--------------------------------------*            

Positions:
   0 C      6.219894   10.536852    5.149585
   1 C      7.436964    9.886599    5.047846
   2 C      8.667012   10.103447    5.718484
   3 C      6.820708    7.533501    3.708153
   4 C      5.023961    5.655644    4.659000
   5 C      5.902318    6.449542    3.774925
   6 C      7.592597    8.604970    4.378943
   7 C      9.991190    4.494389    7.061039
   8 C      8.910302    3.802738    6.972774
   9 C      7.708504    3.440813    6.509351
  10 C      6.664210    3.874676    5.915622
  11 C      9.754220    7.929013    5.605458
  12 C      9.621113    9.290944    5.946813
  13 C      7.957933    6.570863    3.979622
  14 C      6.146440    4.706168    4.937628
  15 C      7.031236    5.503277    4.040910
  16 C      8.701687    7.674591    4.645894
  17 C      4.341965    9.222460    5.356156
  18 C      3.015714    8.844115    4.974898
  19 C      3.580624    7.182600    5.089351
  20 C      2.311652    7.663197    4.807249
  21 C     12.512641    7.556367    3.914157
  22 C      5.064339   10.333992    5.458400
  23 C     12.186026    6.314159    3.902181

Unit cell:
           periodic     x           y           z      points  spacing
  1. axis:    yes   16.000000    0.000000    0.000000    80     0.2000
  2. axis:    yes    0.000000   16.000000    0.000000    80     0.2000
  3. axis:    yes    0.000000    0.000000   10.000000    48     0.2083

Effective grid spacing dv^(1/3) = 0.2027

                     log10-error:    total        iterations:
           time      wfs    density  energy       fermi  poisson
iter:   1  17:13:14          +inf  -163.146514    3      5      
iter:   2  17:13:14         -1.71  -163.097883    3      2      
iter:   3  17:13:15         -1.79  -163.021787    3      2      
iter:   4  17:13:15         -2.16  -163.002622    3      2      
iter:   5  17:13:16         -2.32  -162.993902    3      2      
iter:   6  17:13:16         -2.45  -162.989212    3      2      
iter:   7  17:13:17         -2.65  -162.987391    3      2      
iter:   8  17:13:18         -2.77  -162.985555    3      2      
iter:   9  17:13:18         -2.97  -162.984842    2      2      
iter:  10  17:13:19         -3.16  -162.985825    2      1      
iter:  11  17:13:19         -3.27  -162.984716    2      1      
iter:  12  17:13:20         -3.44  -162.983760    2      1      
iter:  13  17:13:20         -3.56  -162.983553    2      1      
iter:  14  17:13:20         -3.71  -162.983287    2      1      
iter:  15  17:13:21         -3.83  -162.983852    2      1      
iter:  16  17:13:21         -3.94  -162.983267    2      1      
iter:  17  17:13:22         -4.12  -162.983954    2      1      

Converged after 17 iterations.

Dipole moment: (-1.568542, 0.677361, -0.106064) |e|*Ang

Energy contributions relative to reference atoms: (reference = -24663.074771)

Kinetic:       +100.223984
Potential:     -105.666307
External:        +0.000000
XC:            -160.171756
Entropy (-ST):   -0.514203
Local:           +2.887226
--------------------------
Free energy:   -163.241056
Extrapolated:  -162.983954

Fermi level: -4.95063

 Band  Eigenvalues  Occupancy
    0    -24.19235    2.00000
    1    -22.68422    2.00000
    2    -22.60885    2.00000
    3    -21.54759    2.00000
    4    -20.97713    2.00000
    5    -20.17533    2.00000
    6    -19.46948    2.00000
    7    -18.94856    2.00000
    8    -18.00091    2.00000
    9    -17.74538    2.00000
   10    -16.91738    2.00000
   11    -16.89593    2.00000
   12    -16.52224    2.00000
   13    -15.84545    2.00000
   14    -15.02677    2.00000
   15    -14.65909    2.00000
   16    -13.99751    2.00000
   17    -13.80506    2.00000
   18    -13.33518    2.00000
   19    -12.81178    2.00000
   20    -12.50732    2.00000
   21    -11.58939    2.00000
   22    -11.38830    2.00000
   23    -11.03911    2.00000
   24    -10.74777    2.00000
   25    -10.19009    2.00000
   26     -9.82466    2.00000
   27     -9.70515    2.00000
   28     -9.66486    2.00000
   29     -8.92364    2.00000
   30     -8.85354    2.00000
   31     -8.54307    2.00000
   32     -8.26848    2.00000
   33     -8.24804    2.00000
   34     -7.97550    2.00000
   35     -7.74218    2.00000
   36     -7.51533    2.00000
   37     -7.04067    2.00000
   38     -6.92095    2.00000
   39     -6.41927    2.00000
   40     -6.06108    1.99997
   41     -5.73644    1.99923
   42     -5.63309    1.99783
   43     -5.40371    1.97869
   44     -5.32440    1.95349
   45     -5.25381    1.90798
   46     -5.24042    1.89548
   47     -4.95358    1.01475
   48     -4.90630    0.78192
   49     -4.81735    0.41739
   50     -4.59051    0.05313
   51     -3.98753    0.00013
   52     -3.62959    0.00000
   53     -3.28533    0.00000
   54     -3.02315    0.00000
   55     -2.80949    0.00000
   56     -1.90488    0.00000
   57     -1.65117    0.00000
   58     -1.53277    0.00000
   59     -1.44691    0.00000
   60     -0.51776    0.00000
   61     -0.33917    0.00000
   62     -0.10741    0.00000
   63      0.39042    0.00000
   64      0.92125    0.00000
   65      1.34685    0.00000
   66      1.54257    0.00000
   67      1.64379    0.00000
   68      1.80624    0.00000
   69      2.64344    0.00000
   70      2.78158    0.00000
   71      3.14474    0.00000
   72      3.73418    0.00000
   73      4.55079    0.00000
   74      5.05702    0.00000
   75      5.44495    0.00000
   76      5.77466    0.00000
   77      6.23007    0.00000
   78      6.60415    0.00000
   79      6.70492    0.00000
   80      7.33161    0.00000
   81      7.59350    0.00000
   82      7.78330    0.00000
   83      8.05881    0.00000
   84      8.45163    0.00000
   85      8.51145    0.00000
   86      8.67788    0.00000
   87      8.74368    0.00000
   88      8.84260    0.00000
   89      9.03798    0.00000
   90      9.13611    0.00000
   91      9.17657    0.00000
   92      9.29244    0.00000
   93      9.43760    0.00000
   94      9.64456    0.00000
   95      9.80986    0.00000
   96      9.88557    0.00000
   97     10.08152    0.00000


Forces in eV/Ang:
  0 C     5.06233    1.04284   -0.58947
  1 C     1.80477    0.09740    0.04310
  2 C     0.16753    0.64651    0.45378
  3 C     0.76634    0.49873    0.03510
  4 C    -0.34053    2.96409   -2.04765
  5 C    -1.12708   -0.57933    1.08338
  6 C    -0.95240   -0.33419   -0.03973
  7 C     1.55934    0.89414    0.32459
  8 C    -0.98742   -1.54625    0.14003
  9 C     0.26294    1.15144   -0.17984
 10 C    -1.40231    0.05998   -0.64786
 11 C    -0.67649    1.42671   -1.03507
 12 C     0.12141   -1.78360   -0.67487
 13 C    -0.35665   -0.00242   -0.35350
 14 C     0.98015   -0.48584    1.59011
 15 C    -0.22916   -0.22028   -0.36577
 16 C     1.32987   -0.41212    0.93362
 17 C    -6.31402   -0.06235   -0.83351
 18 C     4.85269    0.39533    1.76786
 19 C    -1.03937   -1.38334   -0.07404
 20 C     0.55669   -1.92154   -0.14537
 21 C     0.06585    1.36372    0.20717
 22 C    -3.42479   -0.58879    0.18239
 23 C    -0.59228   -1.24208    0.18748

System changes: positions 

Initializing position-dependent things.

Density initialized from wave functions
           .--------------------------------------.  
          /|                                      |  
         / |                                      |  
        /  |                                      |  
       /   |                                      |  
      /    |                                      |  
     /     |                                      |  
    /      |                                      |  
   /       |                                      |  
  /        |        C  C    C C                   |  
 *         |  C  C       C    C                   |  
 |         C  C          C  C                     |  
 |         .--------C-C----C----------------------.  
 |        /      C C  C C          CC            /   
 |       /            C                         /    
 |      /                                      /     
 |     /                                      /      
 |    /                                      /       
 |   /                                      /        
 |  /                                      /         
 | /                                      /          
 |/                                      /           
 *--------------------------------------*            

Positions:
   0 C      6.231182   10.540978    5.150943
   1 C      7.449882    9.886679    5.048132
   2 C      8.669899   10.107035    5.721926
   3 C      6.825609    7.536644    3.708451
   4 C      5.021561    5.674822    4.646035
   5 C      5.895355    6.446038    3.781799
   6 C      7.586841    8.602133    4.378468
   7 C      9.999754    4.499193    7.063055
   8 C      8.906123    3.793889    6.974025
   9 C      7.709264    3.448329    6.507703
  10 C      6.655577    3.874592    5.912043
  11 C      9.750129    7.937710    5.598769
  12 C      9.620817    9.280623    5.942308
  13 C      7.955647    6.570875    3.977415
  14 C      6.152492    4.703506    4.947420
  15 C      7.029688    5.501942    4.038565
  16 C      8.709781    7.671886    4.651602
  17 C      4.302318    9.222788    5.350868
  18 C      3.045213    8.844536    4.986068
  19 C      3.573962    7.173306    5.088640
  20 C      2.315621    7.651688    4.806371
  21 C     12.512654    7.563692    3.915488
  22 C      5.062154   10.334222    5.454677
  23 C     12.182575    6.307636    3.903420

Unit cell:
           periodic     x           y           z      points  spacing
  1. axis:    yes   16.000000    0.000000    0.000000    80     0.2000
  2. axis:    yes    0.000000   16.000000    0.000000    80     0.2000
  3. axis:    yes    0.000000    0.000000   10.000000    48     0.2083

Effective grid spacing dv^(1/3) = 0.2027

                     log10-error:    total        iterations:
           time      wfs    density  energy       fermi  poisson
iter:   1  17:13:24          +inf  -164.000804    3      5      
iter:   2  17:13:24         -1.62  -163.887495    3      2      
iter:   3  17:13:25         -1.66  -163.753296    3      2      
iter:   4  17:13:25         -2.09  -163.731295    2      2      
iter:   5  17:13:26         -2.25  -163.717556    3      2      
iter:   6  17:13:26         -2.41  -163.713890    3      2      
iter:   7  17:13:27         -2.59  -163.712652    2      2      
iter:   8  17:13:27         -2.69  -163.711736    2      2      
iter:   9  17:13:28         -2.82  -163.711203    2      2      
iter:  10  17:13:28         -2.97  -163.711027    2      2      
iter:  11  17:13:29         -3.28  -163.710753    2      1      
iter:  12  17:13:29         -3.44  -163.710746    2      1      
iter:  13  17:13:30         -3.58  -163.710859    2      1      
iter:  14  17:13:30         -3.73  -163.710760    2      1      
iter:  15  17:13:31         -3.93  -163.710882    2      1      
iter:  16  17:13:31         -4.05  -163.710926    2      1      

Converged after 16 iterations.

Dipole moment: (-1.421066, 0.590460, -0.097312) |e|*Ang

Energy contributions relative to reference atoms: (reference = -24663.074771)

Kinetic:        +97.899386
Potential:     -104.142750
External:        +0.000000
XC:            -160.133085
Entropy (-ST):   -0.490164
Local:           +2.910606
--------------------------
Free energy:   -163.956008
Extrapolated:  -163.710926

Fermi level: -4.96159

 Band  Eigenvalues  Occupancy
    0    -24.21502    2.00000
    1    -22.64209    2.00000
    2    -22.57717    2.00000
    3    -21.47408    2.00000
    4    -20.89046    2.00000
    5    -20.24458    2.00000
    6    -19.46954    2.00000
    7    -18.95229    2.00000
    8    -18.08324    2.00000
    9    -17.83627    2.00000
   10    -16.96948    2.00000
   11    -16.85157    2.00000
   12    -16.57361    2.00000
   13    -15.91447    2.00000
   14    -15.05670    2.00000
   15    -14.72297    2.00000
   16    -13.94336    2.00000
   17    -13.85199    2.00000
   18    -13.27355    2.00000
   19    -12.72544    2.00000
   20    -12.54014    2.00000
   21    -11.64200    2.00000
   22    -11.44019    2.00000
   23    -11.06775    2.00000
   24    -10.75673    2.00000
   25    -10.16550    2.00000
   26     -9.79002    2.00000
   27     -9.74699    2.00000
   28     -9.69413    2.00000
   29     -8.95034    2.00000
   30     -8.86749    2.00000
   31     -8.44336    2.00000
   32     -8.31221    2.00000
   33     -8.18025    2.00000
   34     -8.00717    2.00000
   35     -7.76646    2.00000
   36     -7.59426    2.00000
   37     -7.03945    2.00000
   38     -6.96792    2.00000
   39     -6.44640    2.00000
   40     -6.00442    1.99994
   41     -5.81449    1.99960
   42     -5.68770    1.99860
   43     -5.46216    1.98669
   44     -5.36369    1.96476
   45     -5.28531    1.92442
   46     -5.24080    1.88449
   47     -4.96277    1.00591
   48     -4.92147    0.80208
   49     -4.82709    0.41338
   50     -4.50240    0.02006
   51     -3.90539    0.00005
   52     -3.67305    0.00001
   53     -3.29178    0.00000
   54     -3.04725    0.00000
   55     -2.60560    0.00000
   56     -2.00093    0.00000
   57     -1.64555    0.00000
   58     -1.45710    0.00000
   59     -1.32988    0.00000
   60     -0.51335    0.00000
   61     -0.25098    0.00000
   62     -0.04813    0.00000
   63      0.39202    0.00000
   64      0.73209    0.00000
   65      1.29395    0.00000
   66      1.46130    0.00000
   67      1.52244    0.00000
   68      1.92212    0.00000
   69      2.70527    0.00000
   70      2.76105    0.00000
   71      3.07700    0.00000
   72      3.76957    0.00000
   73      4.44414    0.00000
   74      5.15004    0.00000
   75      5.31326    0.00000
   76      5.71899    0.00000
   77      6.24277    0.00000
   78      6.71796    0.00000
   79      6.82013    0.00000
   80      7.36736    0.00000
   81      7.63320    0.00000
   82      7.85418    0.00000
   83      8.11286    0.00000
   84      8.48499    0.00000
   85      8.51580    0.00000
   86      8.61871    0.00000
   87      8.78439    0.00000
   88      8.80924    0.00000
   89      9.04560    0.00000
   90      9.16848    0.00000
   91      9.18476    0.00000
   92      9.31231    0.00000
   93      9.50819    0.00000
   94      9.68925    0.00000
   95      9.78669    0.00000
   96      9.90849    0.00000
   97     10.08295    0.00000


Forces in eV/Ang:
  0 C     3.46524    0.74146   -0.30187
  1 C     1.37951    0.07697   -0.01876
  2 C     0.53433    0.51066    0.57246
  3 C     0.56018    0.16727    0.00066
  4 C    -0.54382    2.85758   -1.60897
  5 C    -0.71113   -0.20595    0.80354
  6 C    -0.50721   -0.24899    0.13849
  7 C     0.66635    0.30942    0.26395
  8 C     0.06443   -0.92097    0.26986
  9 C    -0.07050    1.13574   -0.34532
 10 C    -1.09048   -0.27646   -0.17204
 11 C    -0.37404    1.02572   -0.98180
 12 C    -0.10648   -1.20918   -0.58309
 13 C    -0.37121    0.00696   -0.29795
 14 C     0.69064    0.01316    1.02559
 15 C    -0.30810   -0.23636   -0.23647
 16 C     0.83444   -0.40468    0.55937
 17 C    -3.98835    1.60281   -0.35723
 18 C     3.15342   -0.73956    1.28556
 19 C    -0.91670   -1.77643   -0.22565
 20 C     0.63534   -1.48190   -0.07944
 21 C    -0.15852    0.51382    0.19679
 22 C    -2.44824   -1.12625   -0.16649
 23 C    -0.36900   -0.40026    0.19497

System changes: positions 

Initializing position-dependent things.

Density initialized from wave functions
           .--------------------------------------.  
          /|                                      |  
         / |                                      |  
        /  |                                      |  
       /   |                                      |  
      /    |                                      |  
     /     |                                      |  
    /      |                                      |  
   /       |                                      |  
  /        |        C  C    C C                   |  
 *         |  C  C       C    C                   |  
 |         C  C          C  C                     |  
 |         .--------C-C----C----------------------.  
 |        /      C C  C C          CC            /   
 |       /            C                         /    
 |      /                                      /     
 |     /                                      /      
 |    /                                      /       
 |   /                                      /        
 |  /                                      /         
 | /                                      /          
 |/                                      /           
 *--------------------------------------*            

Positions:
   0 C      6.243702   10.545504    5.153102
   1 C      7.464047    9.886921    5.047828
   2 C      8.677621   10.111377    5.728380
   3 C      6.830793    7.537598    3.708453
   4 C      5.015506    5.703392    4.630950
   5 C      5.889309    6.444920    3.789217
   6 C      7.582976    8.599189    4.380020
   7 C     10.003334    4.500276    7.065517
   8 C      8.910829    3.786883    6.977307
   9 C      7.707052    3.459796    6.503463
  10 C      6.645604    3.870721    5.911799
  11 C      9.747214    7.946769    5.588993
  12 C      9.618325    9.270672    5.936493
  13 C      7.951899    6.570988    3.974595
  14 C      6.158617    4.705057    4.956190
  15 C      7.026370    5.499611    4.036458
  16 C      8.716748    7.667790    4.656198
  17 C      4.267823    9.242878    5.348305
  18 C      3.071914    8.832931    4.997823
  19 C      3.565028    7.154329    5.085860
  20 C      2.322504    7.638459    4.805758
  21 C     12.510245    7.565847    3.917440
  22 C      5.057313   10.325434    5.447919
  23 C     12.179642    6.306624    3.905422

Unit cell:
           periodic     x           y           z      points  spacing
  1. axis:    yes   16.000000    0.000000    0.000000    80     0.2000
  2. axis:    yes    0.000000   16.000000    0.000000    80     0.2000
  3. axis:    yes    0.000000    0.000000   10.000000    48     0.2083

Effective grid spacing dv^(1/3) = 0.2027

                     log10-error:    total        iterations:
           time      wfs    density  energy       fermi  poisson
iter:   1  17:13:33          +inf  -164.503580    3      5      
iter:   2  17:13:34         -1.73  -164.400277    3      2      
iter:   3  17:13:34         -1.82  -164.348387    3      2      
iter:   4  17:13:35         -2.10  -164.321583    2      2      
iter:   5  17:13:35         -2.30  -164.313938    2      2      
iter:   6  17:13:36         -2.42  -164.310067    2      2      
iter:   7  17:13:36         -2.60  -164.308277    2      2      
iter:   8  17:13:37         -2.78  -164.308196    2      2      
iter:   9  17:13:37         -2.90  -164.307924    2      2      
iter:  10  17:13:38         -3.10  -164.305623    2      1      
iter:  11  17:13:38         -3.28  -164.307399    2      1      
iter:  12  17:13:39         -3.40  -164.308073    2      1      
iter:  13  17:13:39         -3.54  -164.308608    2      1      
iter:  14  17:13:40         -3.62  -164.308792    2      1      
iter:  15  17:13:40         -3.80  -164.308729    2      1      
iter:  16  17:13:41         -3.89  -164.309187    2      1      
iter:  17  17:13:41         -4.07  -164.308835    2      1      

Converged after 17 iterations.

Dipole moment: (-1.347817, 0.541078, -0.106065) |e|*Ang

Energy contributions relative to reference atoms: (reference = -24663.074771)

Kinetic:        +99.408446
Potential:     -105.490407
External:        +0.000000
XC:            -160.921803
Entropy (-ST):   -0.470567
Local:           +2.930211
--------------------------
Free energy:   -164.544119
Extrapolated:  -164.308835

Fermi level: -4.97341

 Band  Eigenvalues  Occupancy
    0    -24.25109    2.00000
    1    -22.66223    2.00000
    2    -22.54999    2.00000
    3    -21.45252    2.00000
    4    -20.84073    2.00000
    5    -20.28054    2.00000
    6    -19.51427    2.00000
    7    -18.93856    2.00000
    8    -18.16477    2.00000
    9    -17.94751    2.00000
   10    -17.03448    2.00000
   11    -16.84981    2.00000
   12    -16.62688    2.00000
   13    -15.96080    2.00000
   14    -15.11589    2.00000
   15    -14.80287    2.00000
   16    -13.95862    2.00000
   17    -13.85740    2.00000
   18    -13.29527    2.00000
   19    -12.65145    2.00000
   20    -12.55047    2.00000
   21    -11.66618    2.00000
   22    -11.47630    2.00000
   23    -11.11158    2.00000
   24    -10.76329    2.00000
   25    -10.17072    2.00000
   26     -9.84833    2.00000
   27     -9.80122    2.00000
   28     -9.72132    2.00000
   29     -8.97044    2.00000
   30     -8.89600    2.00000
   31     -8.43195    2.00000
   32     -8.35102    2.00000
   33     -8.13540    2.00000
   34     -8.02749    2.00000
   35     -7.78204    2.00000
   36     -7.62181    2.00000
   37     -7.11411    2.00000
   38     -7.00188    2.00000
   39     -6.47784    2.00000
   40     -5.94713    1.99988
   41     -5.85528    1.99970
   42     -5.74449    1.99910
   43     -5.48459    1.98802
   44     -5.41831    1.97689
   45     -5.32051    1.93970
   46     -5.25006    1.88168
   47     -4.97415    1.00370
   48     -4.93297    0.80049
   49     -4.83672    0.40625
   50     -4.36515    0.00455
   51     -3.85082    0.00003
   52     -3.68053    0.00000
   53     -3.29637    0.00000
   54     -3.06345    0.00000
   55     -2.46912    0.00000
   56     -2.03754    0.00000
   57     -1.61506    0.00000
   58     -1.40905    0.00000
   59     -1.10193    0.00000
   60     -0.55720    0.00000
   61     -0.14735    0.00000
   62     -0.02613    0.00000
   63      0.47187    0.00000
   64      0.63896    0.00000
   65      1.27012    0.00000
   66      1.43509    0.00000
   67      1.51947    0.00000
   68      2.08401    0.00000
   69      2.74284    0.00000
   70      2.79867    0.00000
   71      3.05076    0.00000
   72      3.84817    0.00000
   73      4.31131    0.00000
   74      5.09780    0.00000
   75      5.20098    0.00000
   76      5.67664    0.00000
   77      6.24848    0.00000
   78      6.81353    0.00000
   79      6.97754    0.00000
   80      7.39021    0.00000
   81      7.65656    0.00000
   82      7.92604    0.00000
   83      8.15475    0.00000
   84      8.44221    0.00000
   85      8.54804    0.00000
   86      8.57829    0.00000
   87      8.78607    0.00000
   88      8.82123    0.00000
   89      9.03734    0.00000
   90      9.17036    0.00000
   91      9.19931    0.00000
   92      9.34352    0.00000
   93      9.53627    0.00000
   94      9.70132    0.00000
   95      9.78006    0.00000
   96      9.90542    0.00000
   97     10.06543    0.00000


Forces in eV/Ang:
  0 C     1.87224    0.46181    0.00857
  1 C     0.98324    0.11068    0.02062
  2 C     0.55164    0.58770    0.55133
  3 C     0.42010    0.01104   -0.03033
  4 C    -0.90728    2.53788   -0.94044
  5 C    -0.29215    0.24283    0.38235
  6 C    -0.14776   -0.18048    0.25041
  7 C     0.46943    0.17890    0.24591
  8 C    -0.09741   -0.85852    0.15706
  9 C     0.32005    1.11747   -0.15065
 10 C    -1.05273   -0.33654    0.01176
 11 C    -0.07062    0.54392   -0.92435
 12 C    -0.07575   -0.80024   -0.41700
 13 C    -0.35202   -0.02968   -0.23654
 14 C     0.38734    0.39357    0.55883
 15 C    -0.33388   -0.23681   -0.09180
 16 C     0.43373   -0.39990    0.23753
 17 C    -2.17648    2.26433    0.09900
 18 C     1.37822   -1.52141    0.76070
 19 C    -0.54867   -2.25504   -0.37770
 20 C     0.45995   -1.26715   -0.07042
 21 C    -0.21698    0.32236    0.19692
 22 C    -0.70419   -0.70747   -0.48274
 23 C    -0.31677   -0.20900    0.19523

System changes: positions 

Initializing position-dependent things.

Density initialized from wave functions
           .--------------------------------------.  
          /|                                      |  
         / |                                      |  
        /  |                                      |  
       /   |                                      |  
      /    |                                      |  
     /     |                                      |  
    /      |                                      |  
   /       |                                      |  
  /        |        C  C    C C                   |  
 *         |  C  C       C    C                   |  
 |         C  C          C  C                     |  
 |         .--------C-C----C----------------------.  
 |        /      C C  C C          CC            /   
 |       /            C                         /    
 |      /                                      /     
 |     /                                      /      
 |    /                                      /       
 |   /                                      /        
 |  /                                      /         
 | /                                      /          
 |/                                      /           
 *--------------------------------------*            

Positions:
   0 C      6.257275   10.550188    5.155700
   1 C      7.477484    9.888010    5.048097
   2 C      8.685368   10.118475    5.735554
   3 C      6.836214    7.537917    3.708140
   4 C      5.004255    5.735561    4.618721
   5 C      5.885408    6.447712    3.794300
   6 C      7.580953    8.596482    4.382921
   7 C     10.008912    4.502321    7.068604
   8 C      8.910424    3.776394    6.979473
   9 C      7.710513    3.473918    6.501274
  10 C      6.632432    3.866406    5.911975
  11 C      9.746189    7.953756    5.577306
  12 C      9.616872    9.260790    5.931041
  13 C      7.947475    6.570645    3.971603
  14 C      6.163622    4.709857    4.963448
  15 C      7.022179    5.496685    4.035182
  16 C      8.722359    7.662729    4.659340
  17 C      4.239115    9.270718    5.349163
  18 C      3.089912    8.813526    5.007741
  19 C      3.557907    7.126173    5.081125
  20 C      2.328551    7.622699    4.804872
  21 C     12.507418    7.569566    3.919919
  22 C      5.057832   10.318705    5.439524
  23 C     12.175735    6.304344    3.907891

Unit cell:
           periodic     x           y           z      points  spacing
  1. axis:    yes   16.000000    0.000000    0.000000    80     0.2000
  2. axis:    yes    0.000000   16.000000    0.000000    80     0.2000
  3. axis:    yes    0.000000    0.000000   10.000000    48     0.2083

Effective grid spacing dv^(1/3) = 0.2027

                     log10-error:    total        iterations:
           time      wfs    density  energy       fermi  poisson
iter:   1  17:13:43          +inf  -164.969123    3      5      
iter:   2  17:13:44         -1.76  -164.886241    3      2      
iter:   3  17:13:44         -1.84  -164.837585    3      2      
iter:   4  17:13:45         -2.17  -164.816939    3      2      
iter:   5  17:13:45         -2.39  -164.811960    2      2      
iter:   6  17:13:46         -2.51  -164.809017    3      2      
iter:   7  17:13:46         -2.71  -164.808136    2      2      
iter:   8  17:13:47         -2.90  -164.808061    2      2      
iter:   9  17:13:47         -3.09  -164.808418    2      2      
iter:  10  17:13:48         -3.37  -164.808339    2      1      
iter:  11  17:13:48         -3.49  -164.808766    2      1      
iter:  12  17:13:49         -3.56  -164.808736    2      1      
iter:  13  17:13:49         -3.72  -164.808653    2      1      
iter:  14  17:13:50         -3.85  -164.808410    2      1      
iter:  15  17:13:50         -3.96  -164.808437    2      1      
iter:  16  17:13:51         -4.08  -164.808662    2      1      

Converged after 16 iterations.

Dipole moment: (-1.308121, 0.489167, -0.100059) |e|*Ang

Energy contributions relative to reference atoms: (reference = -24663.074771)

Kinetic:       +100.039517
Potential:     -106.163571
External:        +0.000000
XC:            -161.386798
Entropy (-ST):   -0.459492
Local:           +2.931936
--------------------------
Free energy:   -165.038408
Extrapolated:  -164.808662

Fermi level: -4.96410

 Band  Eigenvalues  Occupancy
    0    -24.26243    2.00000
    1    -22.65659    2.00000
    2    -22.49635    2.00000
    3    -21.42698    2.00000
    4    -20.80109    2.00000
    5    -20.30281    2.00000
    6    -19.54832    2.00000
    7    -18.92477    2.00000
    8    -18.22800    2.00000
    9    -18.01077    2.00000
   10    -17.06641    2.00000
   11    -16.81572    2.00000
   12    -16.64280    2.00000
   13    -15.98205    2.00000
   14    -15.17325    2.00000
   15    -14.88068    2.00000
   16    -13.99233    2.00000
   17    -13.88210    2.00000
   18    -13.33734    2.00000
   19    -12.60558    2.00000
   20    -12.53401    2.00000
   21    -11.62515    2.00000
   22    -11.48448    2.00000
   23    -11.13671    2.00000
   24    -10.75280    2.00000
   25    -10.16317    2.00000
   26     -9.89348    2.00000
   27     -9.84239    2.00000
   28     -9.73082    2.00000
   29     -8.97980    2.00000
   30     -8.92584    2.00000
   31     -8.46027    2.00000
   32     -8.37929    2.00000
   33     -8.11826    2.00000
   34     -8.02904    2.00000
   35     -7.77933    2.00000
   36     -7.64338    2.00000
   37     -7.18003    2.00000
   38     -7.03546    2.00000
   39     -6.51290    2.00000
   40     -5.93192    1.99987
   41     -5.90386    1.99983
   42     -5.77211    1.99938
   43     -5.50170    1.99079
   44     -5.45413    1.98522
   45     -5.33206    1.95077
   46     -5.23604    1.87632
   47     -4.96561    1.00757
   48     -4.91937    0.78001
   49     -4.82836    0.40932
   50     -4.19100    0.00088
   51     -3.78865    0.00002
   52     -3.65912    0.00000
   53     -3.28866    0.00000
   54     -3.06543    0.00000
   55     -2.40757    0.00000
   56     -2.11331    0.00000
   57     -1.60164    0.00000
   58     -1.35131    0.00000
   59     -0.93094    0.00000
   60     -0.58732    0.00000
   61     -0.09862    0.00000
   62     -0.01278    0.00000
   63      0.51246    0.00000
   64      0.62614    0.00000
   65      1.23411    0.00000
   66      1.39148    0.00000
   67      1.52384    0.00000
   68      2.19791    0.00000
   69      2.72349    0.00000
   70      2.88188    0.00000
   71      3.06020    0.00000
   72      3.92615    0.00000
   73      4.19045    0.00000
   74      4.98580    0.00000
   75      5.15006    0.00000
   76      5.67015    0.00000
   77      6.24419    0.00000
   78      6.88989    0.00000
   79      7.11714    0.00000
   80      7.41482    0.00000
   81      7.68361    0.00000
   82      8.00189    0.00000
   83      8.19758    0.00000
   84      8.39550    0.00000
   85      8.55603    0.00000
   86      8.57902    0.00000
   87      8.78020    0.00000
   88      8.85536    0.00000
   89      9.04354    0.00000
   90      9.16530    0.00000
   91      9.22956    0.00000
   92      9.37572    0.00000
   93      9.56381    0.00000
   94      9.69348    0.00000
   95      9.76891    0.00000
   96      9.88560    0.00000
   97     10.02859    0.00000


Forces in eV/Ang:
  0 C     0.76414    0.25576    0.20583
  1 C     0.71762    0.09484    0.04825
  2 C     0.68551    0.57055    0.55810
  3 C     0.33222    0.01323   -0.04848
  4 C    -1.27709    2.20013   -0.32546
  5 C     0.00517    0.50904    0.03794
  6 C     0.11764   -0.13555    0.30959
  7 C    -0.07028   -0.19438    0.20616
  8 C     0.62633   -0.40955    0.26809
  9 C    -0.16373    1.10490   -0.38689
 10 C    -0.76670   -0.46704    0.30885
 11 C     0.21960    0.09771   -0.81786
 12 C    -0.17610   -0.31774   -0.30577
 13 C    -0.25332   -0.08647   -0.15612
 14 C     0.13244    0.61281    0.25306
 15 C    -0.36263   -0.12742   -0.01575
 16 C     0.09072   -0.40870   -0.04998
 17 C    -1.08147    2.49587    0.37232
 18 C     0.25744   -1.94920    0.41660
 19 C    -0.21695   -2.57844   -0.56579
 20 C     0.36396   -1.20624   -0.03819
 21 C    -0.31160   -0.02537    0.19957
 22 C     0.53785   -0.23920   -0.65123
 23 C    -0.22639    0.13665    0.19716

System changes: positions 

Initializing position-dependent things.

Density initialized from wave functions
           .--------------------------------------.  
          /|                                      |  
         / |                                      |  
        /  |                                      |  
       /   |                                      |  
      /    |                                      |  
     /     |                                      |  
    /      |                                      |  
   /       |                                      |  
  /        |        C  C     CC                   |  
 *         |  C  C       C    C                   |  
 |         C  C          C  C                     |  
 |         .--------C-C----C----------------------.  
 |        /      C C  C C          CC            /   
 |       /            C                         /    
 |      /                                      /     
 |     /                                      /      
 |    /                                      /       
 |   /                                      /        
 |  /                                      /         
 | /                                      /          
 |/                                      /           
 *--------------------------------------*            

Positions:
   0 C      6.272499   10.554953    5.158071
   1 C      7.490469    9.889204    5.048751
   2 C      8.694190   10.126485    5.743255
   3 C      6.841880    7.539182    3.707680
   4 C      4.988655    5.768252    4.610012
   5 C      5.882841    6.452291    3.797348
   6 C      7.580137    8.593927    4.386367
   7 C     10.011526    4.502022    7.071756
   8 C      8.915692    3.768137    6.982958
   9 C      7.709224    3.489506    6.496341
  10 C      6.620219    3.861019    5.914123
  11 C      9.747149    7.958232    5.565316
  12 C      9.614853    9.253084    5.925831
  13 C      7.943649    6.569663    3.968950
  14 C      6.167457    4.715948    4.970054
  15 C      7.017407    5.494657    4.034134
  16 C      8.726488    7.656998    4.660938
  17 C      4.211842    9.299884    5.351519
  18 C      3.104022    8.791233    5.016745
  19 C      3.552850    7.092888    5.074365
  20 C      2.334224    7.604413    4.804093
  21 C     12.503859    7.572164    3.922724
  22 C      5.061129   10.315431    5.431067
  23 C     12.171787    6.303332    3.910633

Unit cell:
           periodic     x           y           z      points  spacing
  1. axis:    yes   16.000000    0.000000    0.000000    80     0.2000
  2. axis:    yes    0.000000   16.000000    0.000000    80     0.2000
  3. axis:    yes    0.000000    0.000000   10.000000    48     0.2083

Effective grid spacing dv^(1/3) = 0.2027

                     log10-error:    total        iterations:
           time      wfs    density  energy       fermi  poisson
iter:   1  17:13:53          +inf  -165.362746    3      5      
iter:   2  17:13:53         -1.93  -165.309146    3      2      
iter:   3  17:13:54         -2.04  -165.295389    3      2      
iter:   4  17:13:54         -2.22  -165.276448    3      2      
iter:   5  17:13:55         -2.48  -165.270045    2      1      
iter:   6  17:13:55         -2.58  -165.270693    2      2      
iter:   7  17:13:56         -2.79  -165.269560    2      1      
iter:   8  17:13:56         -2.85  -165.270439    3      2      
iter:   9  17:13:57         -3.20  -165.271456    2      1      
iter:  10  17:13:57         -3.30  -165.270889    2      1      
iter:  11  17:13:58         -3.51  -165.270863    2      1      
iter:  12  17:13:58         -3.68  -165.271207    2      1      
iter:  13  17:13:59         -3.76  -165.271667    2      1      
iter:  14  17:13:59         -3.86  -165.271226    2      1      
iter:  15  17:14:00         -3.93  -165.270994    2      1      
iter:  16  17:14:00         -4.26  -165.271189    2      1      

Converged after 16 iterations.

Dipole moment: (-1.303962, 0.460383, -0.108349) |e|*Ang

Energy contributions relative to reference atoms: (reference = -24663.074771)

Kinetic:        +99.956181
Potential:     -106.269656
External:        +0.000000
XC:            -161.665174
Entropy (-ST):   -0.452731
Local:           +2.933825
--------------------------
Free energy:   -165.497554
Extrapolated:  -165.271189

Fermi level: -4.96277

 Band  Eigenvalues  Occupancy
    0    -24.26631    2.00000
    1    -22.64531    2.00000
    2    -22.43829    2.00000
    3    -21.40430    2.00000
    4    -20.76892    2.00000
    5    -20.30833    2.00000
    6    -19.57375    2.00000
    7    -18.89781    2.00000
    8    -18.27380    2.00000
    9    -18.05698    2.00000
   10    -17.10809    2.00000
   11    -16.80118    2.00000
   12    -16.66535    2.00000
   13    -15.99321    2.00000
   14    -15.23384    2.00000
   15    -14.93537    2.00000
   16    -13.99936    2.00000
   17    -13.91829    2.00000
   18    -13.38813    2.00000
   19    -12.58522    2.00000
   20    -12.52518    2.00000
   21    -11.57537    2.00000
   22    -11.47397    2.00000
   23    -11.15796    2.00000
   24    -10.74621    2.00000
   25    -10.15950    2.00000
   26     -9.94874    2.00000
   27     -9.89052    2.00000
   28     -9.73475    2.00000
   29     -8.98304    2.00000
   30     -8.94895    2.00000
   31     -8.50439    2.00000
   32     -8.39189    2.00000
   33     -8.09904    2.00000
   34     -8.02472    2.00000
   35     -7.76989    2.00000
   36     -7.66072    2.00000
   37     -7.23949    2.00000
   38     -7.07063    2.00000
   39     -6.53774    2.00000
   40     -5.95910    1.99991
   41     -5.89344    1.99982
   42     -5.79658    1.99952
   43     -5.51104    1.99172
   44     -5.49718    1.99049
   45     -5.34849    1.95862
   46     -5.23231    1.87351
   47     -4.96544    1.01337
   48     -4.91432    0.76238
   49     -4.82737    0.41043
   50     -4.05200    0.00022
   51     -3.70588    0.00001
   52     -3.62806    0.00000
   53     -3.28100    0.00000
   54     -3.06527    0.00000
   55     -2.38757    0.00000
   56     -2.13341    0.00000
   57     -1.57294    0.00000
   58     -1.32250    0.00000
   59     -0.86378    0.00000
   60     -0.60385    0.00000
   61     -0.10841    0.00000
   62      0.03728    0.00000
   63      0.44252    0.00000
   64      0.84241    0.00000
   65      1.20876    0.00000
   66      1.35962    0.00000
   67      1.52140    0.00000
   68      2.25493    0.00000
   69      2.70286    0.00000
   70      2.92750    0.00000
   71      3.11416    0.00000
   72      3.97662    0.00000
   73      4.08788    0.00000
   74      4.87165    0.00000
   75      5.10008    0.00000
   76      5.67451    0.00000
   77      6.22311    0.00000
   78      6.92760    0.00000
   79      7.22742    0.00000
   80      7.43532    0.00000
   81      7.69981    0.00000
   82      8.05665    0.00000
   83      8.22325    0.00000
   84      8.35517    0.00000
   85      8.52774    0.00000
   86      8.58340    0.00000
   87      8.76127    0.00000
   88      8.87020    0.00000
   89      9.03913    0.00000
   90      9.15487    0.00000
   91      9.24718    0.00000
   92      9.39952    0.00000
   93      9.59650    0.00000
   94      9.68768    0.00000
   95      9.73967    0.00000
   96      9.85896    0.00000
   97      9.97734    0.00000


Forces in eV/Ang:
  0 C    -0.16749    0.10987    0.33532
  1 C     0.57562    0.03784    0.06340
  2 C     0.68942    0.55882    0.51004
  3 C     0.22250    0.02250   -0.07041
  4 C    -1.57224    1.94612    0.15969
  5 C     0.20972    0.68694   -0.20312
  6 C     0.32622   -0.07603    0.34812
  7 C    -0.19090   -0.28884    0.18652
  8 C     0.45062   -0.34482    0.14435
  9 C     0.16051    1.05484   -0.22133
 10 C    -0.77357   -0.37509    0.32505
 11 C     0.43394   -0.19725   -0.79198
 12 C    -0.15852   -0.04666   -0.20260
 13 C    -0.14304   -0.12466   -0.09398
 14 C    -0.07336    0.75888    0.04754
 15 C    -0.42428   -0.02686    0.05099
 16 C    -0.13939   -0.39378   -0.24572
 17 C    -0.30780    2.68744    0.54901
 18 C    -0.55484   -2.25112    0.15631
 19 C     0.18065   -2.79869   -0.75671
 20 C     0.35648   -1.17250   -0.00456
 21 C    -0.35725   -0.21557    0.19895
 22 C     1.43291    0.07709   -0.75347
 23 C    -0.18137    0.32832    0.19871

System changes: positions 

Initializing position-dependent things.

Density initialized from wave functions
           .--------------------------------------.  
          /|                                      |  
         / |                                      |  
        /  |                                      |  
       /   |                                      |  
      /    |                                      |  
     /     |                                      |  
    /      |                                      |  
   /       |                                      |  
  /        |        C  C     CC                   |  
 *         |  C  C       C    C                   |  
 |         C             C  C                     |  
 |         .--C-----C-C----C----------------------.  
 |        /      C C  C C          CC            /   
 |       /            C                         /    
 |      /                                      /     
 |     /                                      /      
 |    /                                      /       
 |   /                                      /        
 |  /                                      /         
 | /                                      /          
 |/                                      /           
 *--------------------------------------*            

Positions:
   0 C      6.286819   10.559673    5.160179
   1 C      7.503481    9.889917    5.049531
   2 C      8.702816   10.134832    5.750702
   3 C      6.847074    7.541017    3.707035
   4 C      4.970243    5.800786    4.604059
   5 C      5.881090    6.457777    3.799175
   6 C      7.580371    8.591808    4.390112
   7 C     10.014604    4.501782    7.074973
   8 C      8.917843    3.759041    6.985206
   9 C      7.711654    3.505368    6.493088
  10 C      6.606702    3.856841    5.915581
  11 C      9.749453    7.961321    5.552764
  12 C      9.613290    9.246216    5.921062
  13 C      7.940675    6.568338    3.966601
  14 C      6.170229    4.722745    4.976216
  15 C      7.011857    5.493470    4.033372
  16 C      8.729699    7.651149    4.661586
  17 C      4.186129    9.330367    5.354616
  18 C      3.115319    8.767213    5.024895
  19 C      3.550782    7.056957    5.065786
  20 C      2.340389    7.584810    4.803543
  21 C     12.500012    7.574210    3.925666
  22 C      5.066001   10.313700    5.422818
  23 C     12.167769    6.302970    3.913517

Unit cell:
           periodic     x           y           z      points  spacing
  1. axis:    yes   16.000000    0.000000    0.000000    80     0.2000
  2. axis:    yes    0.000000   16.000000    0.000000    80     0.2000
  3. axis:    yes    0.000000    0.000000   10.000000    48     0.2083

Effective grid spacing dv^(1/3) = 0.2027

                     log10-error:    total        iterations:
           time      wfs    density  energy       fermi  poisson
iter:   1  17:14:02          +inf  -165.795511    3      5      
iter:   2  17:14:03         -2.01  -165.753269    3      2      
iter:   3  17:14:03         -2.15  -165.744074    3      2      
iter:   4  17:14:04         -2.25  -165.726710    3      2      
iter:   5  17:14:04         -2.55  -165.721787    2      1      
iter:   6  17:14:05         -2.63  -165.722029    3      2      
iter:   7  17:14:05         -2.82  -165.721455    2      1      
iter:   8  17:14:06         -2.90  -165.721865    2      2      
iter:   9  17:14:06         -3.20  -165.721627    2      1      
iter:  10  17:14:07         -3.35  -165.722064    2      1      
iter:  11  17:14:07         -3.42  -165.722452    2      1      
iter:  12  17:14:08         -3.64  -165.722184    2      1      
iter:  13  17:14:08         -3.77  -165.721996    2      1      
iter:  14  17:14:09         -3.89  -165.721937    2      1      
iter:  15  17:14:09         -4.03  -165.722066    2      1      

Converged after 15 iterations.

Dipole moment: (-1.310039, 0.424969, -0.105393) |e|*Ang

Energy contributions relative to reference atoms: (reference = -24663.074771)

Kinetic:        +98.975850
Potential:     -105.685906
External:        +0.000000
XC:            -161.722834
Entropy (-ST):   -0.446652
Local:           +2.934149
--------------------------
Free energy:   -165.945392
Extrapolated:  -165.722066

Fermi level: -4.95197

 Band  Eigenvalues  Occupancy
    0    -24.25494    2.00000
    1    -22.62056    2.00000
    2    -22.36856    2.00000
    3    -21.37035    2.00000
    4    -20.73305    2.00000
    5    -20.31079    2.00000
    6    -19.58541    2.00000
    7    -18.88320    2.00000
    8    -18.31483    2.00000
    9    -18.07658    2.00000
   10    -17.13281    2.00000
   11    -16.78211    2.00000
   12    -16.67050    2.00000
   13    -15.99921    2.00000
   14    -15.28518    2.00000
   15    -14.98587    2.00000
   16    -14.01927    2.00000
   17    -13.95761    2.00000
   18    -13.43390    2.00000
   19    -12.58306    2.00000
   20    -12.50356    2.00000
   21    -11.55607    2.00000
   22    -11.40754    2.00000
   23    -11.16490    2.00000
   24    -10.73120    2.00000
   25    -10.16139    2.00000
   26    -10.01266    2.00000
   27     -9.91738    2.00000
   28     -9.72430    2.00000
   29     -8.97647    2.00000
   30     -8.95575    2.00000
   31     -8.54050    2.00000
   32     -8.40213    2.00000
   33     -8.08401    2.00000
   34     -8.02021    2.00000
   35     -7.75604    2.00000
   36     -7.66369    2.00000
   37     -7.28580    2.00000
   38     -7.10047    2.00000
   39     -6.56738    2.00000
   40     -6.00959    1.99995
   41     -5.88931    1.99983
   42     -5.80567    1.99961
   43     -5.53769    1.99430
   44     -5.51583    1.99291
   45     -5.35303    1.96440
   46     -5.22104    1.87295
   47     -4.95650    1.02265
   48     -4.89913    0.74177
   49     -4.81690    0.41152
   50     -3.96713    0.00011
   51     -3.59310    0.00000
   52     -3.55642    0.00000
   53     -3.26719    0.00000
   54     -3.05901    0.00000
   55     -2.39180    0.00000
   56     -2.18311    0.00000
   57     -1.55782    0.00000
   58     -1.31136    0.00000
   59     -0.85914    0.00000
   60     -0.60459    0.00000
   61     -0.12632    0.00000
   62      0.08976    0.00000
   63      0.36479    0.00000
   64      1.07855    0.00000
   65      1.21122    0.00000
   66      1.34645    0.00000
   67      1.51981    0.00000
   68      2.29445    0.00000
   69      2.68694    0.00000
   70      2.95015    0.00000
   71      3.17496    0.00000
   72      3.95667    0.00000
   73      4.06703    0.00000
   74      4.78437    0.00000
   75      5.06282    0.00000
   76      5.68837    0.00000
   77      6.20645    0.00000
   78      6.94638    0.00000
   79      7.32369    0.00000
   80      7.45656    0.00000
   81      7.71983    0.00000
   82      8.09629    0.00000
   83      8.25030    0.00000
   84      8.31870    0.00000
   85      8.51459    0.00000
   86      8.58218    0.00000
   87      8.74243    0.00000
   88      8.88395    0.00000
   89      9.04233    0.00000
   90      9.14695    0.00000
   91      9.26618    0.00000
   92      9.41623    0.00000
   93      9.61825    0.00000
   94      9.66112    0.00000
   95      9.72945    0.00000
   96      9.84113    0.00000
   97      9.91992    0.00000


Forces in eV/Ang:
  0 C    -0.90299   -0.04166    0.40729
  1 C     0.43102    0.00972    0.08981
  2 C     0.73122    0.53170    0.49011
  3 C     0.13811    0.05458   -0.09110
  4 C    -1.83972    1.77744    0.52710
  5 C     0.32851    0.74630   -0.33572
  6 C     0.47805   -0.05850    0.36146
  7 C    -0.43096   -0.46538    0.17348
  8 C     0.71094   -0.11322    0.17258
  9 C    -0.11876    1.02769   -0.34245
 10 C    -0.50779   -0.38462    0.48434
 11 C     0.64983   -0.40787   -0.65658
 12 C    -0.15644    0.15404   -0.11461
 13 C    -0.05096   -0.15233   -0.03332
 14 C    -0.26239    0.83222   -0.09162
 15 C    -0.49529    0.12925    0.08136
 16 C    -0.32143   -0.36003   -0.40029
 17 C     0.04689    2.69832    0.59771
 18 C    -0.89434   -2.38931    0.02902
 19 C     0.53142   -2.91266   -0.91045
 20 C     0.43906   -1.16369    0.07998
 21 C    -0.38752   -0.36298    0.19709
 22 C     2.04804    0.28058   -0.82005
 23 C    -0.14629    0.46620    0.20174

System changes: positions 

Initializing position-dependent things.

Density initialized from wave functions
           .--------------------------------------.  
          /|                                      |  
         / |                                      |  
        /  |                                      |  
       /   |                                      |  
      /    |                                      |  
     /     |                                      |  
    /      |                                      |  
   /       |                                      |  
  /        |        C  C     CC                   |  
 *         |  C  C        C   C                   |  
 |         |             C  C                     |  
 |         C--C----C--C----C----------------------.  
 |        /      C C  C C          CC            /   
 |       /            C                         /    
 |      /                                      /     
 |     /                                      /      
 |    /                                      /       
 |   /                                      /        
 |  /                                      /         
 | /                                      /          
 |/                                      /           
 *--------------------------------------*            

Positions:
   0 C      6.300069   10.563855    5.161797
   1 C      7.515828    9.890510    5.050576
   2 C      8.711545   10.143258    5.758063
   3 C      6.851838    7.543389    3.706205
   4 C      4.949454    5.833189    4.600227
   5 C      5.879672    6.463235    3.800553
   6 C      7.581380    8.589749    4.393924
   7 C     10.016593    4.500603    7.078245
   8 C      8.921442    3.751143    6.987737
   9 C      7.711577    3.521424    6.488655
  10 C      6.595161    3.852718    5.918098
  11 C      9.753319    7.963458    5.541152
  12 C      9.612056    9.239928    5.916812
  13 C      7.938361    6.566798    3.964627
  14 C      6.171803    4.729736    4.982035
  15 C      7.005541    5.493678    4.032664
  16 C      8.732068    7.645512    4.661426
  17 C      4.159897    9.360428    5.357483
  18 C      3.126882    8.742841    5.032948
  19 C      3.551444    7.019817    5.055902
  20 C      2.347706    7.564344    4.803782
  21 C     12.496064    7.575945    3.928665
  22 C      5.071393   10.312650    5.414869
  23 C     12.163710    6.302862    3.916499

Unit cell:
           periodic     x           y           z      points  spacing
  1. axis:    yes   16.000000    0.000000    0.000000    80     0.2000
  2. axis:    yes    0.000000   16.000000    0.000000    80     0.2000
  3. axis:    yes    0.000000    0.000000   10.000000    48     0.2083

Effective grid spacing dv^(1/3) = 0.2027

                     log10-error:    total        iterations:
           time      wfs    density  energy       fermi  poisson
iter:   1  17:14:11          +inf  -166.234444    3      5      
iter:   2  17:14:12         -2.11  -166.201495    3      2      
iter:   3  17:14:12         -2.24  -166.175870    3      2      
iter:   4  17:14:13         -2.41  -166.171829    3      1      
iter:   5  17:14:13         -2.54  -166.170629    2      2      
iter:   6  17:14:14         -2.66  -166.168220    3      2      
iter:   7  17:14:14         -2.75  -166.166790    2      1      
iter:   8  17:14:15         -2.91  -166.168093    2      2      
iter:   9  17:14:15         -3.30  -166.168666    2      1      
iter:  10  17:14:16         -3.36  -166.168686    2      1      
iter:  11  17:14:16         -3.65  -166.168505    2      1      
iter:  12  17:14:17         -3.82  -166.168759    2      1      
iter:  13  17:14:17         -3.89  -166.168552    2      1      
iter:  14  17:14:18         -3.99  -166.168375    2      1      
iter:  15  17:14:18         -4.22  -166.168496    2      1      

Converged after 15 iterations.

Dipole moment: (-1.324999, 0.398348, -0.108536) |e|*Ang

Energy contributions relative to reference atoms: (reference = -24663.074771)

Kinetic:        +97.516716
Potential:     -104.721324
External:        +0.000000
XC:            -161.676528
Entropy (-ST):   -0.442631
Local:           +2.933955
--------------------------
Free energy:   -166.389811
Extrapolated:  -166.168496

Fermi level: -4.94627

 Band  Eigenvalues  Occupancy
    0    -24.24634    2.00000
    1    -22.59630    2.00000
    2    -22.30408    2.00000
    3    -21.33732    2.00000
    4    -20.69935    2.00000
    5    -20.31148    2.00000
    6    -19.59237    2.00000
    7    -18.86448    2.00000
    8    -18.34900    2.00000
    9    -18.09123    2.00000
   10    -17.16283    2.00000
   11    -16.77079    2.00000
   12    -16.67691    2.00000
   13    -16.00606    2.00000
   14    -15.33016    2.00000
   15    -15.02381    2.00000
   16    -14.07583    2.00000
   17    -13.97124    2.00000
   18    -13.47434    2.00000
   19    -12.60040    2.00000
   20    -12.47211    2.00000
   21    -11.56429    2.00000
   22    -11.32950    2.00000
   23    -11.16828    2.00000
   24    -10.71801    2.00000
   25    -10.21792    2.00000
   26    -10.05539    2.00000
   27     -9.93446    2.00000
   28     -9.71218    2.00000
   29     -8.96609    2.00000
   30     -8.94922    2.00000
   31     -8.57067    2.00000
   32     -8.41248    2.00000
   33     -8.06400    2.00000
   34     -8.01534    2.00000
   35     -7.74246    2.00000
   36     -7.66824    2.00000
   37     -7.32490    2.00000
   38     -7.12876    2.00000
   39     -6.58850    2.00000
   40     -6.03911    1.99996
   41     -5.89657    1.99985
   42     -5.81403    1.99966
   43     -5.57278    1.99620
   44     -5.52886    1.99412
   45     -5.35821    1.96801
   46     -5.21469    1.87217
   47     -4.95249    1.03107
   48     -4.89029    0.72716
   49     -4.81127    0.41172
   50     -3.93594    0.00008
   51     -3.56071    0.00000
   52     -3.37413    0.00000
   53     -3.25092    0.00000
   54     -3.04942    0.00000
   55     -2.40529    0.00000
   56     -2.20317    0.00000
   57     -1.53207    0.00000
   58     -1.32436    0.00000
   59     -0.89128    0.00000
   60     -0.60635    0.00000
   61     -0.13818    0.00000
   62      0.14834    0.00000
   63      0.31732    0.00000
   64      1.16409    0.00000
   65      1.33105    0.00000
   66      1.36122    0.00000
   67      1.51961    0.00000
   68      2.34455    0.00000
   69      2.68056    0.00000
   70      2.96299    0.00000
   71      3.22020    0.00000
   72      3.88785    0.00000
   73      4.09852    0.00000
   74      4.71549    0.00000
   75      5.03256    0.00000
   76      5.69935    0.00000
   77      6.18624    0.00000
   78      6.93761    0.00000
   79      7.39891    0.00000
   80      7.47348    0.00000
   81      7.74080    0.00000
   82      8.10215    0.00000
   83      8.26166    0.00000
   84      8.29057    0.00000
   85      8.49478    0.00000
   86      8.56662    0.00000
   87      8.70501    0.00000
   88      8.88831    0.00000
   89      9.03323    0.00000
   90      9.13755    0.00000
   91      9.27923    0.00000
   92      9.40952    0.00000
   93      9.60664    0.00000
   94      9.64728    0.00000
   95      9.73493    0.00000
   96      9.82445    0.00000
   97      9.86893    0.00000


Forces in eV/Ang:
  0 C    -1.47147   -0.14260    0.45755
  1 C     0.29324   -0.00793    0.13148
  2 C     0.74868    0.46782    0.42723
  3 C     0.03470    0.06847   -0.11163
  4 C    -2.07469    1.67733    0.78141
  5 C     0.35110    0.81028   -0.40753
  6 C     0.60153   -0.02862    0.36368
  7 C    -0.54363   -0.55503    0.16119
  8 C     0.65446   -0.01305    0.10848
  9 C     0.01102    0.96215   -0.27111
 10 C    -0.46698   -0.26841    0.46295
 11 C     0.76095   -0.53537   -0.62627
 12 C    -0.16057    0.31714   -0.05139
 13 C     0.03566   -0.16196    0.01587
 14 C    -0.38376    0.82707   -0.16183
 15 C    -0.54932    0.22378    0.11966
 16 C    -0.42157   -0.31540   -0.50148
 17 C     0.34398    2.73739    0.59456
 18 C    -1.14513   -2.45604   -0.05392
 19 C     0.88700   -2.99646   -1.09103
 20 C     0.55057   -1.13283    0.14558
 21 C    -0.40452   -0.43126    0.19484
 22 C     2.43082    0.38310   -0.85224
 23 C    -0.12543    0.53338    0.20148

System changes: positions 

Initializing position-dependent things.

Density initialized from wave functions
           .--------------------------------------.  
          /|                                      |  
         / |                                      |  
        /  |                                      |  
       /   |                                      |  
      /    |                                      |  
     /     |                                      |  
    /      |                                      |  
   /       |                                      |  
  /        |        C  C     CC                   |  
 *         |     C        C   C                   |  
 |         |  C          C  C                     |  
 |         C--C----C--C----C----------------------.  
 |        /      C C  C C          CC            /   
 |       /           C                          /    
 |      /                                      /     
 |     /                                      /      
 |    /                                      /       
 |   /                                      /        
 |  /                                      /         
 | /                                      /          
 |/                                      /           
 *--------------------------------------*            

Positions:
   0 C      6.311942   10.567745    5.163197
   1 C      7.527388    9.891069    5.052022
   2 C      8.720362   10.151204    5.764911
   3 C      6.855892    7.545967    3.705206
   4 C      4.926747    5.865802    4.597545
   5 C      5.877785    6.468918    3.801921
   6 C      7.583035    8.587890    4.397709
   7 C     10.018227    4.499029    7.081506
   8 C      8.924013    3.743556    6.989710
   9 C      7.712962    3.537136    6.484920
  10 C      6.583380    3.849795    5.919976
  11 C      9.757672    7.965247    5.529405
  12 C      9.610832    9.234314    5.912847
  13 C      7.936649    6.565242    3.962943
  14 C      6.172808    4.736252    4.987939
  15 C      6.998734    5.494538    4.032160
  16 C      8.734218    7.640207    4.660851
  17 C      4.133903    9.390741    5.359811
  18 C      3.138515    8.718495    5.041049
  19 C      3.554779    6.981876    5.044465
  20 C      2.356313    7.543650    4.804562
  21 C     12.492051    7.577719    3.931694
  22 C      5.076706   10.311490    5.407167
  23 C     12.159626    6.302740    3.919519

Unit cell:
           periodic     x           y           z      points  spacing
  1. axis:    yes   16.000000    0.000000    0.000000    80     0.2000
  2. axis:    yes    0.000000   16.000000    0.000000    80     0.2000
  3. axis:    yes    0.000000    0.000000   10.000000    48     0.2083

Effective grid spacing dv^(1/3) = 0.2027

                     log10-error:    total        iterations:
           time      wfs    density  energy       fermi  poisson
iter:   1  17:14:20          +inf  -166.688537    3      5      
iter:   2  17:14:21         -2.06  -166.648077    3      2      
iter:   3  17:14:21         -2.20  -166.635591    3      2      
iter:   4  17:14:22         -2.28  -166.619248    3      2      
iter:   5  17:14:22         -2.57  -166.615861    2      2      
iter:   6  17:14:23         -2.66  -166.614602    2      2      
iter:   7  17:14:23         -2.83  -166.613414    2      1      
iter:   8  17:14:24         -2.92  -166.614046    2      2      
iter:   9  17:14:24         -3.13  -166.613374    2      1      
iter:  10  17:14:25         -3.35  -166.613734    2      1      
iter:  11  17:14:25         -3.45  -166.613978    2      1      
iter:  12  17:14:26         -3.63  -166.613918    2      1      
iter:  13  17:14:26         -3.73  -166.613858    2      1      
iter:  14  17:14:27         -3.82  -166.613984    2      1      
iter:  15  17:14:27         -3.90  -166.614342    2      1      
iter:  16  17:14:28         -4.11  -166.613846    2      1      

Converged after 16 iterations.

Dipole moment: (-1.339352, 0.367292, -0.107224) |e|*Ang

Energy contributions relative to reference atoms: (reference = -24663.074771)

Kinetic:        +95.753948
Potential:     -103.528377
External:        +0.000000
XC:            -161.552098
Entropy (-ST):   -0.438851
Local:           +2.932106
--------------------------
Free energy:   -166.833272
Extrapolated:  -166.613846

Fermi level: -4.93748

 Band  Eigenvalues  Occupancy
    0    -24.23134    2.00000
    1    -22.56790    2.00000
    2    -22.23455    2.00000
    3    -21.29965    2.00000
    4    -20.66465    2.00000
    5    -20.31335    2.00000
    6    -19.59272    2.00000
    7    -18.85678    2.00000
    8    -18.38675    2.00000
    9    -18.09241    2.00000
   10    -17.18915    2.00000
   11    -16.75725    2.00000
   12    -16.67733    2.00000
   13    -16.01783    2.00000
   14    -15.36783    2.00000
   15    -15.06263    2.00000
   16    -14.17228    2.00000
   17    -13.96757    2.00000
   18    -13.50198    2.00000
   19    -12.62451    2.00000
   20    -12.43393    2.00000
   21    -11.57839    2.00000
   22    -11.26386    2.00000
   23    -11.15655    2.00000
   24    -10.70097    2.00000
   25    -10.32599    2.00000
   26    -10.05392    2.00000
   27     -9.94074    2.00000
   28     -9.69204    2.00000
   29     -8.96361    2.00000
   30     -8.91756    2.00000
   31     -8.59263    2.00000
   32     -8.42183    2.00000
   33     -8.05031    2.00000
   34     -8.00285    2.00000
   35     -7.72834    2.00000
   36     -7.67059    2.00000
   37     -7.35372    2.00000
   38     -7.15242    2.00000
   39     -6.61444    2.00000
   40     -6.07545    1.99998
   41     -5.90881    1.99988
   42     -5.81716    1.99970
   43     -5.60475    1.99747
   44     -5.54321    1.99533
   45     -5.35719    1.97037
   46     -5.20591    1.87218
   47     -4.94577    1.04141
   48     -4.87883    0.71486
   49     -4.80157    0.40874
   50     -3.92856    0.00008
   51     -3.53367    0.00000
   52     -3.24788    0.00000
   53     -3.18433    0.00000
   54     -3.01068    0.00000
   55     -2.43421    0.00000
   56     -2.23263    0.00000
   57     -1.50369    0.00000
   58     -1.34972    0.00000
   59     -0.93064    0.00000
   60     -0.60908    0.00000
   61     -0.13673    0.00000
   62      0.17962    0.00000
   63      0.31301    0.00000
   64      1.16024    0.00000
   65      1.32511    0.00000
   66      1.52226    0.00000
   67      1.54924    0.00000
   68      2.44252    0.00000
   69      2.68682    0.00000
   70      2.97142    0.00000
   71      3.25746    0.00000
   72      3.83350    0.00000
   73      4.13156    0.00000
   74      4.66587    0.00000
   75      5.01180    0.00000
   76      5.70636    0.00000
   77      6.16949    0.00000
   78      6.92065    0.00000
   79      7.45123    0.00000
   80      7.49770    0.00000
   81      7.77413    0.00000
   82      8.07997    0.00000
   83      8.24091    0.00000
   84      8.30724    0.00000
   85      8.48380    0.00000
   86      8.54511    0.00000
   87      8.66535    0.00000
   88      8.89331    0.00000
   89      9.02098    0.00000
   90      9.12953    0.00000
   91      9.28709    0.00000
   92      9.38328    0.00000
   93      9.57469    0.00000
   94      9.64767    0.00000
   95      9.73940    0.00000
   96      9.79714    0.00000
   97      9.84749    0.00000


Forces in eV/Ang:
  0 C    -1.90397   -0.23000    0.47305
  1 C     0.17081   -0.02852    0.16267
  2 C     0.73713    0.42216    0.37064
  3 C    -0.05238    0.07976   -0.12021
  4 C    -2.26294    1.59997    0.97998
  5 C     0.35701    0.83123   -0.43348
  6 C     0.68866   -0.00926    0.35020
  7 C    -0.65174   -0.63876    0.14896
  8 C     0.68468    0.10875    0.06492
  9 C    -0.10818    0.90596   -0.30118
 10 C    -0.26882   -0.23392    0.53362
 11 C     0.89024   -0.67564   -0.55472
 12 C    -0.14508    0.42520    0.00418
 13 C     0.09918   -0.16003    0.06390
 14 C    -0.48551    0.82504   -0.23763
 15 C    -0.61554    0.32302    0.15747
 16 C    -0.49684   -0.29625   -0.59301
 17 C     0.45559    2.68031    0.58268
 18 C    -1.22499   -2.43402   -0.09837
 19 C     1.20992   -3.00887   -1.26392
 20 C     0.71628   -1.12429    0.22411
 21 C    -0.43937   -0.52290    0.19656
 22 C     2.69933    0.43794   -0.87299
 23 C    -0.09913    0.63368    0.20076

System changes: positions 

Initializing position-dependent things.

Density initialized from wave functions
           .--------------------------------------.  
[...]

Fermi level: -5.01295

 Band  Eigenvalues  Occupancy
    0    -24.22032    2.00000
    1    -22.62731    2.00000
    2    -21.49095    2.00000
    3    -21.05343    2.00000
    4    -20.57044    2.00000
    5    -20.06388    2.00000
    6    -19.92224    2.00000
    7    -19.12453    2.00000
    8    -18.78979    2.00000
    9    -18.12716    2.00000
   10    -17.81592    2.00000
   11    -17.30483    2.00000
   12    -16.64914    2.00000
   13    -16.39021    2.00000
   14    -15.91458    2.00000
   15    -15.65274    2.00000
   16    -14.68900    2.00000
   17    -14.24083    2.00000
   18    -14.02838    2.00000
   19    -13.89040    2.00000
   20    -13.36387    2.00000
   21    -12.47572    2.00000
   22    -11.99744    2.00000
   23    -11.75830    2.00000
   24    -11.22259    2.00000
   25    -10.85185    2.00000
   26    -10.62213    2.00000
   27    -10.11681    2.00000
   28     -9.75455    2.00000
   29     -9.56765    2.00000
   30     -8.94447    2.00000
   31     -8.89869    2.00000
   32     -8.70103    2.00000
   33     -8.32657    2.00000
   34     -8.22704    2.00000
   35     -7.98318    2.00000
   36     -7.73097    2.00000
   37     -7.54223    2.00000
   38     -6.72605    2.00000
   39     -6.65971    2.00000
   40     -6.43569    2.00000
   41     -6.04770    1.99994
   42     -5.63644    1.99609
   43     -5.60649    1.99473
   44     -5.51742    1.98720
   45     -5.41159    1.96354
   46     -5.33739    1.92495
   47     -5.24002    1.81285
   48     -4.84738    0.32069
   49     -3.81669    0.00001
   50     -3.77716    0.00001
   51     -3.23907    0.00000
   52     -3.07144    0.00000
   53     -2.56878    0.00000
   54     -1.96770    0.00000
   55     -1.70032    0.00000
   56     -1.59115    0.00000
   57     -1.18205    0.00000
   58     -1.02525    0.00000
   59     -0.45677    0.00000
   60      0.02448    0.00000
   61      0.65387    0.00000
   62      0.91627    0.00000
   63      1.36158    0.00000
   64      1.50217    0.00000
   65      2.55758    0.00000
   66      2.87173    0.00000
   67      3.36892    0.00000
   68      3.64616    0.00000
   69      3.74336    0.00000
   70      4.44747    0.00000
   71      4.71089    0.00000
   72      5.19896    0.00000
   73      5.43410    0.00000
   74      5.80170    0.00000
   75      6.15214    0.00000
   76      6.56716    0.00000
   77      6.79396    0.00000
   78      7.34799    0.00000
   79      7.60583    0.00000
   80      7.72986    0.00000
   81      8.05297    0.00000
   82      8.19106    0.00000
   83      8.48082    0.00000
   84      8.62299    0.00000
   85      8.72846    0.00000
   86      9.05171    0.00000
   87      9.08086    0.00000
   88      9.10136    0.00000
   89      9.16120    0.00000
   90      9.26939    0.00000
   91      9.36808    0.00000
   92      9.45907    0.00000
   93      9.63551    0.00000
   94      9.75190    0.00000
   95      9.82851    0.00000
   96      9.93843    0.00000
   97     10.02764    0.00000


Forces in eV/Ang:
  0 C    -0.07978   -0.01009   -0.03881
  1 C     0.00742   -0.00637    0.01030
  2 C     0.05635    0.01398    0.02167
  3 C    -0.00199   -0.03807    0.03048
  4 C    -0.00556   -0.04731    0.02222
  5 C     0.00879    0.02682   -0.00155
  6 C     0.00157   -0.00081    0.02578
  7 C     0.01630   -0.05425   -0.00765
  8 C    -0.00078   -0.01168    0.00424
  9 C    -0.00272    0.03086   -0.02414
 10 C    -0.01749    0.01035    0.04728
 11 C    -0.00627    0.00694   -0.02409
 12 C    -0.00266   -0.04923    0.01960
 13 C    -0.00343    0.01406   -0.01841
 14 C    -0.00751   -0.00556    0.03006
 15 C    -0.04520   -0.00745   -0.03878
 16 C    -0.02829    0.01916    0.02522
 17 C     0.05232   -0.00127   -0.00173
 18 C    -0.02511   -0.03027    0.01125
 19 C     0.03597   -0.04900   -0.01305
 20 C    -0.02960    0.00003    0.00489
 21 C    -0.00989   -0.00721    0.00491
 22 C     0.11247    0.01453   -0.05497
 23 C    -0.00816    0.09495    0.00383

System changes: positions 

Initializing position-dependent things.

Density initialized from wave functions
           .--------------------------------------.  
          /|                                      |  
         / |                                      |  
        /  |                                      |  
       /   |                                      |  
      /    |                                      |  
     /     |                                      |  
    /      |                                      |  
   /       |                                      |  
  /        |     C  C  C     C                    |  
 *         |   C     C    C    C                  |  
 |         |   C     C         C                  |  
 |         .----C----C---C--C----C-C--------------.  
 |        /       C CC C                         /   
 |       /          C  C C                      /    
 |      /                                      /     
 |     /                                      /      
 |    /                                      /       
 |   /                                      /        
 |  /                                      /         
 | /                                      /          
 |/                                      /           
 *--------------------------------------*            

Positions:
   0 C      6.337236   10.620358    4.885826
   1 C      7.599983   10.165587    4.502782
   2 C      8.909374   10.497824    4.963773
   3 C      6.999798    7.792222    3.270219
   4 C      5.481469    5.889154    4.571537
   5 C      6.195608    6.638322    3.541180
   6 C      7.764808    8.913317    3.749347
   7 C      7.830271    1.732472    8.692420
   8 C      7.566422    2.441053    7.619617
   9 C      7.292032    3.258479    6.614104
  10 C      7.046772    4.074038    5.660188
  11 C     10.224041    8.426783    4.502698
  12 C      9.943408    9.773024    4.936203
  13 C      8.240467    6.901489    3.370947
  14 C      6.705470    4.984526    4.720617
  15 C      7.406125    5.782631    3.653726
  16 C      9.000226    8.073213    3.798994
  17 C      4.049264    9.805479    5.721044
  18 C      3.575557    8.629515    5.878353
  19 C      4.414053    6.336852    5.320609
  20 C      3.678313    7.310603    5.688379
  21 C     11.303235    7.579219    4.681168
  22 C      5.151392   10.447539    5.299400
  23 C     12.159963    6.632803    4.828046

Unit cell:
           periodic     x           y           z      points  spacing
  1. axis:    yes   16.000000    0.000000    0.000000    80     0.2000
  2. axis:    yes    0.000000   16.000000    0.000000    80     0.2000
  3. axis:    yes    0.000000    0.000000   10.000000    48     0.2083

Effective grid spacing dv^(1/3) = 0.2027

                     log10-error:    total        iterations:
           time      wfs    density  energy       fermi  poisson
iter:   1  17:37:21          +inf  -177.340815    3      5      
iter:   2  17:37:21         -2.77  -177.345406    3      1      
iter:   3  17:37:22         -3.06  -177.346357    2      1      
iter:   4  17:37:22         -3.15  -177.345016    2      1      
iter:   5  17:37:22         -3.32  -177.352347    3      1      
iter:   6  17:37:23         -2.90  -177.348430    3      1      
iter:   7  17:37:23         -3.36  -177.343413    3      1      
iter:   8  17:37:24         -3.19  -177.347214    3      1      
iter:   9  17:37:24         -3.47  -177.347035    2      1      
iter:  10  17:37:25         -3.73  -177.345227    2      1      
iter:  11  17:37:25         -3.66  -177.346067    2      1      
iter:  12  17:37:26         -4.38  -177.345960    2      1      

Converged after 12 iterations.

Dipole moment: (-1.568846, 1.275979, -0.161254) |e|*Ang

Energy contributions relative to reference atoms: (reference = -24663.074771)

Kinetic:       +105.702408
Potential:     -114.160751
External:        +0.000000
XC:            -171.818739
Entropy (-ST):   -0.214451
Local:           +3.038346
--------------------------
Free energy:   -177.453186
Extrapolated:  -177.345960

Fermi level: -5.01107

 Band  Eigenvalues  Occupancy
    0    -24.22316    2.00000
    1    -22.62947    2.00000
    2    -21.49012    2.00000
    3    -21.05347    2.00000
    4    -20.57346    2.00000
    5    -20.06578    2.00000
    6    -19.92441    2.00000
    7    -19.12780    2.00000
    8    -18.79079    2.00000
    9    -18.12675    2.00000
   10    -17.81839    2.00000
   11    -17.30505    2.00000
   12    -16.65483    2.00000
   13    -16.39074    2.00000
   14    -15.91801    2.00000
   15    -15.64709    2.00000
   16    -14.69316    2.00000
   17    -14.24044    2.00000
   18    -14.02613    2.00000
   19    -13.89682    2.00000
   20    -13.36786    2.00000
   21    -12.48081    2.00000
   22    -12.00053    2.00000
   23    -11.75276    2.00000
   24    -11.22590    2.00000
   25    -10.85265    2.00000
   26    -10.62490    2.00000
   27    -10.11869    2.00000
   28     -9.75248    2.00000
   29     -9.56633    2.00000
   30     -8.94301    2.00000
   31     -8.90088    2.00000
   32     -8.70595    2.00000
   33     -8.32714    2.00000
   34     -8.22737    2.00000
   35     -7.98290    2.00000
   36     -7.73172    2.00000
   37     -7.54339    2.00000
   38     -6.73114    2.00000
   39     -6.66164    2.00000
   40     -6.43741    2.00000
   41     -6.05080    1.99994
   42     -5.63783    1.99621
   43     -5.60387    1.99469
   44     -5.51774    1.98747
   45     -5.41146    1.96417
   46     -5.33789    1.92665
   47     -5.23642    1.80991
   48     -4.84560    0.32095
   49     -3.81808    0.00001
   50     -3.77582    0.00001
   51     -3.24419    0.00000
   52     -3.07051    0.00000
   53     -2.56896    0.00000
   54     -1.96884    0.00000
   55     -1.70527    0.00000
   56     -1.58766    0.00000
   57     -1.18101    0.00000
   58     -1.02800    0.00000
   59     -0.44700    0.00000
   60      0.02417    0.00000
   61      0.65193    0.00000
   62      0.91572    0.00000
   63      1.36049    0.00000
   64      1.49973    0.00000
   65      2.55722    0.00000
   66      2.87039    0.00000
   67      3.35745    0.00000
   68      3.65895    0.00000
   69      3.74769    0.00000
   70      4.44979    0.00000
   71      4.70698    0.00000
   72      5.20532    0.00000
   73      5.44573    0.00000
   74      5.78935    0.00000
   75      6.15252    0.00000
   76      6.57207    0.00000
   77      6.79271    0.00000
   78      7.36225    0.00000
   79      7.61428    0.00000
   80      7.73292    0.00000
   81      8.04676    0.00000
   82      8.19076    0.00000
   83      8.49061    0.00000
   84      8.61618    0.00000
   85      8.72956    0.00000
   86      9.05072    0.00000
   87      9.07636    0.00000
   88      9.09478    0.00000
   89      9.15990    0.00000
   90      9.26666    0.00000
   91      9.36256    0.00000
   92      9.45648    0.00000
   93      9.63334    0.00000
   94      9.75379    0.00000
   95      9.82779    0.00000
   96      9.94105    0.00000
   97     10.03143    0.00000


Forces in eV/Ang:
  0 C    -0.06046    0.00638   -0.01192
  1 C    -0.00138   -0.01809    0.01342
  2 C    -0.00034    0.00500    0.00762
  3 C    -0.01704   -0.04290   -0.01176
  4 C    -0.01750   -0.05477    0.05228
  5 C    -0.01783    0.03817    0.01816
  6 C     0.01948    0.01034    0.01719
  7 C     0.01282   -0.08885    0.06101
  8 C    -0.00792    0.02650   -0.03644
  9 C    -0.00302    0.02590   -0.01131
 10 C    -0.00185   -0.01247    0.05035
 11 C     0.02058    0.03562   -0.03871
 12 C     0.00350   -0.01671    0.04319
 13 C    -0.00004   -0.00274   -0.03301
 14 C    -0.02542    0.04484   -0.01255
 15 C    -0.05512   -0.01871   -0.02467
 16 C    -0.06451    0.02230    0.03715
 17 C     0.07857    0.00647   -0.03144
 18 C    -0.01463   -0.02772    0.02301
 19 C     0.06375   -0.03022   -0.05026
 20 C    -0.01425   -0.00779    0.00378
 21 C    -0.00552   -0.04341    0.02221
 22 C     0.10016   -0.00706   -0.03732
 23 C     0.05789    0.04897    0.01354

System changes: positions 

Initializing position-dependent things.

Density initialized from wave functions
           .--------------------------------------.  
          /|                                      |  
         / |                                      |  
        /  |                                      |  
       /   |                                      |  
      /    |                                      |  
     /     |                                      |  
    /      |                                      |  
   /       |                                      |  
  /        |     C  C        C                    |  
 *         |   C     C C  C    C                  |  
 |         |   C     C         C                  |  
 |         .----C----C---C--C----C-C--------------.  
 |        /       C CC C                         /   
 |       /          C  C C                      /    
 |      /                                      /     
 |     /                                      /      
 |    /                                      /       
 |   /                                      /        
 |  /                                      /         
 | /                                      /          
 |/                                      /           
 *--------------------------------------*            

Positions:
   0 C      6.335162   10.616063    4.878862
   1 C      7.600947   10.165090    4.500219
   2 C      8.910473   10.501935    4.959393
   3 C      7.002563    7.787701    3.274850
   4 C      5.482177    5.886105    4.572705
   5 C      6.198074    6.634385    3.542762
   6 C      7.766575    8.910242    3.752547
   7 C      7.810039    1.715315    8.693567
   8 C      7.556084    2.425149    7.617514
   9 C      7.287388    3.249624    6.616155
  10 C      7.042746    4.071177    5.667237
  11 C     10.226646    8.430464    4.501279
  12 C      9.943543    9.775707    4.931973
  13 C      8.243759    6.898435    3.375692
  14 C      6.705185    4.981560    4.725712
  15 C      7.408720    5.779389    3.658421
  16 C      9.002291    8.071880    3.802166
  17 C      4.049077    9.806032    5.720777
  18 C      3.572745    8.631001    5.877372
  19 C      4.415288    6.336075    5.322073
  20 C      3.680572    7.311949    5.687226
  21 C     11.312037    7.590812    4.676180
  22 C      5.149760   10.448633    5.295068
  23 C     12.176768    6.651184    4.820324

Unit cell:
           periodic     x           y           z      points  spacing
  1. axis:    yes   16.000000    0.000000    0.000000    80     0.2000
  2. axis:    yes    0.000000   16.000000    0.000000    80     0.2000
  3. axis:    yes    0.000000    0.000000   10.000000    48     0.2083

Effective grid spacing dv^(1/3) = 0.2027

                     log10-error:    total        iterations:
           time      wfs    density  energy       fermi  poisson
iter:   1  17:37:28          +inf  -177.348934    2      5      
iter:   2  17:37:28         -2.99  -177.348161    2      1      
iter:   3  17:37:28         -3.09  -177.347714    2      1      
iter:   4  17:37:29         -3.22  -177.347766    2      1      
iter:   5  17:37:29         -3.35  -177.347211    2      1      
iter:   6  17:37:30         -3.58  -177.349892    3      1      
iter:   7  17:37:30         -3.29  -177.347999    2      1      
iter:   8  17:37:31         -3.83  -177.346877    2      1      
iter:   9  17:37:31         -3.99  -177.347169    2      1      
iter:  10  17:37:32         -4.09  -177.346820    2      1      

Converged after 10 iterations.

Dipole moment: (-1.569019, 1.265072, -0.153672) |e|*Ang

Energy contributions relative to reference atoms: (reference = -24663.074771)

Kinetic:       +105.537188
Potential:     -114.024658
External:        +0.000000
XC:            -171.785117
Entropy (-ST):   -0.215261
Local:           +3.033397
--------------------------
Free energy:   -177.454450
Extrapolated:  -177.346820

Fermi level: -5.01039

 Band  Eigenvalues  Occupancy
    0    -24.22319    2.00000
    1    -22.63112    2.00000
    2    -21.48930    2.00000
    3    -21.05290    2.00000
    4    -20.57311    2.00000
    5    -20.06489    2.00000
    6    -19.92384    2.00000
    7    -19.12995    2.00000
    8    -18.78988    2.00000
    9    -18.12259    2.00000
   10    -17.81912    2.00000
   11    -17.30146    2.00000
   12    -16.65625    2.00000
   13    -16.38664    2.00000
   14    -15.91790    2.00000
   15    -15.64376    2.00000
   16    -14.69399    2.00000
   17    -14.23954    2.00000
   18    -14.02326    2.00000
   19    -13.90082    2.00000
   20    -13.37101    2.00000
   21    -12.48374    2.00000
   22    -11.99901    2.00000
   23    -11.75016    2.00000
   24    -11.22584    2.00000
   25    -10.85263    2.00000
   26    -10.62357    2.00000
   27    -10.11934    2.00000
   28     -9.74977    2.00000
   29     -9.56444    2.00000
   30     -8.94436    2.00000
   31     -8.90090    2.00000
   32     -8.70759    2.00000
   33     -8.32747    2.00000
   34     -8.22707    2.00000
   35     -7.98061    2.00000
   36     -7.73043    2.00000
   37     -7.54317    2.00000
   38     -6.73318    2.00000
   39     -6.66173    2.00000
   40     -6.43693    2.00000
   41     -6.05150    1.99994
   42     -5.63745    1.99622
   43     -5.61160    1.99511
   44     -5.51608    1.98735
   45     -5.40868    1.96342
   46     -5.33668    1.92627
   47     -5.23506    1.80874
   48     -4.84565    0.32292
   49     -3.81880    0.00001
   50     -3.77245    0.00001
   51     -3.24769    0.00000
   52     -3.06900    0.00000
   53     -2.57079    0.00000
   54     -1.96942    0.00000
   55     -1.70568    0.00000
   56     -1.58914    0.00000
   57     -1.18032    0.00000
   58     -1.02641    0.00000
   59     -0.43834    0.00000
   60      0.01841    0.00000
   61      0.65124    0.00000
   62      0.91492    0.00000
   63      1.36302    0.00000
   64      1.50003    0.00000
   65      2.54892    0.00000
   66      2.85859    0.00000
   67      3.34760    0.00000
   68      3.67115    0.00000
   69      3.74532    0.00000
   70      4.44390    0.00000
   71      4.70618    0.00000
   72      5.19718    0.00000
   73      5.44923    0.00000
   74      5.77879    0.00000
   75      6.15578    0.00000
   76      6.57928    0.00000
   77      6.78966    0.00000
   78      7.36957    0.00000
   79      7.61149    0.00000
   80      7.73142    0.00000
   81      8.04899    0.00000
   82      8.19290    0.00000
   83      8.49829    0.00000
   84      8.61740    0.00000
   85      8.72995    0.00000
   86      9.04995    0.00000
   87      9.07256    0.00000
   88      9.09124    0.00000
   89      9.15998    0.00000
   90      9.26613    0.00000
   91      9.35976    0.00000
   92      9.45413    0.00000
   93      9.63670    0.00000
   94      9.75392    0.00000
   95      9.82559    0.00000
   96      9.94291    0.00000
   97     10.03501    0.00000


Forces in eV/Ang:
  0 C    -0.02483    0.03443    0.00545
  1 C    -0.01637   -0.02334    0.01316
  2 C    -0.02300   -0.01054    0.01314
  3 C    -0.01864   -0.01754   -0.03006
  4 C    -0.02139   -0.04078    0.05965
  5 C    -0.03883    0.02473    0.02969
  6 C     0.00858    0.00754   -0.00744
  7 C    -0.00245   -0.05135   -0.01577
  8 C     0.00106   -0.01424    0.05348
  9 C    -0.01427    0.03425   -0.01107
 10 C    -0.00447   -0.00827    0.02609
 11 C     0.03954    0.03545   -0.04149
 12 C     0.00806    0.02095    0.05980
 13 C    -0.01243   -0.01460   -0.03205
 14 C    -0.01946    0.05190   -0.02507
 15 C    -0.03657   -0.02541   -0.00389
 16 C    -0.07469    0.00942    0.03876
 17 C     0.07885    0.00131   -0.04840
 18 C     0.00789   -0.04549    0.02130
 19 C     0.04954   -0.00886   -0.05051
 20 C     0.00067   -0.00933    0.00126
 21 C     0.00650   -0.08006    0.01565
 22 C     0.08278   -0.01369   -0.02119
 23 C     0.08842    0.04308   -0.00027

