
  ___ ___ ___ _ _ _  
 |   |   |_  | | | | 
 | | | | | . | | | | 
 |__ |  _|___|_____|  1.3.0b1
 |___|_|             

User:   esb@s66n62.grendel.cscaa.dk
Date:   Wed Nov  8 14:13:03 2017
Arch:   x86_64
Pid:    115392
Python: 2.7.13
gpaw:   /home/esb/DFT/gpaw_git/gpaw
_gpaw:  /home/esb/DFT/gpaw_git/build/bin.linux-x86_64-2.7/gpaw-python
ase:    /home/esb/DFT/ase_git/ase (version 3.15.0b1)
numpy:  /comm/swstack/core/python/2.7.13/lib/python2.7/site-packages/numpy (version 1.13.3)
scipy:  /comm/swstack/core/python/2.7.13/lib/python2.7/site-packages/scipy (version 0.19.1)
units:  Angstrom and eV
cores:  16
Extra parameters: {'blacs': True}

Input parameters:
  basis: dzp
  gpts: [80 80 48]
  kpts: [1 1 1]
  maxiter: 99
  mixer: {backend: pulay,
          beta: 0.05,
          method: separate,
          nmaxold: 5,
          weight: 75}
  mode: lcao
  nbands: -50
  occupations: {name: fermi-dirac,
                width: 0.1}
  poissonsolver: {eps: 1e-07,
                  name: fd,
                  nn: 3,
                  relax: GS}
  xc: PBE

System changes: positions, numbers, cell, pbc, initial_charges, initial_magmoms 

Initialize ...

C-setup:
  name: Carbon
  id: 4aa54d4b901d75f77cc0ea3eec22967b
  Z: 6
  valence: 4
  core: 2
  charge: 0.0
  file: /home/esb/DFT/gpaw-setups-0.8.7929/C.PBE.gz
  cutoffs: 0.64(comp), 1.14(filt), 1.14(core), lmax=2
  valence states:
                energy  radius
    2s(2.00)   -13.751   0.635
    2p(2.00)    -5.284   0.635
    *s          13.461   0.635
    *p          21.927   0.635
    *d           0.000   0.635

  LCAO basis set for C:
    Name: dzp
    File: /home/esb/DFT/gpaw-setups-0.8.7929/C.dzp.basis.gz
    Number of radial functions: 5
    Number of spherical harmonics: 13
      l=0, rc=5.5469 Bohr: 2s-sz confined orbital
      l=1, rc=6.6719 Bohr: 2p-sz confined orbital
      l=0, rc=3.0312 Bohr: 2s-dz split-valence wave
      l=1, rc=3.7500 Bohr: 2p-dz split-valence wave
      l=2, rc=6.6719 Bohr: d-type Gaussian polarization

Reference energy: -24663.074771

Spin-paired calculation

Occupation numbers:
  Fermi-Dirac: width=0.1000 eV

Convergence criteria:
  Maximum total energy change: 0.0005 eV / electron
  Maximum integral of absolute density change: 0.0001 electrons
  Maximum integral of absolute eigenstate change: 4e-08 eV^2
  Maximum number of iterations: 99

Symmetries present (total): 1

  ( 1  0  0)
  ( 0  1  0)
  ( 0  0  1)

1 k-point (Gamma)
1 k-point in the irreducible part of the Brillouin zone
       k-points in crystal coordinates                weights
   0:     0.00000000    0.00000000    0.00000000          1/1

Wave functions: LCAO
  Diagonalizer: Serial LAPACK
  Atomic Correction: dense with blas
  Datatype: float
  Eigensolver: None 

LCAO using direct dense diagonalizer 

Densities:
  Coarse grid: 80*80*48 grid
  Fine grid: 160*160*96 grid
  Total Charge: 0.000000 

Density mixing:
  Method: separate
  Backend: pulay
  Linear mixing parameter: 0.05
  Mixing with 5 old densities
  Damping of long wave oscillations: 75 

Hamiltonian:
  XC and Coulomb potentials evaluated on a 160*160*96 grid
  Using the PBE Exchange-Correlation functional
  Interpolation: tri-quintic (5. degree polynomial)
  Poisson solver: Gauss-Seidel solver with 6 multi-grid levels
    Coarsest grid: 5 x 5 x 3 points
    Stencil: 6*3+1=19 point O(h^6) finite-difference Laplacian
    Max iterations: 1000
    Tolerance: 1.000000e-07 

Memory estimate:
  Process memory now: 79.60 MiB
  Calculator: 15.59 MiB
    Density: 6.13 MiB
      Arrays: 3.81 MiB
      Localized functions: 0.86 MiB
      Mixer: 1.46 MiB
    Hamiltonian: 5.40 MiB
      Arrays: 2.49 MiB
      XC: 0.00 MiB
      Poisson: 2.85 MiB
      vbar: 0.07 MiB
    Wavefunctions: 4.05 MiB
      C [qnM]: 0.23 MiB
      S, T [2 x qmm]: 1.49 MiB
      P [aqMi]: 0.01 MiB
      TCI: 0.00 MiB
      BasisFunctions: 2.33 MiB
      Eigensolver: 0.00 MiB

Total number of cores used: 16
Domain decomposition: 2 x 4 x 2

Number of atoms: 24
Number of atomic orbitals: 312
Number of bands in calculation: 98
Bands to converge: occupied states only
Number of valence electrons: 96

... initialized

Initializing position-dependent things.

Density initialized from atomic densities
           .--------------------------------------.  
          /|                                      |  
         / |                                      |  
        /  |                                      |  
       /   |                                      |  
      /    |                                      |  
     /     |                                      |  
    /      |                                      |  
   /       |               C                      |  
  /        |                  C                   |  
 *         |  C   C    C   C     C                |  
 |         |      C  C          C                 |  
 |         .----C----C--C--CC-C-------------------.  
 |        /       C     C  C                     /   
 |       /     C     CC                         /    
 |      /                                      /     
 |     /                                      /      
 |    /                                      /       
 |   /                                      /        
 |  /                                      /         
 | /                                      /          
 |/                                      /           
 *--------------------------------------*            

Positions:
   0 C      9.725252    3.622923    5.240013
   1 C      5.691530    9.068429    4.705915
   2 C      9.214668    6.996852    4.926157
   3 C      7.630937    4.318543    4.426066
   4 C      7.878326    5.552593    5.723461
   5 C      6.194025    7.229779    4.347793
   6 C      3.277355    8.456063    5.516027
   7 C      6.481267   10.492252    4.593568
   8 C      7.687410   11.666255    5.719370
   9 C      4.251613    7.137110    5.011733
  10 C      4.746851    9.102046    5.462300
  11 C      8.163060   10.440565    4.737098
  12 C      7.303965    3.081803    5.421229
  13 C      5.276831    6.360272    5.499358
  14 C      5.620712    5.065813    4.885959
  15 C     10.232678   10.888611    4.672482
  16 C      4.433282    4.903905    4.340260
  17 C      9.530594    9.184924    5.653742
  18 C     10.206514    6.242423    4.974861
  19 C      8.655684    3.509671    5.415319
  20 C      6.158286    7.218432    5.748387
  21 C      8.141558    9.201493    4.832986
  22 C     10.418610    8.500583    4.728969
  23 C      9.236187    5.463149    5.193910

Unit cell:
           periodic     x           y           z      points  spacing
  1. axis:    yes   16.000000    0.000000    0.000000    80     0.2000
  2. axis:    yes    0.000000   16.000000    0.000000    80     0.2000
  3. axis:    yes    0.000000    0.000000   10.000000    48     0.2083

Effective grid spacing dv^(1/3) = 0.2027

                     log10-error:    total        iterations:
           time      wfs    density  energy       fermi  poisson
iter:   1  14:13:04          +inf  -139.616524    3      6      
iter:   2  14:13:05         -0.85  -136.541019    4      3      
iter:   3  14:13:06         -0.91  -134.424636    4      3      
iter:   4  14:13:06         -0.98  -133.790459    4      2      
iter:   5  14:13:07         -1.03  -132.626649    2      3      
iter:   6  14:13:07         -1.20  -132.401764    3      3      
iter:   7  14:13:08         -1.27  -132.091266    4      3      
iter:   8  14:13:08         -1.57  -132.018375    3      3      
iter:   9  14:13:09         -1.74  -131.998177    3      3      
iter:  10  14:13:10         -1.85  -131.971343    3      3      
iter:  11  14:13:10         -2.06  -131.958119    3      2      
iter:  12  14:13:11         -2.22  -131.953473    3      2      
iter:  13  14:13:11         -2.39  -131.953921    3      2      
iter:  14  14:13:12         -2.59  -131.951121    3      2      
iter:  15  14:13:12         -2.72  -131.958706    2      1      
iter:  16  14:13:13         -2.79  -131.950059    2      1      
iter:  17  14:13:13         -2.87  -131.946767    2      2      
iter:  18  14:13:14         -3.10  -131.954128    2      1      
iter:  19  14:13:14         -3.28  -131.945880    2      1      
iter:  20  14:13:15         -3.39  -131.945499    2      1      
iter:  21  14:13:15         -3.48  -131.948103    2      1      
iter:  22  14:13:16         -3.63  -131.946806    2      1      
iter:  23  14:13:16         -3.75  -131.947470    2      1      
iter:  24  14:13:17         -3.84  -131.947831    2      1      
iter:  25  14:13:17         -3.98  -131.947231    2      1      
iter:  26  14:13:18         -4.17  -131.947379    2      1      

Converged after 26 iterations.

Dipole moment: (-0.172573, 0.860977, 0.275327) |e|*Ang

Energy contributions relative to reference atoms: (reference = -24663.074771)

Kinetic:       +160.274289
Potential:     -144.643024
External:        +0.000000
XC:            -149.967507
Entropy (-ST):   -0.456926
Local:           +2.617326
--------------------------
Free energy:   -132.175842
Extrapolated:  -131.947379

Fermi level: -5.03965

 Band  Eigenvalues  Occupancy
    0    -25.87603    2.00000
    1    -24.91239    2.00000
    2    -22.81507    2.00000
    3    -22.71468    2.00000
    4    -21.66040    2.00000
    5    -20.03238    2.00000
    6    -19.47083    2.00000
    7    -18.79897    2.00000
    8    -18.46365    2.00000
    9    -18.07212    2.00000
   10    -16.78943    2.00000
   11    -16.31559    2.00000
   12    -15.44610    2.00000
   13    -15.35496    2.00000
   14    -14.28628    2.00000
   15    -13.65755    2.00000
   16    -13.38136    2.00000
   17    -13.24076    2.00000
   18    -12.44266    2.00000
   19    -11.80805    2.00000
   20    -11.50505    2.00000
   21    -11.12928    2.00000
   22    -10.57912    2.00000
   23    -10.42057    2.00000
   24    -10.26466    2.00000
   25    -10.17238    2.00000
   26     -9.92563    2.00000
   27     -9.50285    2.00000
   28     -9.14274    2.00000
   29     -8.89391    2.00000
   30     -8.57835    2.00000
   31     -8.52139    2.00000
   32     -7.95174    2.00000
   33     -7.81871    2.00000
   34     -7.69506    2.00000
   35     -7.64773    2.00000
   36     -7.29210    2.00000
   37     -7.09845    2.00000
   38     -6.90386    2.00000
   39     -6.56354    2.00000
   40     -6.35072    2.00000
   41     -6.28536    1.99999
   42     -6.15159    1.99997
   43     -5.66947    1.99633
   44     -5.52974    1.98523
   45     -5.46411    1.97172
   46     -5.30727    1.87122
   47     -5.07123    1.15659
   48     -4.95740    0.61047
   49     -4.88067    0.33882
   50     -4.69747    0.06324
   51     -4.45657    0.00585
   52     -4.17906    0.00037
   53     -4.10606    0.00018
   54     -3.93481    0.00003
   55     -3.55383    0.00000
   56     -3.03637    0.00000
   57     -2.93469    0.00000
   58     -2.72596    0.00000
   59     -2.55937    0.00000
   60     -2.04502    0.00000
   61     -1.71400    0.00000
   62     -1.53360    0.00000
   63     -1.33357    0.00000
   64     -1.13893    0.00000
   65     -0.73565    0.00000
   66     -0.42709    0.00000
   67     -0.31956    0.00000
   68      0.22074    0.00000
   69      0.32376    0.00000
   70      0.65431    0.00000
   71      1.16803    0.00000
   72      1.49533    0.00000
   73      1.85607    0.00000
   74      2.23361    0.00000
   75      2.56289    0.00000
   76      3.27981    0.00000
   77      3.64125    0.00000
   78      3.89209    0.00000
   79      4.52205    0.00000
   80      4.60279    0.00000
   81      5.17460    0.00000
   82      5.67063    0.00000
   83      5.86726    0.00000
   84      6.40343    0.00000
   85      6.74160    0.00000
   86      7.29746    0.00000
   87      7.89245    0.00000
   88      8.07879    0.00000
   89      8.44022    0.00000
   90      8.60285    0.00000
   91      8.73669    0.00000
   92      8.82998    0.00000
   93      9.09690    0.00000
   94      9.18304    0.00000
   95      9.30141    0.00000
   96      9.33832    0.00000
   97      9.47958    0.00000


Forces in eV/Ang:
  0 C    26.59304    4.24865   -3.89579
  1 C    10.66135    3.32439   -5.74287
  2 C    -4.13941    5.84539   -1.54330
  3 C    -3.74826   -0.23126    2.54855
  4 C     0.81673   -0.22794   -1.77609
  5 C     0.29255    3.40708   -2.23456
  6 C     5.80690   -1.60596   -1.05621
  7 C     1.51297   -0.85590    1.43592
  8 C    -1.05462   -3.64395   -3.23326
  9 C    -5.49620    3.64412   -0.29279
 10 C   -13.06771   -2.45989    5.98696
 11 C    -1.85493   12.69706   -0.77778
 12 C     0.48420    2.34964   -2.12032
 13 C    -7.14284   -8.07698   -0.57941
 14 C    -1.28303   -0.98247    0.07456
 15 C    -2.81768   -2.51843    1.14223
 16 C    -0.48522   -0.64664   -0.59572
 17 C     0.96668   -0.46617   -3.65576
 18 C    11.70778    1.20932   -1.16120
 19 C   -25.20947   -7.25217    5.15773
 20 C    10.92648    6.06865    4.17616
 21 C     3.01763   -8.35200    2.80325
 22 C    -1.52397    1.45049    1.93142
 23 C    -4.97964   -6.95924    3.23144

System changes: positions 

Initializing position-dependent things.

Density initialized from wave functions
           .--------------------------------------.  
          /|                                      |  
         / |                                      |  
        /  |                                      |  
       /   |                                      |  
      /    |                                      |  
     /     |                                      |  
    /      |                                      |  
   /       |               C                      |  
  /        |                  C                   |  
 *         |  C   C    C   C     C                |  
 |         |      C  C          C                 |  
 |         .----C----C--C--CC-C-------------------.  
 |        /       C     C  C                     /   
 |       /     C     CC                         /    
 |      /                                      /     
 |     /                                      /      
 |    /                                      /       
 |   /                                      /        
 |  /                                      /         
 | /                                      /          
 |/                                      /           
 *--------------------------------------*            

Positions:
   0 C      9.764345    3.629168    5.234287
   1 C      5.707202    9.073316    4.697472
   2 C      9.208583    7.005445    4.923889
   3 C      7.625427    4.318203    4.429813
   4 C      7.879526    5.552257    5.720850
   5 C      6.194455    7.234788    4.344508
   6 C      3.285891    8.453702    5.514475
   7 C      6.483491   10.490994    4.595679
   8 C      7.685860   11.660898    5.714617
   9 C      4.243533    7.142467    5.011303
  10 C      4.727641    9.098430    5.471101
  11 C      8.160334   10.459230    4.735955
  12 C      7.304677    3.085257    5.418112
  13 C      5.266331    6.348399    5.498506
  14 C      5.618826    5.064369    4.886068
  15 C     10.228536   10.884909    4.674161
  16 C      4.432569    4.902955    4.339385
  17 C      9.532015    9.184239    5.648368
  18 C     10.223724    6.244201    4.973154
  19 C      8.618626    3.499010    5.422901
  20 C      6.174349    7.227353    5.754526
  21 C      8.145994    9.189215    4.837106
  22 C     10.416370    8.502715    4.731808
  23 C      9.228867    5.452919    5.198660

Unit cell:
           periodic     x           y           z      points  spacing
  1. axis:    yes   16.000000    0.000000    0.000000    80     0.2000
  2. axis:    yes    0.000000   16.000000    0.000000    80     0.2000
  3. axis:    yes    0.000000    0.000000   10.000000    48     0.2083

Effective grid spacing dv^(1/3) = 0.2027

                     log10-error:    total        iterations:
           time      wfs    density  energy       fermi  poisson
iter:   1  14:13:20          +inf  -135.608772    3      5      
iter:   2  14:13:20         -1.75  -135.463908    3      2      
iter:   3  14:13:21         -1.96  -135.426406    2      2      
iter:   4  14:13:21         -2.07  -135.413388    3      2      
iter:   5  14:13:22         -2.19  -135.403351    3      2      
iter:   6  14:13:22         -2.31  -135.396996    3      2      
iter:   7  14:13:23         -2.50  -135.394524    3      2      
iter:   8  14:13:23         -2.75  -135.393319    2      2      
iter:   9  14:13:24         -2.89  -135.392893    2      2      
iter:  10  14:13:24         -3.07  -135.392279    2      2      
iter:  11  14:13:25         -3.29  -135.390950    2      1      
iter:  12  14:13:25         -3.40  -135.389185    2      1      
iter:  13  14:13:26         -3.60  -135.391220    2      1      
iter:  14  14:13:26         -3.69  -135.391902    2      1      
iter:  15  14:13:27         -3.87  -135.391489    2      1      
iter:  16  14:13:28         -4.00  -135.392734    2      1      

Converged after 16 iterations.

Dipole moment: (-0.150940, 0.780897, 0.266862) |e|*Ang

Energy contributions relative to reference atoms: (reference = -24663.074771)

Kinetic:       +137.745435
Potential:     -128.837730
External:        +0.000000
XC:            -146.623478
Entropy (-ST):   -0.441959
Local:           +2.544019
--------------------------
Free energy:   -135.613713
Extrapolated:  -135.392734

Fermi level: -5.03553

 Band  Eigenvalues  Occupancy
    0    -25.57583    2.00000
    1    -24.60259    2.00000
    2    -22.86415    2.00000
    3    -22.65127    2.00000
    4    -21.50564    2.00000
    5    -20.02290    2.00000
    6    -19.54634    2.00000
    7    -18.73789    2.00000
    8    -18.46924    2.00000
    9    -18.14360    2.00000
   10    -16.76998    2.00000
   11    -16.31830    2.00000
   12    -15.40140    2.00000
   13    -15.21254    2.00000
   14    -14.21639    2.00000
   15    -13.61539    2.00000
   16    -13.36452    2.00000
   17    -13.19238    2.00000
   18    -12.42307    2.00000
   19    -11.76482    2.00000
   20    -11.43811    2.00000
   21    -11.11749    2.00000
   22    -10.54859    2.00000
   23    -10.37422    2.00000
   24    -10.22397    2.00000
   25    -10.17968    2.00000
   26     -9.91981    2.00000
   27     -9.48007    2.00000
   28     -9.07639    2.00000
   29     -8.87802    2.00000
   30     -8.52931    2.00000
   31     -8.51630    2.00000
   32     -7.94984    2.00000
   33     -7.79280    2.00000
   34     -7.64508    2.00000
   35     -7.62142    2.00000
   36     -7.23097    2.00000
   37     -7.10355    2.00000
   38     -6.88972    2.00000
   39     -6.54656    2.00000
   40     -6.33466    2.00000
   41     -6.26718    1.99999
   42     -6.09269    1.99995
   43     -5.85338    1.99944
   44     -5.57568    1.99102
   45     -5.47044    1.97449
   46     -5.29273    1.85807
   47     -5.08056    1.22143
   48     -4.93889    0.55121
   49     -4.88103    0.35160
   50     -4.66440    0.04772
   51     -4.42773    0.00457
   52     -4.17055    0.00035
   53     -4.05646    0.00011
   54     -3.98022    0.00005
   55     -3.47481    0.00000
   56     -3.03854    0.00000
   57     -2.89465    0.00000
   58     -2.75356    0.00000
   59     -2.55396    0.00000
   60     -2.04522    0.00000
   61     -1.73543    0.00000
   62     -1.54486    0.00000
   63     -1.37249    0.00000
   64     -1.18149    0.00000
   65     -0.71448    0.00000
   66     -0.46903    0.00000
   67     -0.29378    0.00000
   68      0.16471    0.00000
   69      0.35803    0.00000
   70      0.67900    0.00000
   71      1.14060    0.00000
   72      1.46071    0.00000
   73      1.90707    0.00000
   74      2.21555    0.00000
   75      2.38179    0.00000
   76      3.30213    0.00000
   77      3.70260    0.00000
   78      3.80707    0.00000
   79      4.67308    0.00000
   80      4.68747    0.00000
   81      4.72919    0.00000
   82      5.59713    0.00000
   83      5.94317    0.00000
   84      6.45752    0.00000
   85      6.81555    0.00000
   86      7.34102    0.00000
   87      7.87634    0.00000
   88      8.12881    0.00000
   89      8.44540    0.00000
   90      8.62854    0.00000
   91      8.68215    0.00000
   92      8.73984    0.00000
   93      9.09830    0.00000
   94      9.16536    0.00000
   95      9.31364    0.00000
   96      9.33000    0.00000
   97      9.46941    0.00000


Forces in eV/Ang:
  0 C    14.17656    2.93027   -1.84181
  1 C     8.15195    3.46854   -3.68535
  2 C    -2.90910    4.30722   -1.35010
  3 C    -3.70204   -0.02560    2.15215
  4 C     0.72140   -0.05541   -1.58709
  5 C     0.17198    3.47150   -1.72167
  6 C     5.81854   -1.59496   -1.03166
  7 C     1.43446   -0.95061    1.46864
  8 C    -1.04812   -3.64092   -3.27320
  9 C    -5.04867    3.53171   -0.03771
 10 C   -10.38042   -2.65173    3.84135
 11 C    -1.88901   10.53975   -0.54284
 12 C    -0.61408    1.59007   -1.94603
 13 C    -5.58419   -5.97705   -0.35984
 14 C    -1.04275   -1.13190    0.14858
 15 C    -2.86773   -2.54759    1.11639
 16 C    -0.54606   -0.67876   -0.63601
 17 C     0.78795   -0.29636   -3.57923
 18 C     9.04592    1.26539   -0.91690
 19 C   -11.96161   -5.39172    3.23612
 20 C     8.92909    4.36562    3.23343
 21 C     3.13537   -6.30001    2.69282
 22 C    -1.32800    1.35684    1.82323
 23 C    -3.45053   -5.56325    2.61581

System changes: positions 

Initializing position-dependent things.

Density initialized from wave functions
           .--------------------------------------.  
          /|                                      |  
         / |                                      |  
        /  |                                      |  
       /   |                                      |  
      /    |                                      |  
     /     |                                      |  
    /      |                                      |  
   /       |               C                      |  
  /        |                                      |  
 *         |  C   C    C   C  C  C                |  
 |         |      C  C          C                 |  
 |         .----C----C--C--CC-C-------------------.  
 |        /       C     C  C                     /   
 |       /     C     CC                         /    
 |      /                                      /     
 |     /                                      /      
 |    /                                      /       
 |   /                                      /        
 |  /                                      /         
 | /                                      /          
 |/                                      /           
 *--------------------------------------*            

Positions:
   0 C      9.769733    3.636445    5.235763
   1 C      5.733166    9.090347    4.690293
   2 C      9.200971    7.018115    4.918490
   3 C      7.608237    4.319099    4.437981
   4 C      7.882450    5.552849    5.714316
   5 C      6.194669    7.251439    4.338940
   6 C      3.313325    8.446252    5.509742
   7 C      6.489853   10.486054    4.602750
   8 C      7.680961   11.643783    5.699020
   9 C      4.221989    7.158528    5.012385
  10 C      4.692072    9.085007    5.478580
  11 C      8.151278   10.498166    4.734561
  12 C      7.296364    3.088987    5.409817
  13 C      5.247754    6.330646    5.497897
  14 C      5.615107    5.058305    4.887133
  15 C     10.214797   10.872778    4.679286
  16 C      4.429699    4.899603    4.336193
  17 C      9.534839    9.183683    5.631906
  18 C     10.253141    6.250431    4.970046
  19 C      8.627764    3.482829    5.428638
  20 C      6.206497    7.239483    5.765084
  21 C      8.161327    9.169706    4.849231
  22 C     10.411090    8.508636    4.739853
  23 C      9.220183    5.433637    5.207927

Unit cell:
           periodic     x           y           z      points  spacing
  1. axis:    yes   16.000000    0.000000    0.000000    80     0.2000
  2. axis:    yes    0.000000   16.000000    0.000000    80     0.2000
  3. axis:    yes    0.000000    0.000000   10.000000    48     0.2083

Effective grid spacing dv^(1/3) = 0.2027

                     log10-error:    total        iterations:
           time      wfs    density  energy       fermi  poisson
iter:   1  14:13:29          +inf  -138.909613    3      5      
iter:   2  14:13:30         -1.53  -138.513371    2      2      
iter:   3  14:13:30         -1.80  -138.426292    3      2      
iter:   4  14:13:31         -1.92  -138.395029    3      2      
iter:   5  14:13:31         -2.08  -138.384132    2      2      
iter:   6  14:13:32         -2.17  -138.377088    3      2      
iter:   7  14:13:32         -2.36  -138.371935    3      2      
iter:   8  14:13:33         -2.67  -138.371822    2      2      
iter:   9  14:13:33         -2.80  -138.372111    2      2      
iter:  10  14:13:34         -2.95  -138.373197    2      1      
iter:  11  14:13:35         -3.08  -138.371799    2      2      
iter:  12  14:13:35         -3.30  -138.370941    2      1      
iter:  13  14:13:36         -3.40  -138.371477    2      1      
iter:  14  14:13:36         -3.61  -138.371058    2      1      
iter:  15  14:13:37         -3.76  -138.371157    2      1      
iter:  16  14:13:37         -3.87  -138.371393    2      1      
iter:  17  14:13:38         -4.09  -138.371534    2      1      

Converged after 17 iterations.

Dipole moment: (-0.172129, 0.725625, 0.242012) |e|*Ang

Energy contributions relative to reference atoms: (reference = -24663.074771)

Kinetic:       +118.475073
Potential:     -115.033994
External:        +0.000000
XC:            -144.176686
Entropy (-ST):   -0.398075
Local:           +2.563110
--------------------------
Free energy:   -138.570572
Extrapolated:  -138.371534

Fermi level: -5.05278

 Band  Eigenvalues  Occupancy
    0    -25.07122    2.00000
    1    -24.18652    2.00000
    2    -22.72783    2.00000
    3    -22.51568    2.00000
    4    -21.37058    2.00000
    5    -19.99524    2.00000
    6    -19.78583    2.00000
    7    -18.79476    2.00000
    8    -18.56500    2.00000
    9    -18.18230    2.00000
   10    -16.78537    2.00000
   11    -16.35137    2.00000
   12    -15.41094    2.00000
   13    -15.01662    2.00000
   14    -14.20571    2.00000
   15    -13.56698    2.00000
   16    -13.30845    2.00000
   17    -13.01864    2.00000
   18    -12.43524    2.00000
   19    -11.74724    2.00000
   20    -11.43271    2.00000
   21    -11.16884    2.00000
   22    -10.61058    2.00000
   23    -10.26415    2.00000
   24    -10.24183    2.00000
   25    -10.15802    2.00000
   26     -9.96014    2.00000
   27     -9.44843    2.00000
   28     -9.03131    2.00000
   29     -8.82567    2.00000
   30     -8.56815    2.00000
   31     -8.49215    2.00000
   32     -7.94331    2.00000
   33     -7.80718    2.00000
   34     -7.67084    2.00000
   35     -7.57466    2.00000
   36     -7.19957    2.00000
   37     -7.14247    2.00000
   38     -6.89083    2.00000
   39     -6.56096    2.00000
   40     -6.35521    2.00000
   41     -6.29582    1.99999
   42     -6.12190    1.99995
   43     -5.84902    1.99930
   44     -5.67052    1.99586
   45     -5.52817    1.98291
   46     -5.33626    1.88905
   47     -5.11901    1.31953
   48     -4.92448    0.43407
   49     -4.89809    0.35105
   50     -4.61741    0.02539
   51     -4.38629    0.00255
   52     -4.16094    0.00027
   53     -3.98389    0.00005
   54     -3.96642    0.00004
   55     -3.37968    0.00000
   56     -3.04361    0.00000
   57     -2.87682    0.00000
   58     -2.73111    0.00000
   59     -2.49930    0.00000
   60     -2.06399    0.00000
   61     -1.77005    0.00000
   62     -1.53237    0.00000
   63     -1.44962    0.00000
   64     -1.24320    0.00000
   65     -0.67949    0.00000
   66     -0.51109    0.00000
   67     -0.24658    0.00000
   68      0.11253    0.00000
   69      0.45141    0.00000
   70      0.75366    0.00000
   71      1.10089    0.00000
   72      1.49568    0.00000
   73      2.11708    0.00000
   74      2.29430    0.00000
   75      2.64497    0.00000
   76      3.22218    0.00000
   77      3.93856    0.00000
   78      4.12253    0.00000
   79      4.48967    0.00000
   80      4.95042    0.00000
   81      5.16517    0.00000
   82      5.54844    0.00000
   83      6.09617    0.00000
   84      6.50375    0.00000
   85      6.95692    0.00000
   86      7.31968    0.00000
   87      7.75814    0.00000
   88      7.97204    0.00000
   89      8.43738    0.00000
   90      8.45686    0.00000
   91      8.63529    0.00000
   92      8.68261    0.00000
   93      9.00833    0.00000
   94      9.16382    0.00000
   95      9.20323    0.00000
   96      9.34816    0.00000
   97      9.43926    0.00000


Forces in eV/Ang:
  0 C    13.99929    3.34304   -1.80653
  1 C     5.29891    3.87531   -1.39166
  2 C    -1.27294    2.43651   -1.17175
  3 C    -3.82144   -0.13800    2.41556
  4 C     0.35164    0.11019   -1.48861
  5 C    -0.00224    3.56912   -0.77940
  6 C     5.58589   -1.70884   -1.01037
  7 C     1.14228   -1.18517    1.51301
  8 C    -1.09699   -3.45930   -3.21011
  9 C    -4.09078    3.15387    0.56227
 10 C    -7.04878   -2.76892    1.29015
 11 C    -1.83833    7.19489   -0.22609
 12 C    -0.09022    1.72447   -2.01839
 13 C    -3.81649   -3.10810   -0.30307
 14 C    -0.96803   -1.22754    0.15069
 15 C    -2.89438   -2.66323    1.10809
 16 C    -0.49107   -0.67638   -0.63190
 17 C     0.37699    0.20813   -3.23684
 18 C     5.32043    1.07983   -0.56919
 19 C   -12.26087   -5.61170    3.08993
 20 C     6.25441    1.96055    1.79128
 21 C     3.34920   -3.38709    2.49027
 22 C    -0.80423    1.09633    1.41897
 23 C    -1.07488   -3.73376    1.93178

System changes: positions 

Initializing position-dependent things.

Density initialized from wave functions
           .--------------------------------------.  
          /|                                      |  
         / |                                      |  
        /  |                                      |  
       /   |                                      |  
      /    |                                      |  
     /     |                                      |  
    /      |                                      |  
   /       |               C                      |  
  /        |                                      |  
 *         |  C   C    C   C  C  C                |  
 |         |    C C  C          C                 |  
 |         .---------C--C--CC-C-------------------.  
 |        /       C     C  C                     /   
 |       /     C     CC                         /    
 |      /                                      /     
 |     /                                      /      
 |    /                                      /       
 |   /                                      /        
 |  /                                      /         
 | /                                      /          
 |/                                      /           
 *--------------------------------------*            

Positions:
   0 C      9.791326    3.652203    5.235669
   1 C      5.748918    9.118353    4.697386
   2 C      9.202721    7.022014    4.912000
   3 C      7.582275    4.319158    4.452585
   4 C      7.883569    5.554936    5.705491
   5 C      6.193607    7.276296    4.338478
   6 C      3.350960    8.434469    5.503052
   7 C      6.496601   10.476978    4.613325
   8 C      7.673440   11.620609    5.677059
   9 C      4.198636    7.178601    5.018872
  10 C      4.666382    9.064805    5.469780
  11 C      8.138663   10.527955    4.735019
  12 C      7.290271    3.096495    5.396971
  13 C      5.234388    6.327415    5.497241
  14 C      5.610082    5.048885    4.888600
  15 C     10.194753   10.854260    4.686658
  16 C      4.426104    4.894814    4.331663
  17 C      9.535559    9.187073    5.610989
  18 C     10.266461    6.257754    4.968284
  19 C      8.621996    3.455205    5.438035
  20 C      6.232118    7.238141    5.768932
  21 C      8.185226    9.164378    4.865136
  22 C     10.407782    8.515043    4.748093
  23 C      9.226469    5.419992    5.216122

Unit cell:
           periodic     x           y           z      points  spacing
  1. axis:    yes   16.000000    0.000000    0.000000    80     0.2000
  2. axis:    yes    0.000000   16.000000    0.000000    80     0.2000
  3. axis:    yes    0.000000    0.000000   10.000000    48     0.2083

Effective grid spacing dv^(1/3) = 0.2027

                     log10-error:    total        iterations:
           time      wfs    density  energy       fermi  poisson
iter:   1  14:13:39          +inf  -141.912189    3      5      
iter:   2  14:13:40         -1.44  -141.256802    3      2      
iter:   3  14:13:40         -1.78  -141.132158    3      2      
iter:   4  14:13:41         -1.96  -141.108726    2      2      
iter:   5  14:13:41         -2.09  -141.089491    2      2      
iter:   6  14:13:42         -2.21  -141.084355    3      2      
iter:   7  14:13:42         -2.38  -141.079207    2      2      
iter:   8  14:13:43         -2.64  -141.079593    2      2      
iter:   9  14:13:44         -2.77  -141.079632    2      2      
iter:  10  14:13:44         -2.92  -141.079554    1      2      
iter:  11  14:13:45         -3.14  -141.078770    2      1      
iter:  12  14:13:45         -3.34  -141.079253    2      1      
iter:  13  14:13:46         -3.41  -141.078846    2      1      
iter:  14  14:13:46         -3.56  -141.078404    2      1      
iter:  15  14:13:47         -3.67  -141.079372    2      1      
iter:  16  14:13:47         -3.92  -141.079563    2      1      
iter:  17  14:13:48         -3.96  -141.079583    2      1      
iter:  18  14:13:48         -4.17  -141.079732    2      1      

Converged after 18 iterations.

Dipole moment: (-0.197278, 0.676350, 0.233463) |e|*Ang

Energy contributions relative to reference atoms: (reference = -24663.074771)

Kinetic:       +109.715480
Potential:     -109.008183
External:        +0.000000
XC:            -144.197785
Entropy (-ST):   -0.352959
Local:           +2.587235
--------------------------
Free energy:   -141.256211
Extrapolated:  -141.079732

Fermi level: -5.03661

 Band  Eigenvalues  Occupancy
    0    -24.75108    2.00000
    1    -23.97926    2.00000
    2    -22.68081    2.00000
    3    -22.48496    2.00000
    4    -21.43081    2.00000
    5    -20.10055    2.00000
    6    -19.94224    2.00000
    7    -18.87848    2.00000
    8    -18.60851    2.00000
    9    -18.13627    2.00000
   10    -16.85100    2.00000
   11    -16.38227    2.00000
   12    -15.49287    2.00000
   13    -14.91005    2.00000
   14    -14.28855    2.00000
   15    -13.52951    2.00000
   16    -13.32691    2.00000
   17    -12.86722    2.00000
   18    -12.51430    2.00000
   19    -11.81740    2.00000
   20    -11.42430    2.00000
   21    -11.14128    2.00000
   22    -10.72354    2.00000
   23    -10.35265    2.00000
   24    -10.24445    2.00000
   25    -10.11737    2.00000
   26    -10.02801    2.00000
   27     -9.43778    2.00000
   28     -9.06169    2.00000
   29     -8.82678    2.00000
   30     -8.61833    2.00000
   31     -8.45658    2.00000
   32     -7.99894    2.00000
   33     -7.81205    2.00000
   34     -7.69911    2.00000
   35     -7.54795    2.00000
   36     -7.19221    2.00000
   37     -7.12855    2.00000
   38     -6.91125    2.00000
   39     -6.57970    2.00000
   40     -6.38892    2.00000
   41     -6.31388    1.99999
   42     -6.08985    1.99995
   43     -5.88015    1.99957
   44     -5.69805    1.99732
   45     -5.54500    1.98769
   46     -5.35447    1.92004
   47     -5.11730    1.38290
   48     -4.93124    0.51703
   49     -4.80212    0.17495
   50     -4.57092    0.01881
   51     -4.31899    0.00153
   52     -4.10662    0.00018
   53     -3.92003    0.00003
   54     -3.88078    0.00002
   55     -3.30308    0.00000
   56     -3.04559    0.00000
   57     -2.85347    0.00000
   58     -2.66020    0.00000
   59     -2.36623    0.00000
   60     -2.03863    0.00000
   61     -1.75074    0.00000
   62     -1.50260    0.00000
   63     -1.44542    0.00000
   64     -1.23673    0.00000
   65     -0.58634    0.00000
   66     -0.46640    0.00000
   67     -0.04470    0.00000
   68      0.15125    0.00000
   69      0.59065    0.00000
   70      0.91684    0.00000
   71      1.13579    0.00000
   72      1.51576    0.00000
   73      2.15720    0.00000
   74      2.70492    0.00000
   75      2.93024    0.00000
   76      3.20417    0.00000
   77      4.14213    0.00000
   78      4.26487    0.00000
   79      4.64636    0.00000
   80      5.21731    0.00000
   81      5.58434    0.00000
   82      5.97230    0.00000
   83      6.14448    0.00000
   84      6.82070    0.00000
   85      7.05106    0.00000
   86      7.41849    0.00000
   87      7.66489    0.00000
   88      7.88970    0.00000
   89      8.38727    0.00000
   90      8.44991    0.00000
   91      8.63600    0.00000
   92      8.70458    0.00000
   93      9.00356    0.00000
   94      9.09874    0.00000
   95      9.18811    0.00000
   96      9.33800    0.00000
   97      9.43076    0.00000


Forces in eV/Ang:
  0 C     9.65990    3.19081   -1.06598
  1 C     4.33875    4.29140   -0.67335
  2 C    -0.94670    1.89141   -1.15597
  3 C    -3.92516    0.05407    2.62905
  4 C     0.32709    0.16655   -1.60777
  5 C    -0.01200    3.57713   -0.16989
  6 C     4.95175   -1.96094   -0.95184
  7 C     0.67499   -1.37924    1.52866
  8 C    -1.26454   -3.04951   -2.93374
  9 C    -3.31379    2.65046    0.97344
 10 C    -5.39455   -2.42882    0.34930
 11 C    -1.69640    5.32409   -0.21301
 12 C    -0.15547    1.44837   -1.93414
 13 C    -3.33247   -2.04044   -0.59672
 14 C    -1.03632   -1.00740    0.20538
 15 C    -2.78746   -2.77245    1.10992
 16 C    -0.42061   -0.59863   -0.58096
 17 C     0.21568    0.74056   -2.72699
 18 C     4.18217    0.96719   -0.38669
 19 C    -7.98825   -5.00668    2.21924
 20 C     5.21636    0.80250    1.06070
 21 C     3.37564   -2.23421    2.27263
 22 C    -0.28701    0.84136    0.94026
 23 C    -0.25855   -3.44431    1.78380

System changes: positions 

Initializing position-dependent things.

Density initialized from wave functions
           .--------------------------------------.  
          /|                                      |  
         / |                                      |  
        /  |                                      |  
       /   |                                      |  
      /    |                                      |  
     /     |                                      |  
    /      |                                      |  
   /       |               C                      |  
  /        |                                      |  
 *         |   C  C    C   C  C  C                |  
 |         |    C C  C          C                 |  
 |         .---------C--C--CC-C-------------------.  
 |        /       C     C  C                     /   
 |       /     C     CC                         /    
 |      /                                      /     
 |     /                                      /      
 |    /                                      /       
 |   /                                      /        
 |  /                                      /         
 | /                                      /          
 |/                                      /           
 *--------------------------------------*            

Positions:
   0 C      9.804720    3.671676    5.237603
   1 C      5.766481    9.153526    4.704765
   2 C      9.202926    7.026913    4.904125
   3 C      7.551954    4.320841    4.472216
   4 C      7.885226    5.557218    5.693613
   5 C      6.192843    7.304026    4.342128
   6 C      3.386529    8.418558    5.496080
   7 C      6.499612   10.465181    4.625238
   8 C      7.663188   11.598847    5.655454
   9 C      4.178568    7.196380    5.029278
  10 C      4.644216    9.046508    5.458580
  11 C      8.126086   10.550819    4.734655
  12 C      7.285378    3.103998    5.383022
  13 C      5.218228    6.326282    5.492588
  14 C      5.602905    5.041245    4.890627
  15 C     10.173572   10.832462    4.695048
  16 C      4.422954    4.890376    4.327243
  17 C      9.535560    9.195675    5.592473
  18 C     10.280710    6.264783    4.967218
  19 C      8.623719    3.425557    5.444861
  20 C      6.258232    7.231494    5.769550
  21 C      8.211802    9.161914    4.881167
  22 C     10.408594    8.520003    4.752860
  23 C      9.235474    5.401803    5.226238

Unit cell:
           periodic     x           y           z      points  spacing
  1. axis:    yes   16.000000    0.000000    0.000000    80     0.2000
  2. axis:    yes    0.000000   16.000000    0.000000    80     0.2000
  3. axis:    yes    0.000000    0.000000   10.000000    48     0.2083

Effective grid spacing dv^(1/3) = 0.2027

                     log10-error:    total        iterations:
           time      wfs    density  energy       fermi  poisson
iter:   1  14:13:50          +inf  -144.190258    3      5      
iter:   2  14:13:50         -1.44  -143.549935    3      2      
iter:   3  14:13:51         -1.78  -143.430429    3      2      
iter:   4  14:13:51         -1.97  -143.407670    2      2      
iter:   5  14:13:52         -2.11  -143.392634    2      2      
iter:   6  14:13:53         -2.22  -143.386727    2      2      
iter:   7  14:13:53         -2.42  -143.384830    2      2      
iter:   8  14:13:54         -2.59  -143.383337    2      2      
iter:   9  14:13:54         -2.80  -143.384247    2      2      
iter:  10  14:13:55         -2.90  -143.384188    2      2      
iter:  11  14:13:55         -3.17  -143.381617    2      1      
iter:  12  14:13:56         -3.34  -143.383466    1      1      
iter:  13  14:13:56         -3.48  -143.384350    2      1      
iter:  14  14:13:57         -3.61  -143.383339    2      1      
iter:  15  14:13:57         -3.85  -143.383857    2      1      
iter:  16  14:13:58         -4.03  -143.384061    1      1      

Converged after 16 iterations.

Dipole moment: (-0.224314, 0.639676, 0.230309) |e|*Ang

Energy contributions relative to reference atoms: (reference = -24663.074771)

Kinetic:       +105.602756
Potential:     -106.363770
External:        +0.000000
XC:            -145.078026
Entropy (-ST):   -0.311167
Local:           +2.610561
--------------------------
Free energy:   -143.539645
Extrapolated:  -143.384061

Fermi level: -5.02898

 Band  Eigenvalues  Occupancy
    0    -24.48746    2.00000
    1    -23.76289    2.00000
    2    -22.72766    2.00000
    3    -22.37340    2.00000
    4    -21.54837    2.00000
    5    -20.37665    2.00000
    6    -19.93796    2.00000
    7    -19.01655    2.00000
    8    -18.58533    2.00000
    9    -18.07059    2.00000
   10    -16.89869    2.00000
   11    -16.43973    2.00000
   12    -15.57245    2.00000
   13    -14.80516    2.00000
   14    -14.39388    2.00000
   15    -13.51218    2.00000
   16    -13.35659    2.00000
   17    -12.74344    2.00000
   18    -12.57957    2.00000
   19    -11.95473    2.00000
   20    -11.40757    2.00000
   21    -11.08619    2.00000
   22    -10.78732    2.00000
   23    -10.44773    2.00000
   24    -10.25302    2.00000
   25    -10.12492    2.00000
   26    -10.05994    2.00000
   27     -9.45366    2.00000
   28     -9.09992    2.00000
   29     -8.86457    2.00000
   30     -8.66287    2.00000
   31     -8.41926    2.00000
   32     -8.11638    2.00000
   33     -7.80266    2.00000
   34     -7.70704    2.00000
   35     -7.51391    2.00000
   36     -7.20110    2.00000
   37     -7.08614    2.00000
   38     -6.94510    2.00000
   39     -6.58498    2.00000
   40     -6.42694    2.00000
   41     -6.32648    2.00000
   42     -6.07603    1.99994
   43     -5.88272    1.99961
   44     -5.69418    1.99742
   45     -5.55207    1.98936
   46     -5.38172    1.94291
   47     -5.11537    1.40698
   48     -4.94400    0.59895
   49     -4.66266    0.05002
   50     -4.53253    0.01387
   51     -4.25113    0.00084
   52     -4.02761    0.00009
   53     -3.83542    0.00001
   54     -3.76943    0.00001
   55     -3.21418    0.00000
   56     -3.02967    0.00000
   57     -2.84645    0.00000
   58     -2.60577    0.00000
   59     -2.22039    0.00000
   60     -1.99421    0.00000
   61     -1.70598    0.00000
   62     -1.48435    0.00000
   63     -1.39972    0.00000
   64     -1.18595    0.00000
   65     -0.49497    0.00000
   66     -0.39172    0.00000
   67      0.15821    0.00000
   68      0.27623    0.00000
   69      0.74430    0.00000
   70      1.08693    0.00000
   71      1.22278    0.00000
   72      1.52176    0.00000
   73      2.28707    0.00000
   74      2.89330    0.00000
   75      3.18903    0.00000
   76      3.36572    0.00000
   77      4.00981    0.00000
   78      4.64335    0.00000
   79      5.03522    0.00000
   80      5.36384    0.00000
   81      5.94530    0.00000
   82      6.18198    0.00000
   83      6.51502    0.00000
   84      6.97698    0.00000
   85      7.27071    0.00000
   86      7.54555    0.00000
   87      7.58282    0.00000
   88      7.87243    0.00000
   89      8.33532    0.00000
   90      8.51297    0.00000
   91      8.66921    0.00000
   92      8.75989    0.00000
   93      8.98924    0.00000
   94      9.06052    0.00000
   95      9.21803    0.00000
   96      9.33041    0.00000
   97      9.43904    0.00000


Forces in eV/Ang:
  0 C     7.18125    3.21623   -0.59882
  1 C     3.16113    4.27331   -0.14893
  2 C    -0.49630    1.33082   -1.11747
  3 C    -4.11174    0.30786    2.86926
  4 C     0.31892    0.22849   -1.85031
  5 C     0.03815    3.52433    0.18222
  6 C     3.86238   -2.12845   -0.87497
  7 C     0.33189   -1.32915    1.49264
  8 C    -1.48450   -2.52706   -2.53936
  9 C    -2.62404    1.99593    1.17293
 10 C    -3.42251   -1.73700   -0.39568
 11 C    -1.48168    3.90183   -0.34645
 12 C    -0.02665    1.21777   -1.88559
 13 C    -2.75681   -1.27852   -0.71812
 14 C    -0.96195   -0.85551    0.18906
 15 C    -2.69309   -2.88396    1.14185
 16 C    -0.47208   -0.56737   -0.58335
 17 C     0.44954    1.19004   -2.29033
 18 C     2.90401    1.00072   -0.21196
 19 C    -5.74198   -4.66662    1.62249
 20 C     4.31999   -0.07894    0.56518
 21 C     3.21795   -1.58358    1.95418
 22 C     0.05728    0.63766    0.60349
 23 C     0.52782   -3.21062    1.66389

System changes: positions 

Initializing position-dependent things.

Density initialized from wave functions
           .--------------------------------------.  
          /|                                      |  
         / |                                      |  
        /  |                                      |  
       /   |                                      |  
      /    |                                      |  
     /     |                                      |  
    /      |                                      |  
   /       |               C                      |  
  /        |                                      |  
 *         |   C  C    C   C  C  C                |  
 |         |    C C  C          C                 |  
 |         .---------C--C--CC-C-------------------.  
 |        /       C     C  C                     /   
 |       /     C     CC                         /    
 |      /                                      /     
 |     /                                      /      
 |    /                                      /       
 |   /                                      /        
 |  /                                      /         
 | /                                      /          
 |/                                      /           
 *--------------------------------------*            

Positions:
   0 C      9.815154    3.693281    5.240707
   1 C      5.779859    9.187896    4.711580
   2 C      9.204112    7.030881    4.896003
   3 C      7.519075    4.324799    4.494650
   4 C      7.887421    5.559735    5.678717
   5 C      6.192956    7.331757    4.346679
   6 C      3.412930    8.401079    5.489564
   7 C      6.500468   10.454423    4.636968
   8 C      7.650687   11.581015    5.636876
   9 C      4.162086    7.209235    5.040238
  10 C      4.632426    9.034799    5.446334
  11 C      8.115150   10.569282    4.732179
  12 C      7.282497    3.110504    5.368910
  13 C      5.203088    6.325426    5.486865
  14 C      5.596156    5.034805    4.892322
  15 C     10.152662   10.809253    4.704054
  16 C      4.418993    4.886004    4.322592
  17 C      9.539152    9.207428    5.576545
  18 C     10.291152    6.272788    4.966945
  19 C      8.626089    3.395620    5.449633
  20 C      6.282900    7.222305    5.769133
  21 C      8.236969    9.158278    4.895026
  22 C     10.411175    8.523870    4.755778
  23 C      9.247071    5.381401    5.237113

Unit cell:
           periodic     x           y           z      points  spacing
  1. axis:    yes   16.000000    0.000000    0.000000    80     0.2000
  2. axis:    yes    0.000000   16.000000    0.000000    80     0.2000
  3. axis:    yes    0.000000    0.000000   10.000000    48     0.2083

Effective grid spacing dv^(1/3) = 0.2027

                     log10-error:    total        iterations:
           time      wfs    density  energy       fermi  poisson
iter:   1  14:13:59          +inf  -145.784355    3      5      
iter:   2  14:14:00         -1.52  -145.365668    2      2      
iter:   3  14:14:01         -1.86  -145.299437    3      2      
iter:   4  14:14:01         -2.02  -145.273703    3      2      
iter:   5  14:14:02         -2.22  -145.268937    2      2      
iter:   6  14:14:02         -2.29  -145.263529    3      2      
iter:   7  14:14:03         -2.51  -145.262406    3      2      
iter:   8  14:14:03         -2.74  -145.263344    2      2      
iter:   9  14:14:04         -2.88  -145.260857    2      1      
iter:  10  14:14:04         -2.98  -145.263398    2      2      
iter:  11  14:14:05         -3.17  -145.262208    2      1      
iter:  12  14:14:05         -3.34  -145.260986    2      1      
iter:  13  14:14:06         -3.46  -145.262672    2      1      
iter:  14  14:14:06         -3.58  -145.263568    2      1      
iter:  15  14:14:07         -3.76  -145.263570    2      1      
iter:  16  14:14:07         -3.91  -145.263722    2      1      
iter:  17  14:14:08         -4.05  -145.263664    2      1      

Converged after 17 iterations.

Dipole moment: (-0.228994, 0.590582, 0.228377) |e|*Ang

Energy contributions relative to reference atoms: (reference = -24663.074771)

Kinetic:       +103.952095
Potential:     -105.495320
External:        +0.000000
XC:            -146.201046
Entropy (-ST):   -0.295190
Local:           +2.628203
--------------------------
Free energy:   -145.411259
Extrapolated:  -145.263664

Fermi level: -5.03506

 Band  Eigenvalues  Occupancy
    0    -24.26669    2.00000
    1    -23.59259    2.00000
    2    -22.80234    2.00000
    3    -22.24171    2.00000
    4    -21.66611    2.00000
    5    -20.61441    2.00000
    6    -19.91881    2.00000
    7    -19.11334    2.00000
    8    -18.56295    2.00000
    9    -18.01117    2.00000
   10    -16.91836    2.00000
   11    -16.48621    2.00000
   12    -15.63419    2.00000
   13    -14.73754    2.00000
   14    -14.48436    2.00000
   15    -13.54058    2.00000
   16    -13.41200    2.00000
   17    -12.79223    2.00000
   18    -12.45962    2.00000
   19    -12.06858    2.00000
   20    -11.40516    2.00000
   21    -11.02046    2.00000
   22    -10.79486    2.00000
   23    -10.52438    2.00000
   24    -10.27604    2.00000
   25    -10.20643    2.00000
   26    -10.05425    2.00000
   27     -9.48114    2.00000
   28     -9.14024    2.00000
   29     -8.92449    2.00000
   30     -8.69390    2.00000
   31     -8.40156    2.00000
   32     -8.22723    2.00000
   33     -7.80054    2.00000
   34     -7.68674    2.00000
   35     -7.47331    2.00000
   36     -7.21620    2.00000
   37     -7.04312    2.00000
   38     -6.98757    2.00000
   39     -6.58074    2.00000
   40     -6.45591    2.00000
   41     -6.33865    2.00000
   42     -6.08089    1.99994
   43     -5.88599    1.99960
   44     -5.67188    1.99658
   45     -5.54960    1.98842
   46     -5.40423    1.95135
   47     -5.11939    1.39832
   48     -4.96012    0.64193
   49     -4.56861    0.01867
   50     -4.43088    0.00474
   51     -4.18568    0.00041
   52     -3.94418    0.00004
   53     -3.74149    0.00000
   54     -3.65331    0.00000
   55     -3.13836    0.00000
   56     -3.01566    0.00000
   57     -2.85221    0.00000
   58     -2.56246    0.00000
   59     -2.08745    0.00000
   60     -1.93739    0.00000
   61     -1.65357    0.00000
   62     -1.46778    0.00000
   63     -1.31782    0.00000
   64     -1.11525    0.00000
   65     -0.40631    0.00000
   66     -0.32801    0.00000
   67      0.21376    0.00000
   68      0.54890    0.00000
   69      0.89237    0.00000
   70      1.25080    0.00000
   71      1.35797    0.00000
   72      1.51047    0.00000
   73      2.47500    0.00000
   74      2.74906    0.00000
   75      3.44015    0.00000
   76      3.65489    0.00000
   77      4.04806    0.00000
   78      4.98561    0.00000
   79      5.21304    0.00000
   80      5.49809    0.00000
   81      6.05278    0.00000
   82      6.39796    0.00000
   83      6.72460    0.00000
   84      7.10627    0.00000
   85      7.40744    0.00000
   86      7.49866    0.00000
   87      7.74272    0.00000
   88      7.95135    0.00000
   89      8.35872    0.00000
   90      8.61589    0.00000
   91      8.72714    0.00000
   92      8.81503    0.00000
   93      8.92429    0.00000
   94      9.12131    0.00000
   95      9.24815    0.00000
   96      9.34780    0.00000
   97      9.44874    0.00000


Forces in eV/Ang:
  0 C     5.10756    3.16635   -0.15959
  1 C     2.10868    3.77801    0.10508
  2 C    -0.21907    1.02709   -1.07768
  3 C    -4.37295    0.70182    3.15039
  4 C     0.32153    0.26546   -2.12930
  5 C     0.14126    3.38176    0.41123
  6 C     2.72228   -2.01128   -0.73762
  7 C     0.30435   -0.92078    1.46105
  8 C    -1.74176   -1.98709   -2.11935
  9 C    -1.94838    1.24993    1.20034
 10 C    -2.01186   -1.05665   -0.67883
 11 C    -1.22158    2.58264   -0.54040
 12 C     0.10130    0.93959   -1.77704
 13 C    -2.15112   -0.68627   -0.77172
 14 C    -0.85626   -0.80339    0.05965
 15 C    -2.57485   -2.96888    1.17300
 16 C    -0.49686   -0.54368   -0.54903
 17 C     0.81448    1.53908   -1.88450
 18 C     1.95102    1.03095   -0.09106
 19 C    -3.85669   -4.24128    1.10689
 20 C     3.57967   -0.68166    0.22713
 21 C     2.89253   -1.04029    1.63961
 22 C     0.34175    0.45600    0.36111
 23 C     1.15473   -3.19689    1.61242

System changes: positions 

Initializing position-dependent things.

Density initialized from wave functions
           .--------------------------------------.  
          /|                                      |  
         / |                                      |  
        /  |                                      |  
       /   |                                      |  
      /    |                                      |  
     /     |                                      |  
    /      |                                      |  
   /       |               C                      |  
  /        |                                      |  
 *         |   C  C    C   C  C C                 |  
 |         |    C C  C          C                 |  
 |         .---------C--C--CC-C-------------------.  
 |        /       C     C  C                     /   
 |       /     C     CC                         /    
 |      /                                      /     
 |     /                                      /      
 |    /                                      /       
 |   /                                      /        
 |  /                                      /         
 | /                                      /          
 |/                                      /           
 *--------------------------------------*            

Positions:
   0 C      9.822720    3.713428    5.244681
   1 C      5.788268    9.213996    4.716202
   2 C      9.205156    7.035102    4.888629
   3 C      7.486829    4.331406    4.517378
   4 C      7.889710    5.562040    5.662824
   5 C      6.194103    7.355921    4.350918
   6 C      3.429394    8.386851    5.484642
   7 C      6.502476   10.448771    4.647482
   8 C      7.637382   11.568135    5.622658
   9 C      4.150399    7.216072    5.049272
  10 C      4.626068    9.028856    5.437342
  11 C      8.106971   10.581391    4.728034
  12 C      7.281335    3.115026    5.356696
  13 C      5.191596    6.325092    5.481549
  14 C      5.590720    5.028905    4.892547
  15 C     10.134272   10.787508    4.712590
  16 C      4.415151    4.882066    4.318613
  17 C      9.545948    9.219709    5.564078
  18 C     10.298690    6.280547    4.966986
  19 C      8.628757    3.369711    5.452574
  20 C      6.303836    7.213258    5.768547
  21 C      8.257127    9.155066    4.905831
  22 C     10.414616    8.526575    4.757647
  23 C      9.259307    5.360367    5.247689

Unit cell:
           periodic     x           y           z      points  spacing
  1. axis:    yes   16.000000    0.000000    0.000000    80     0.2000
  2. axis:    yes    0.000000   16.000000    0.000000    80     0.2000
  3. axis:    yes    0.000000    0.000000   10.000000    48     0.2083

Effective grid spacing dv^(1/3) = 0.2027

                     log10-error:    total        iterations:
           time      wfs    density  energy       fermi  poisson
iter:   1  14:14:10          +inf  -146.941022    3      5      
iter:   2  14:14:10         -1.66  -146.746615    3      2      
iter:   3  14:14:11         -1.98  -146.717518    3      2      
iter:   4  14:14:11         -2.12  -146.698512    2      2      
iter:   5  14:14:12         -2.34  -146.696458    2      2      
iter:   6  14:14:12         -2.43  -146.693136    2      2      
iter:   7  14:14:13         -2.65  -146.692545    3      2      
iter:   8  14:14:13         -2.91  -146.691646    2      1      
iter:   9  14:14:14         -2.99  -146.693743    2      2      
iter:  10  14:14:14         -3.17  -146.693334    2      1      
iter:  11  14:14:15         -3.27  -146.692544    2      1      
iter:  12  14:14:15         -3.47  -146.694293    2      1      
iter:  13  14:14:16         -3.51  -146.694168    2      1      
iter:  14  14:14:16         -3.61  -146.692760    2      1      
iter:  15  14:14:17         -3.82  -146.692862    2      1      
iter:  16  14:14:17         -4.15  -146.693657    2      1      

Converged after 16 iterations.

Dipole moment: (-0.230391, 0.538554, 0.226845) |e|*Ang

Energy contributions relative to reference atoms: (reference = -24663.074771)

Kinetic:       +102.790335
Potential:     -104.867564
External:        +0.000000
XC:            -147.111676
Entropy (-ST):   -0.292827
Local:           +2.641661
--------------------------
Free energy:   -146.840071
Extrapolated:  -146.693657

Fermi level: -5.03835

 Band  Eigenvalues  Occupancy
    0    -24.11382    2.00000
    1    -23.44704    2.00000
    2    -22.86814    2.00000
    3    -22.10248    2.00000
    4    -21.73633    2.00000
    5    -20.78681    2.00000
    6    -19.90393    2.00000
    7    -19.16452    2.00000
    8    -18.54642    2.00000
    9    -17.95719    2.00000
   10    -16.92308    2.00000
   11    -16.52572    2.00000
   12    -15.67297    2.00000
   13    -14.74290    2.00000
   14    -14.50800    2.00000
   15    -13.60221    2.00000
   16    -13.45914    2.00000
   17    -12.85234    2.00000
   18    -12.33050    2.00000
   19    -12.13876    2.00000
   20    -11.41117    2.00000
   21    -10.96632    2.00000
   22    -10.77308    2.00000
   23    -10.57685    2.00000
   24    -10.30780    2.00000
   25    -10.26490    2.00000
   26    -10.06713    2.00000
   27     -9.50652    2.00000
   28     -9.17958    2.00000
   29     -8.97308    2.00000
   30     -8.70948    2.00000
   31     -8.39211    2.00000
   32     -8.30263    2.00000
   33     -7.80490    2.00000
   34     -7.67546    2.00000
   35     -7.43258    2.00000
   36     -7.24945    2.00000
   37     -7.05357    2.00000
   38     -6.98909    2.00000
   39     -6.57279    2.00000
   40     -6.46443    2.00000
   41     -6.34654    2.00000
   42     -6.09625    1.99995
   43     -5.88635    1.99958
   44     -5.64289    1.99527
   45     -5.55672    1.98885
   46     -5.41193    1.95340
   47     -5.11825    1.37952
   48     -4.96980    0.67004
   49     -4.52494    0.01172
   50     -4.31444    0.00143
   51     -4.12731    0.00022
   52     -3.86166    0.00002
   53     -3.65793    0.00000
   54     -3.55747    0.00000
   55     -3.08781    0.00000
   56     -3.01019    0.00000
   57     -2.85925    0.00000
   58     -2.52388    0.00000
   59     -1.99981    0.00000
   60     -1.88405    0.00000
   61     -1.61139    0.00000
   62     -1.44011    0.00000
   63     -1.22292    0.00000
   64     -1.04408    0.00000
   65     -0.34450    0.00000
   66     -0.27436    0.00000
   67      0.24047    0.00000
   68      0.76413    0.00000
   69      1.03205    0.00000
   70      1.37264    0.00000
   71      1.48281    0.00000
   72      1.56439    0.00000
   73      2.49818    0.00000
   74      2.79120    0.00000
   75      3.60457    0.00000
   76      3.86990    0.00000
   77      4.20833    0.00000
   78      5.17310    0.00000
   79      5.33222    0.00000
   80      5.56485    0.00000
   81      6.11820    0.00000
   82      6.54159    0.00000
   83      6.73834    0.00000
   84      7.23830    0.00000
   85      7.41897    0.00000
   86      7.48821    0.00000
   87      7.83256    0.00000
   88      8.02032    0.00000
   89      8.41427    0.00000
   90      8.70474    0.00000
   91      8.78830    0.00000
   92      8.82915    0.00000
   93      8.90697    0.00000
   94      9.14600    0.00000
   95      9.31055    0.00000
   96      9.37205    0.00000
   97      9.43840    0.00000


Forces in eV/Ang:
  0 C     3.48018    3.03706    0.18139
  1 C     1.29327    3.22685    0.23549
  2 C     0.03094    0.85235   -1.05004
  3 C    -4.66252    1.14532    3.33563
  4 C     0.37274    0.26527   -2.41257
  5 C     0.21504    3.24595    0.56122
  6 C     1.88032   -1.70493   -0.56377
  7 C     0.40144   -0.46598    1.43978
  8 C    -1.95673   -1.55245   -1.80474
  9 C    -1.35914    0.59255    1.12992
 10 C    -1.12719   -0.59492   -0.84755
 11 C    -1.02936    1.64012   -0.75495
 12 C     0.25447    0.68163   -1.65381
 13 C    -1.61614   -0.34058   -0.77658
 14 C    -0.69899   -0.78836   -0.08000
 15 C    -2.48731   -3.04756    1.22301
 16 C    -0.52147   -0.51013   -0.51807
 17 C     1.12846    1.85296   -1.54231
 18 C     1.13817    1.03161   -0.00896
 19 C    -2.45632   -3.85872    0.70441
 20 C     3.05436   -1.08104   -0.01358
 21 C     2.53693   -0.71236    1.38182
 22 C     0.57097    0.25706    0.16778
 23 C     1.64543   -3.22330    1.61155

System changes: positions 

Initializing position-dependent things.

Density initialized from wave functions
           .--------------------------------------.  
          /|                                      |  
         / |                                      |  
        /  |                                      |  
       /   |                                      |  
      /    |                                      |  
     /     |                                      |  
    /      |                                      |  
   /       |               C                      |  
  /        |                                      |  
 *         |   C  C    C   C  C C                 |  
 |         |    C C  C          C                 |  
 |         .---------C--C--CC-C-------------------.  
 |        /       C     C  C                     /   
 |       /     C     CC                         /    
 |      /                                      /     
 |     /                                      /      
 |    /                                      /       
 |   /                                      /        
 |  /                                      /         
 | /                                      /          
 |/                                      /           
 *--------------------------------------*            

Positions:
   0 C      9.828162    3.731590    5.249065
   1 C      5.793652    9.233903    4.719283
   2 C      9.206626    7.039698    4.881777
   3 C      7.454765    4.340498    4.539496
   4 C      7.892423    5.563938    5.646145
   5 C      6.195665    7.377544    4.354801
   6 C      3.440829    8.376549    5.481268
   7 C      6.506048   10.447051    4.657191
   8 C      7.623799   11.558229    5.610866
   9 C      4.142156    7.218915    5.056382
  10 C      4.621090    9.025339    5.430316
  11 C      8.100281   10.590308    4.722570
  12 C      7.281626    3.118051    5.346065
  13 C      5.183006    6.324331    5.476871
  14 C      5.586769    5.023184    4.891667
  15 C     10.117516   10.766829    4.720949
  16 C      4.411415    4.878584    4.315104
  17 C      9.554434    9.232499    5.553962
  18 C     10.303443    6.287768    4.967126
  19 C      8.631212    3.346900    5.454422
  20 C      6.322550    7.204775    5.767878
  21 C      8.273388    9.151642    4.914696
  22 C     10.418599    8.528038    4.758808
  23 C      9.271946    5.339330    5.258175

Unit cell:
           periodic     x           y           z      points  spacing
  1. axis:    yes   16.000000    0.000000    0.000000    80     0.2000
  2. axis:    yes    0.000000   16.000000    0.000000    80     0.2000
  3. axis:    yes    0.000000    0.000000   10.000000    48     0.2083

Effective grid spacing dv^(1/3) = 0.2027

                     log10-error:    total        iterations:
           time      wfs    density  energy       fermi  poisson
iter:   1  14:14:19          +inf  -148.016619    3      5      
iter:   2  14:14:20         -1.80  -147.930049    3      2      
iter:   3  14:14:20         -2.07  -147.913060    3      2      
iter:   4  14:14:21         -2.18  -147.898697    2      2      
iter:   5  14:14:21         -2.41  -147.896902    2      2      
iter:   6  14:14:22         -2.53  -147.894387    2      2      
iter:   7  14:14:22         -2.75  -147.894547    3      2      
iter:   8  14:14:23         -2.98  -147.892104    2      1      
iter:   9  14:14:23         -3.07  -147.895384    2      2      
iter:  10  14:14:24         -3.29  -147.895957    2      1      
iter:  11  14:14:24         -3.40  -147.894570    2      1      
iter:  12  14:14:25         -3.54  -147.895621    2      1      
iter:  13  14:14:25         -3.64  -147.895509    2      1      
iter:  14  14:14:26         -3.84  -147.894478    2      1      
iter:  15  14:14:26         -4.12  -147.895214    2      1      

Converged after 15 iterations.

Dipole moment: (-0.232750, 0.483278, 0.224904) |e|*Ang

Energy contributions relative to reference atoms: (reference = -24663.074771)

Kinetic:       +101.584251
Potential:     -104.139843
External:        +0.000000
XC:            -147.845470
Entropy (-ST):   -0.292976
Local:           +2.652337
--------------------------
Free energy:   -148.041702
Extrapolated:  -147.895214

Fermi level: -5.03661

 Band  Eigenvalues  Occupancy
    0    -24.00344    2.00000
    1    -23.31912    2.00000
    2    -22.92003    2.00000
    3    -21.96139    2.00000
    4    -21.77462    2.00000
    5    -20.91363    2.00000
    6    -19.89434    2.00000
    7    -19.18622    2.00000
    8    -18.53451    2.00000
    9    -17.91090    2.00000
   10    -16.91492    2.00000
   11    -16.55888    2.00000
   12    -15.70094    2.00000
   13    -14.78354    2.00000
   14    -14.49593    2.00000
   15    -13.68705    2.00000
   16    -13.50083    2.00000
   17    -12.88218    2.00000
   18    -12.23389    2.00000
   19    -12.17899    2.00000
   20    -11.42220    2.00000
   21    -10.92791    2.00000
   22    -10.73988    2.00000
   23    -10.61215    2.00000
   24    -10.34361    2.00000
   25    -10.30108    2.00000
   26    -10.09055    2.00000
   27     -9.53032    2.00000
   28     -9.21974    2.00000
   29     -9.00471    2.00000
   30     -8.71470    2.00000
   31     -8.38601    2.00000
   32     -8.35260    2.00000
   33     -7.80844    2.00000
   34     -7.67423    2.00000
   35     -7.39470    2.00000
   36     -7.29618    2.00000
   37     -7.09113    2.00000
   38     -6.96794    2.00000
   39     -6.56758    2.00000
   40     -6.46252    2.00000
   41     -6.34878    2.00000
   42     -6.11941    1.99996
   43     -5.88107    1.99957
   44     -5.61402    1.99381
   45     -5.57587    1.99094
   46     -5.40895    1.95283
   47     -5.11223    1.36104
   48     -4.97323    0.69327
   49     -4.48293    0.00785
   50     -4.22517    0.00060
   51     -4.07185    0.00013
   52     -3.77933    0.00001
   53     -3.58164    0.00000
   54     -3.47560    0.00000
   55     -3.05083    0.00000
   56     -3.00571    0.00000
   57     -2.86037    0.00000
   58     -2.48981    0.00000
   59     -1.96198    0.00000
   60     -1.82207    0.00000
   61     -1.58839    0.00000
   62     -1.39708    0.00000
   63     -1.12932    0.00000
   64     -0.96782    0.00000
   65     -0.31170    0.00000
   66     -0.21403    0.00000
   67      0.24459    0.00000
   68      0.92204    0.00000
   69      1.18199    0.00000
   70      1.41835    0.00000
   71      1.60992    0.00000
   72      1.73377    0.00000
   73      2.37182    0.00000
   74      3.03242    0.00000
   75      3.73637    0.00000
   76      4.02847    0.00000
   77      4.43476    0.00000
   78      5.20207    0.00000
   79      5.45963    0.00000
   80      5.61499    0.00000
   81      6.19535    0.00000
   82      6.62785    0.00000
   83      6.72885    0.00000
   84      7.27019    0.00000
   85      7.40929    0.00000
   86      7.54377    0.00000
   87      7.88749    0.00000
   88      8.04878    0.00000
   89      8.45930    0.00000
   90      8.73012    0.00000
   91      8.83225    0.00000
   92      8.84710    0.00000
   93      8.93070    0.00000
   94      9.15369    0.00000
   95      9.36081    0.00000
   96      9.39821    0.00000
   97      9.42648    0.00000


Forces in eV/Ang:
  0 C     2.18868    2.84909    0.50634
  1 C     0.68393    2.71120    0.33568
  2 C     0.25219    0.81716   -1.06549
  3 C    -4.95490    1.61295    3.56096
  4 C     0.40207    0.24707   -2.67544
  5 C     0.26603    3.13586    0.68904
  6 C     1.22464   -1.42972   -0.43106
  7 C     0.50943   -0.10563    1.41115
  8 C    -2.13243   -1.20517   -1.54642
  9 C    -0.89898    0.08121    1.02933
 10 C    -0.45527   -0.21592   -0.94142
 11 C    -0.84508    0.92376   -0.90569
 12 C     0.39795    0.46180   -1.54047
 13 C    -1.18782   -0.10208   -0.77167
 14 C    -0.50876   -0.80893   -0.22687
 15 C    -2.42633   -3.10954    1.26356
 16 C    -0.53695   -0.47148   -0.48360
 17 C     1.38143    2.11265   -1.27447
 18 C     0.46448    0.99146    0.06520
 19 C    -1.35522   -3.48032    0.34193
 20 C     2.64434   -1.36737   -0.21432
 21 C     2.22200   -0.48029    1.18058
 22 C     0.72286    0.05064    0.01898
 23 C     2.05354   -3.29303    1.63200

System changes: positions 

Initializing position-dependent things.

Density initialized from wave functions
           .--------------------------------------.  
          /|                                      |  
         / |                                      |  
        /  |                                      |  
       /   |                                      |  
      /    |                                      |  
     /     |                                      |  
    /      |                                      |  
   /       |               C                      |  
  /        |                                      |  
 *         |   C  C    C   C  C C                 |  
 |         |    C C  C          C                 |  
 |         .---------C--C--CC-C-------------------.  
 |        /       C     C  C                     /   
 |       /     C     CC                         /    
 |      /                                      /     
 |     /                                      /      
 |    /                                      /       
 |   /                                      /        
 |  /                                      /         
 | /                                      /          
 |/                                      /           
 *--------------------------------------*            

Positions:
   0 C      9.832433    3.747532    5.254001
   1 C      5.797668    9.249626    4.721623
   2 C      9.208535    7.045181    4.875046
   3 C      7.423157    4.351533    4.561386
   4 C      7.895141    5.565431    5.629247
   5 C      6.197298    7.397318    4.358526
   6 C      3.449680    8.368698    5.478680
   7 C      6.510522   10.447220    4.666135
   8 C      7.610437   11.550040    5.600637
   9 C      4.135758    7.219869    5.062002
  10 C      4.616760    9.023156    5.424659
  11 C      8.094771   10.597596    4.716831
  12 C      7.282816    3.120153    5.336631
  13 C      5.176152    6.323194    5.472712
  14 C      5.584226    5.017420    4.889970
  15 C     10.101942   10.747255    4.728987
  16 C      4.407878    4.875529    4.312008
  17 C      9.563474    9.245276    5.545237
  18 C     10.306313    6.294146    4.967403
  19 C      8.633384    3.326881    5.455310
  20 C      6.339610    7.196972    5.767035
  21 C      8.287050    9.148099    4.922411
  22 C     10.422479    8.528421    4.759622
  23 C      9.284680    5.318558    5.268471

Unit cell:
           periodic     x           y           z      points  spacing
  1. axis:    yes   16.000000    0.000000    0.000000    80     0.2000
  2. axis:    yes    0.000000   16.000000    0.000000    80     0.2000
  3. axis:    yes    0.000000    0.000000   10.000000    48     0.2083

Effective grid spacing dv^(1/3) = 0.2027

                     log10-error:    total        iterations:
           time      wfs    density  energy       fermi  poisson
iter:   1  14:14:28          +inf  -149.045809    3      5      
iter:   2  14:14:29         -1.91  -149.000911    3      2      
iter:   3  14:14:29         -2.11  -148.986948    3      2      
iter:   4  14:14:30         -2.23  -148.974738    2      2      
iter:   5  14:14:30         -2.45  -148.972874    2      2      
iter:   6  14:14:31         -2.60  -148.970728    2      2      
iter:   7  14:14:31         -2.82  -148.971304    2      2      
iter:   8  14:14:32         -3.02  -148.968414    2      1      
iter:   9  14:14:32         -3.12  -148.968353    2      1      
iter:  10  14:14:33         -3.32  -148.971941    2      1      
iter:  11  14:14:33         -3.45  -148.970364    2      1      
iter:  12  14:14:34         -3.61  -148.971490    2      1      
iter:  13  14:14:34         -3.83  -148.971962    2      1      
iter:  14  14:14:35         -3.94  -148.971786    2      1      
iter:  15  14:14:35         -4.21  -148.972088    2      1      

Converged after 15 iterations.

Dipole moment: (-0.236572, 0.425678, 0.222348) |e|*Ang

Energy contributions relative to reference atoms: (reference = -24663.074771)

Kinetic:       +100.307699
Potential:     -103.319406
External:        +0.000000
XC:            -148.476102
Entropy (-ST):   -0.292984
Local:           +2.662214
--------------------------
Free energy:   -149.118580
Extrapolated:  -148.972088

Fermi level: -5.03049

 Band  Eigenvalues  Occupancy
    0    -23.91965    2.00000
    1    -23.20419    2.00000
    2    -22.96016    2.00000
    3    -21.82332    2.00000
    4    -21.79467    2.00000
    5    -21.00821    2.00000
    6    -19.88887    2.00000
    7    -19.19397    2.00000
    8    -18.52958    2.00000
    9    -17.87096    2.00000
   10    -16.89857    2.00000
   11    -16.58611    2.00000
   12    -15.72492    2.00000
   13    -14.82581    2.00000
   14    -14.48160    2.00000
   15    -13.77965    2.00000
   16    -13.54188    2.00000
   17    -12.89308    2.00000
   18    -12.22441    2.00000
   19    -12.13721    2.00000
   20    -11.43663    2.00000
   21    -10.90345    2.00000
   22    -10.71563    2.00000
   23    -10.62748    2.00000
   24    -10.38302    2.00000
   25    -10.31915    2.00000
   26    -10.11627    2.00000
   27     -9.55398    2.00000
   28     -9.25987    2.00000
   29     -9.02393    2.00000
   30     -8.71341    2.00000
   31     -8.38832    2.00000
   32     -8.37708    2.00000
   33     -7.81074    2.00000
   34     -7.67775    2.00000
   35     -7.37567    2.00000
   36     -7.33312    2.00000
   37     -7.12314    2.00000
   38     -6.95294    2.00000
   39     -6.56970    2.00000
   40     -6.45626    2.00000
   41     -6.34680    2.00000
   42     -6.14489    1.99997
   43     -5.87032    1.99955
   44     -5.60192    1.99342
   45     -5.58934    1.99255
   46     -5.40076    1.95187
   47     -5.10302    1.34753
   48     -4.97063    0.70930
   49     -4.43940    0.00540
   50     -4.15704    0.00032
   51     -4.01945    0.00008
   52     -3.69773    0.00000
   53     -3.50984    0.00000
   54     -3.40322    0.00000
   55     -3.02842    0.00000
   56     -2.98887    0.00000
   57     -2.85264    0.00000
   58     -2.45955    0.00000
   59     -1.95120    0.00000
   60     -1.76109    0.00000
   61     -1.58235    0.00000
   62     -1.34196    0.00000
   63     -1.05204    0.00000
   64     -0.88536    0.00000
   65     -0.29585    0.00000
   66     -0.14997    0.00000
   67      0.23398    0.00000
   68      1.04504    0.00000
   69      1.32133    0.00000
   70      1.44058    0.00000
   71      1.78533    0.00000
   72      1.94128    0.00000
   73      2.27725    0.00000
   74      3.28269    0.00000
   75      3.84722    0.00000
   76      4.16809    0.00000
   77      4.69021    0.00000
   78      5.18558    0.00000
   79      5.51312    0.00000
   80      5.69887    0.00000
   81      6.28636    0.00000
   82      6.66236    0.00000
   83      6.73973    0.00000
   84      7.26328    0.00000
   85      7.40567    0.00000
   86      7.60479    0.00000
   87      7.93271    0.00000
   88      8.06366    0.00000
   89      8.48741    0.00000
   90      8.70557    0.00000
   91      8.85805    0.00000
   92      8.89901    0.00000
   93      8.96101    0.00000
   94      9.16537    0.00000
   95      9.39123    0.00000
   96      9.41696    0.00000
   97      9.42908    0.00000


Forces in eV/Ang:
  0 C     1.09725    2.60049    0.71005
  1 C     0.18258    2.27871    0.43325
  2 C     0.47335    0.87802   -1.10144
  3 C    -5.22019    2.01973    3.72899
  4 C     0.48661    0.17620   -2.93367
  5 C     0.30938    3.06784    0.80181
  6 C     0.65650   -1.17334   -0.26702
  7 C     0.59742    0.16311    1.41266
  8 C    -2.26704   -0.92050   -1.32763
  9 C    -0.51434   -0.32406    0.92098
 10 C     0.07246    0.09398   -1.03471
 11 C    -0.66820    0.35229   -1.03493
 12 C     0.53699    0.30209   -1.41901
 13 C    -0.81301    0.08550   -0.74886
 14 C    -0.31086   -0.84200   -0.37819
 15 C    -2.37905   -3.13460    1.29504
 16 C    -0.53772   -0.43770   -0.44369
 17 C     1.60950    2.35904   -1.07314
 18 C    -0.13374    0.89368    0.12741
 19 C    -0.46626   -3.11286    0.07935
 20 C     2.30316   -1.55827   -0.37692
 21 C     1.91300   -0.28725    1.02063
 22 C     0.80727   -0.16565   -0.10560
 23 C     2.33772   -3.29972    1.66271

System changes: positions 

Initializing position-dependent things.

[...]
   11    -17.10656    2.00000
   12    -16.43167    2.00000
   13    -15.64336    2.00000
   14    -15.47186    2.00000
   15    -15.02171    2.00000
   16    -14.41449    2.00000
   17    -13.73898    2.00000
   18    -13.21607    2.00000
   19    -12.92116    2.00000
   20    -12.34491    2.00000
   21    -11.85296    2.00000
   22    -11.52613    2.00000
   23    -10.89049    2.00000
   24    -10.77031    2.00000
   25    -10.65707    2.00000
   26    -10.36986    2.00000
   27    -10.30236    2.00000
   28    -10.27914    2.00000
   29     -9.86354    2.00000
   30     -9.80779    2.00000
   31     -9.74654    2.00000
   32     -9.55962    2.00000
   33     -9.22740    2.00000
   34     -9.16514    2.00000
   35     -8.64369    2.00000
   36     -8.10120    2.00000
   37     -7.68982    2.00000
   38     -6.97924    2.00000
   39     -6.83439    2.00000
   40     -6.50524    2.00000
   41     -6.35051    2.00000
   42     -6.19828    2.00000
   43     -5.52448    1.99984
   44     -5.17599    1.99486
   45     -4.96259    1.95743
   46     -4.72946    1.63421
   47     -4.69484    1.51926
   48     -4.55794    0.89126
   49     -3.93319    0.00311
   50     -3.47474    0.00003
   51     -3.23330    0.00000
   52     -2.83226    0.00000
   53     -2.70481    0.00000
   54     -2.12581    0.00000
   55     -1.98874    0.00000
   56     -1.88999    0.00000
   57     -0.83634    0.00000
   58     -0.03935    0.00000
   59      0.61083    0.00000
   60      1.62629    0.00000
   61      1.83945    0.00000
   62      2.23471    0.00000
   63      2.51028    0.00000
   64      2.64969    0.00000
   65      3.16064    0.00000
   66      3.36588    0.00000
   67      3.59530    0.00000
   68      3.69710    0.00000
   69      3.84438    0.00000
   70      4.15639    0.00000
   71      4.68764    0.00000
   72      5.04004    0.00000
   73      5.59987    0.00000
   74      6.25596    0.00000
   75      6.59805    0.00000
   76      6.86370    0.00000
   77      7.27544    0.00000
   78      7.31001    0.00000
   79      7.57571    0.00000
   80      7.86102    0.00000
   81      8.32927    0.00000
   82      8.41640    0.00000
   83      8.53030    0.00000
   84      8.70979    0.00000
   85      8.89574    0.00000
   86      9.09871    0.00000
   87      9.15821    0.00000
   88      9.29250    0.00000
   89      9.34674    0.00000
   90      9.41769    0.00000
   91      9.52566    0.00000
   92      9.76521    0.00000
   93      9.82133    0.00000
   94      9.93313    0.00000
   95     10.10298    0.00000
   96     10.20995    0.00000
   97     10.35796    0.00000


Forces in eV/Ang:
  0 C    -0.01087    0.02029   -0.04041
  1 C    -0.06943   -0.03493   -0.04658
  2 C     0.07952    0.02076   -0.00765
  3 C    -0.00503    0.02890    0.03461
  4 C    -0.02898   -0.02714    0.02261
  5 C     0.02692    0.02747    0.01907
  6 C    -0.03381    0.03117   -0.04536
  7 C     0.04179    0.03098    0.03719
  8 C    -0.01142    0.02831    0.00256
  9 C     0.03542   -0.02649   -0.01281
 10 C     0.03466    0.07080    0.04314
 11 C     0.05383   -0.02977   -0.04002
 12 C     0.00355    0.01177   -0.01791
 13 C     0.04818   -0.02422    0.03606
 14 C     0.00351   -0.06652   -0.05534
 15 C    -0.03058    0.02932   -0.00224
 16 C     0.10313    0.06036    0.07199
 17 C     0.05536    0.01071    0.08482
 18 C    -0.09378    0.00495   -0.03283
 19 C    -0.02342    0.02704    0.00843
 20 C    -0.02405   -0.09349   -0.07976
 21 C    -0.06940    0.06783   -0.03925
 22 C    -0.08377   -0.06163    0.06801
 23 C    -0.01157    0.07401   -0.02807

System changes: positions 

Initializing position-dependent things.

Density initialized from wave functions
           .--------------------------------------.  
          /|                                      |  
         / |                                      |  
        /  |                                      |  
       /   |                                      |  
      /    |                                      |  
     /     |                                      |  
    /      |                                      |  
   /       |             C                        |  
  /        |            C  C  C                   |  
 *         |       C  C       C                   |  
 |         |    C       C   C C  C                |  
 |         .---C---C--CC--C--C--------------------.  
 |        /   C  C  C     C                      /   
 |       /          C  C                        /    
 |      /                                      /     
 |     /                                      /      
 |    /                                      /       
 |   /                                      /        
 |  /                                      /         
 | /                                      /          
 |/                                      /           
 *--------------------------------------*            

Positions:
   0 C      9.441016    3.697666    5.455778
   1 C      6.352345    9.256558    5.133972
   2 C      9.928280    7.506069    4.988321
   3 C      6.609876    4.245571    5.115670
   4 C      7.626768    5.385892    5.142524
   5 C      7.380808    8.128900    5.089743
   6 C      4.091690    8.037096    5.073249
   7 C      6.638578   10.648633    5.113500
   8 C      6.569159   12.014071    5.090079
   9 C      4.233022    6.662030    4.972483
  10 C      5.001902    8.917796    5.146332
  11 C      7.909103   11.487535    4.980717
  12 C      7.051788    2.899976    5.241038
  13 C      5.612151    6.296291    5.032374
  14 C      5.333178    4.884695    5.005854
  15 C      9.054925   10.900391    4.843413
  16 C      3.916155    5.189699    4.778349
  17 C      9.581044    9.629559    4.872746
  18 C      9.867412    6.213749    5.189571
  19 C      8.361831    2.955097    5.369228
  20 C      6.949059    6.703461    5.071037
  21 C      8.741429    8.440484    5.062462
  22 C     10.690402    8.762281    4.692569
  23 C      9.055160    5.078260    5.276770

Unit cell:
           periodic     x           y           z      points  spacing
  1. axis:    yes   16.000000    0.000000    0.000000    80     0.2000
  2. axis:    yes    0.000000   16.000000    0.000000    80     0.2000
  3. axis:    yes    0.000000    0.000000   10.000000    48     0.2083

Effective grid spacing dv^(1/3) = 0.2027

                     log10-error:    total        iterations:
           time      wfs    density  energy       fermi  poisson
iter:   1  14:27:16          +inf  -179.710147    3      5      
iter:   2  14:27:16         -2.11  -179.686947    3      2      
iter:   3  14:27:17         -2.45  -179.680043    3      1      
iter:   4  14:27:18         -2.76  -179.677321    3      1      
iter:   5  14:27:18         -2.80  -179.675697    3      1      
iter:   6  14:27:19         -3.00  -179.678190    2      2      
iter:   7  14:27:19         -3.14  -179.676504    3      1      
iter:   8  14:27:20         -3.34  -179.676312    2      1      
iter:   9  14:27:20         -3.54  -179.677156    2      1      
iter:  10  14:27:21         -3.67  -179.677308    2      1      
iter:  11  14:27:21         -3.78  -179.677298    2      1      
iter:  12  14:27:22         -3.92  -179.677405    2      1      
iter:  13  14:27:22         -3.97  -179.677241    2      1      
iter:  14  14:27:23         -4.18  -179.677730    2      1      

Converged after 14 iterations.

Dipole moment: (0.007536, 0.198055, 0.068615) |e|*Ang

Energy contributions relative to reference atoms: (reference = -24663.074771)

Kinetic:       +114.193755
Potential:     -119.459494
External:        +0.000000
XC:            -177.193694
Entropy (-ST):   -0.369262
Local:           +2.966334
--------------------------
Free energy:   -179.862361
Extrapolated:  -179.677730

Fermi level: -4.57132

 Band  Eigenvalues  Occupancy
    0    -23.38175    2.00000
    1    -23.14476    2.00000
    2    -22.74833    2.00000
    3    -21.78142    2.00000
    4    -21.09242    2.00000
    5    -20.37715    2.00000
    6    -20.02514    2.00000
    7    -19.19773    2.00000
    8    -19.04988    2.00000
    9    -18.57074    2.00000
   10    -18.04491    2.00000
   11    -17.10720    2.00000
   12    -16.43689    2.00000
   13    -15.64535    2.00000
   14    -15.47329    2.00000
   15    -15.01692    2.00000
   16    -14.40824    2.00000
   17    -13.73892    2.00000
   18    -13.21036    2.00000
   19    -12.92812    2.00000
   20    -12.33718    2.00000
   21    -11.86150    2.00000
   22    -11.53976    2.00000
   23    -10.89531    2.00000
   24    -10.79692    2.00000
   25    -10.67484    2.00000
   26    -10.37423    2.00000
   27    -10.29384    2.00000
   28    -10.27208    2.00000
   29     -9.86445    2.00000
   30     -9.81628    2.00000
   31     -9.77054    2.00000
   32     -9.56088    2.00000
   33     -9.22400    2.00000
   34     -9.18059    2.00000
   35     -8.64820    2.00000
   36     -8.09944    2.00000
   37     -7.68756    2.00000
   38     -6.96874    2.00000
   39     -6.83257    2.00000
   40     -6.50864    2.00000
   41     -6.35081    2.00000
   42     -6.19043    2.00000
   43     -5.52629    1.99986
   44     -5.16978    1.99498
   45     -4.96393    1.96132
   46     -4.71875    1.62740
   47     -4.68531    1.51531
   48     -4.55096    0.89855
   49     -3.90488    0.00255
   50     -3.47144    0.00003
   51     -3.23266    0.00000
   52     -2.81373    0.00000
   53     -2.70978    0.00000
   54     -2.11119    0.00000
   55     -1.97440    0.00000
   56     -1.87187    0.00000
   57     -0.82895    0.00000
   58     -0.03466    0.00000
   59      0.62100    0.00000
   60      1.64483    0.00000
   61      1.84806    0.00000
   62      2.24231    0.00000
   63      2.51858    0.00000
   64      2.64208    0.00000
   65      3.15849    0.00000
   66      3.37104    0.00000
   67      3.60142    0.00000
   68      3.72856    0.00000
   69      3.85116    0.00000
   70      4.19308    0.00000
   71      4.76116    0.00000
   72      5.07077    0.00000
   73      5.62621    0.00000
   74      6.27594    0.00000
   75      6.63073    0.00000
   76      6.88015    0.00000
   77      7.30714    0.00000
   78      7.34328    0.00000
   79      7.60108    0.00000
   80      7.86050    0.00000
   81      8.32797    0.00000
   82      8.41660    0.00000
   83      8.52470    0.00000
   84      8.71103    0.00000
   85      8.89813    0.00000
   86      9.10357    0.00000
   87      9.17200    0.00000
   88      9.30229    0.00000
   89      9.35478    0.00000
   90      9.42107    0.00000
   91      9.53444    0.00000
   92      9.77573    0.00000
   93      9.82531    0.00000
   94      9.93985    0.00000
   95     10.11175    0.00000
   96     10.22222    0.00000
   97     10.35451    0.00000


Forces in eV/Ang:
  0 C    -0.02561   -0.06801   -0.03368
  1 C     0.01020   -0.01312   -0.01362
  2 C     0.02881    0.08955   -0.01544
  3 C    -0.02619   -0.00477    0.02260
  4 C    -0.00542   -0.00910    0.01531
  5 C     0.01290    0.01949    0.00034
  6 C    -0.05286    0.02811   -0.03843
  7 C    -0.01019    0.00026    0.00591
  8 C    -0.03081    0.03368    0.00286
  9 C     0.05424    0.00538    0.03396
 10 C    -0.01204    0.05462   -0.00091
 11 C     0.04344   -0.00716   -0.00870
 12 C     0.04786   -0.00153   -0.01568
 13 C     0.03571   -0.00854   -0.02003
 14 C     0.00366    0.00059    0.02270
 15 C     0.02418    0.01952   -0.01081
 16 C    -0.10847   -0.10119    0.03115
 17 C    -0.04276    0.00402    0.04808
 18 C    -0.01593   -0.02191   -0.01689
 19 C     0.00664    0.03063    0.04107
 20 C     0.00876    0.07155   -0.03041
 21 C    -0.00048   -0.02008   -0.00948
 22 C     0.02528   -0.02598    0.05267
 23 C    -0.06222    0.01763   -0.03679

System changes: positions 

Initializing position-dependent things.

Density initialized from wave functions
           .--------------------------------------.  
          /|                                      |  
         / |                                      |  
        /  |                                      |  
       /   |                                      |  
      /    |                                      |  
     /     |                                      |  
    /      |                                      |  
   /       |             C                        |  
  /        |            C  C  C                   |  
 *         |       C  C       C                   |  
 |         |    C       C   C C  C                |  
 |         .---C---C--CC--C--C--------------------.  
 |        /   C  C  C     C                      /   
 |       /          C  C                        /    
 |      /                                      /     
 |     /                                      /      
 |    /                                      /       
 |   /                                      /        
 |  /                                      /         
 | /                                      /          
 |/                                      /           
 *--------------------------------------*            

Positions:
   0 C      9.441297    3.696287    5.450736
   1 C      6.353380    9.258110    5.133453
   2 C      9.928450    7.506708    4.987102
   3 C      6.607543    4.246420    5.114786
   4 C      7.625450    5.387162    5.145280
   5 C      7.381296    8.129783    5.092077
   6 C      4.092744    8.038366    5.068559
   7 C      6.638658   10.649543    5.113913
   8 C      6.568102   12.015660    5.091087
   9 C      4.231411    6.662433    4.970170
  10 C      5.001731    8.920480    5.138038
  11 C      7.908677   11.489420    4.984229
  12 C      7.050907    2.901169    5.238509
  13 C      5.611078    6.298187    5.026869
  14 C      5.331167    4.886678    5.004677
  15 C      9.054009   10.900096    4.847624
  16 C      3.908488    5.185193    4.795316
  17 C      9.580206    9.629463    4.871130
  18 C      9.868046    6.213379    5.189267
  19 C      8.360936    2.955235    5.365250
  20 C      6.947663    6.705743    5.075355
  21 C      8.742017    8.439200    5.060968
  22 C     10.693670    8.764204    4.698033
  23 C      9.054319    5.078127    5.278448

Unit cell:
           periodic     x           y           z      points  spacing
  1. axis:    yes   16.000000    0.000000    0.000000    80     0.2000
  2. axis:    yes    0.000000   16.000000    0.000000    80     0.2000
  3. axis:    yes    0.000000    0.000000   10.000000    48     0.2083

Effective grid spacing dv^(1/3) = 0.2027

                     log10-error:    total        iterations:
           time      wfs    density  energy       fermi  poisson
iter:   1  14:27:24          +inf  -179.686664    3      5      
iter:   2  14:27:25         -2.56  -179.681572    3      1      
iter:   3  14:27:25         -2.90  -179.679790    2      1      
iter:   4  14:27:26         -3.00  -179.680347    2      1      
iter:   5  14:27:26         -3.03  -179.679433    3      2      
iter:   6  14:27:27         -2.84  -179.681853    3      1      
iter:   7  14:27:28         -2.75  -179.681594    3      1      
iter:   8  14:27:28         -2.96  -179.679882    3      1      
iter:   9  14:27:29         -3.50  -179.679607    3      1      
iter:  10  14:27:29         -3.37  -179.679550    2      1      
iter:  11  14:27:30         -3.95  -179.679252    2      1      
iter:  12  14:27:30         -3.89  -179.679318    2      1      
iter:  13  14:27:31         -3.73  -179.679230    2      1      
iter:  14  14:27:31         -4.53  -179.679105    2      1      

Converged after 14 iterations.

Dipole moment: (0.013966, 0.201381, 0.062249) |e|*Ang

Energy contributions relative to reference atoms: (reference = -24663.074771)

Kinetic:       +113.685127
Potential:     -119.080673
External:        +0.000000
XC:            -177.049679
Entropy (-ST):   -0.370865
Local:           +2.951551
--------------------------
Free energy:   -179.864538
Extrapolated:  -179.679105

Fermi level: -4.57609

 Band  Eigenvalues  Occupancy
    0    -23.37018    2.00000
    1    -23.13960    2.00000
    2    -22.74630    2.00000
    3    -21.77595    2.00000
    4    -21.08762    2.00000
    5    -20.37392    2.00000
    6    -20.02384    2.00000
    7    -19.19815    2.00000
    8    -19.04341    2.00000
    9    -18.57214    2.00000
   10    -18.04412    2.00000
   11    -17.10739    2.00000
   12    -16.43644    2.00000
   13    -15.64717    2.00000
   14    -15.47529    2.00000
   15    -15.01831    2.00000
   16    -14.41072    2.00000
   17    -13.73761    2.00000
   18    -13.21121    2.00000
   19    -12.92535    2.00000
   20    -12.33894    2.00000
   21    -11.85821    2.00000
   22    -11.53378    2.00000
   23    -10.89237    2.00000
   24    -10.78804    2.00000
   25    -10.66908    2.00000
   26    -10.37197    2.00000
   27    -10.29677    2.00000
   28    -10.27501    2.00000
   29     -9.86333    2.00000
   30     -9.81234    2.00000
   31     -9.76400    2.00000
   32     -9.56128    2.00000
   33     -9.22529    2.00000
   34     -9.17448    2.00000
   35     -8.64733    2.00000
   36     -8.09944    2.00000
   37     -7.68873    2.00000
   38     -6.97126    2.00000
   39     -6.83433    2.00000
   40     -6.50681    2.00000
   41     -6.35016    2.00000
   42     -6.19530    2.00000
   43     -5.52487    1.99985
   44     -5.17206    1.99485
   45     -4.96270    1.95898
   46     -4.72243    1.62408
   47     -4.69019    1.51569
   48     -4.55681    0.90389
   49     -3.91291    0.00263
   50     -3.47348    0.00003
   51     -3.23261    0.00000
   52     -2.82470    0.00000
   53     -2.70509    0.00000
   54     -2.11353    0.00000
   55     -1.98072    0.00000
   56     -1.87938    0.00000
   57     -0.83045    0.00000
   58     -0.03779    0.00000
   59      0.62026    0.00000
   60      1.63887    0.00000
   61      1.84246    0.00000
   62      2.23200    0.00000
   63      2.51672    0.00000
   64      2.64582    0.00000
   65      3.16079    0.00000
   66      3.37210    0.00000
   67      3.59966    0.00000
   68      3.71570    0.00000
   69      3.85346    0.00000
   70      4.17786    0.00000
   71      4.72286    0.00000
   72      5.05983    0.00000
   73      5.61674    0.00000
   74      6.26687    0.00000
   75      6.62072    0.00000
   76      6.87676    0.00000
   77      7.29537    0.00000
   78      7.33780    0.00000
   79      7.59284    0.00000
   80      7.86141    0.00000
   81      8.32787    0.00000
   82      8.41535    0.00000
   83      8.52588    0.00000
   84      8.71066    0.00000
   85      8.89767    0.00000
   86      9.10262    0.00000
   87      9.16683    0.00000
   88      9.29945    0.00000
   89      9.35119    0.00000
   90      9.42058    0.00000
   91      9.53115    0.00000
   92      9.77145    0.00000
   93      9.82442    0.00000
   94      9.93987    0.00000
   95     10.10833    0.00000
   96     10.21832    0.00000
   97     10.35952    0.00000


Forces in eV/Ang:
  0 C    -0.03014   -0.04251   -0.01890
  1 C    -0.02277   -0.02415   -0.02841
  2 C     0.05003    0.06516   -0.00745
  3 C    -0.01591    0.00636    0.02712
  4 C    -0.01723   -0.00216    0.01851
  5 C     0.01388    0.03455    0.00676
  6 C    -0.04587    0.03693   -0.03688
  7 C    -0.00172    0.02039    0.00901
  8 C    -0.01915    0.03011    0.00831
  9 C     0.06038   -0.02329    0.00576
 10 C     0.00341    0.05673    0.01679
 11 C     0.03558   -0.00955   -0.01613
 12 C     0.02887   -0.00080   -0.01728
 13 C     0.03425   -0.01478   -0.01775
 14 C     0.00594   -0.00959   -0.00453
 15 C     0.01048    0.02091   -0.00649
 16 C    -0.00457   -0.01944    0.06217
 17 C    -0.00250   -0.00272    0.05913
 18 C    -0.04097   -0.00990   -0.02340
 19 C     0.00350    0.02394    0.02568
 20 C     0.00740    0.02035   -0.03630
 21 C    -0.03489   -0.00381   -0.01955
 22 C    -0.01755   -0.03515    0.06064
 23 C    -0.03972    0.03467   -0.04074

