
  ___ ___ ___ _ _ _  
 |   |   |_  | | | | 
 | | | | | . | | | | 
 |__ |  _|___|_____|  1.3.0b1
 |___|_|             

User:   esb@s65n22.grendel.cscaa.dk
Date:   Thu Nov  9 09:32:28 2017
Arch:   x86_64
Pid:    67228
Python: 2.7.13
gpaw:   /home/esb/DFT/gpaw_git/gpaw
_gpaw:  /home/esb/DFT/gpaw_git/build/bin.linux-x86_64-2.7/gpaw-python
ase:    /home/esb/DFT/ase_git/ase (version 3.15.0b1)
numpy:  /comm/swstack/core/python/2.7.13/lib/python2.7/site-packages/numpy (version 1.13.3)
scipy:  /comm/swstack/core/python/2.7.13/lib/python2.7/site-packages/scipy (version 0.19.1)
units:  Angstrom and eV
cores:  16
Extra parameters: {'blacs': True}

Input parameters:
  basis: dzp
  gpts: [80 80 48]
  kpts: [1 1 1]
  maxiter: 99
  mixer: {backend: pulay,
          beta: 0.05,
          method: separate,
          nmaxold: 5,
          weight: 75}
  mode: lcao
  nbands: -50
  occupations: {name: fermi-dirac,
                width: 0.1}
  poissonsolver: {eps: 1e-07,
                  name: fd,
                  nn: 3,
                  relax: GS}
  xc: PBE

System changes: positions, numbers, cell, pbc, initial_charges, initial_magmoms 

Initialize ...

C-setup:
  name: Carbon
  id: 4aa54d4b901d75f77cc0ea3eec22967b
  Z: 6
  valence: 4
  core: 2
  charge: 0.0
  file: /home/esb/DFT/gpaw-setups-0.8.7929/C.PBE.gz
  cutoffs: 0.64(comp), 1.14(filt), 1.14(core), lmax=2
  valence states:
                energy  radius
    2s(2.00)   -13.751   0.635
    2p(2.00)    -5.284   0.635
    *s          13.461   0.635
    *p          21.927   0.635
    *d           0.000   0.635

  LCAO basis set for C:
    Name: dzp
    File: /home/esb/DFT/gpaw-setups-0.8.7929/C.dzp.basis.gz
    Number of radial functions: 5
    Number of spherical harmonics: 13
      l=0, rc=5.5469 Bohr: 2s-sz confined orbital
      l=1, rc=6.6719 Bohr: 2p-sz confined orbital
      l=0, rc=3.0312 Bohr: 2s-dz split-valence wave
      l=1, rc=3.7500 Bohr: 2p-dz split-valence wave
      l=2, rc=6.6719 Bohr: d-type Gaussian polarization

Reference energy: -24663.074771

Spin-paired calculation

Occupation numbers:
  Fermi-Dirac: width=0.1000 eV

Convergence criteria:
  Maximum total energy change: 0.0005 eV / electron
  Maximum integral of absolute density change: 0.0001 electrons
  Maximum integral of absolute eigenstate change: 4e-08 eV^2
  Maximum number of iterations: 99

Symmetries present (total): 1

  ( 1  0  0)
  ( 0  1  0)
  ( 0  0  1)

1 k-point (Gamma)
1 k-point in the irreducible part of the Brillouin zone
       k-points in crystal coordinates                weights
   0:     0.00000000    0.00000000    0.00000000          1/1

Wave functions: LCAO
  Diagonalizer: Serial LAPACK
  Atomic Correction: dense with blas
  Datatype: float
  Eigensolver: None 

LCAO using direct dense diagonalizer 

Densities:
  Coarse grid: 80*80*48 grid
  Fine grid: 160*160*96 grid
  Total Charge: 0.000000 

Density mixing:
  Method: separate
  Backend: pulay
  Linear mixing parameter: 0.05
  Mixing with 5 old densities
  Damping of long wave oscillations: 75 

Hamiltonian:
  XC and Coulomb potentials evaluated on a 160*160*96 grid
  Using the PBE Exchange-Correlation functional
  Interpolation: tri-quintic (5. degree polynomial)
  Poisson solver: Gauss-Seidel solver with 6 multi-grid levels
    Coarsest grid: 5 x 5 x 3 points
    Stencil: 6*3+1=19 point O(h^6) finite-difference Laplacian
    Max iterations: 1000
    Tolerance: 1.000000e-07 

Memory estimate:
  Process memory now: 79.55 MiB
  Calculator: 15.59 MiB
    Density: 6.13 MiB
      Arrays: 3.81 MiB
      Localized functions: 0.86 MiB
      Mixer: 1.46 MiB
    Hamiltonian: 5.40 MiB
      Arrays: 2.49 MiB
      XC: 0.00 MiB
      Poisson: 2.85 MiB
      vbar: 0.07 MiB
    Wavefunctions: 4.05 MiB
      C [qnM]: 0.23 MiB
      S, T [2 x qmm]: 1.49 MiB
      P [aqMi]: 0.01 MiB
      TCI: 0.00 MiB
      BasisFunctions: 2.33 MiB
      Eigensolver: 0.00 MiB

Total number of cores used: 16
Domain decomposition: 2 x 4 x 2

Number of atoms: 24
Number of atomic orbitals: 312
Number of bands in calculation: 98
Bands to converge: occupied states only
Number of valence electrons: 96

... initialized

Initializing position-dependent things.

Density initialized from atomic densities
           .--------------------------------------.  
          /|                                      |  
         / |                                      |  
        /  |                                      |  
       /   |                                      |  
      /    |                                      |  
     /     |                                      |  
    /      |                                      |  
   /       |                                      |  
  /        |     C  C         C                   |  
 *         |    C          C    C  C              |  
 |         |        C  C  C  C    C               |  
 |         .------C------C---C--C-----------------.  
 |        /         C        C                   /   
 |       /         CC     C                     /    
 |      /              C                       /     
 |     /                                      /      
 |    /                                      /       
 |   /                                      /        
 |  /                                      /         
 | /                                      /          
 |/                                      /           
 *--------------------------------------*            

Positions:
   0 C      5.945653    7.408359    5.690607
   1 C      8.324622    6.625510    4.969951
   2 C      6.542179    5.285819    4.384965
   3 C      5.564648    5.936087    5.296974
   4 C     10.200646    9.828596    4.916491
   5 C      9.381889    8.589747    4.859864
   6 C      9.628146    7.171908    5.001978
   7 C      9.242723   10.874408    4.785717
   8 C      6.173700    6.615899    3.877040
   9 C      8.008354    8.889651    4.693992
  10 C      7.234121    7.644537    4.809608
  11 C      7.910171   10.371894    4.735445
  12 C     11.575147    9.549582    5.005885
  13 C      3.768232   11.167211    4.941976
  14 C      8.506659    2.388800    4.957102
  15 C     11.696070    7.853692    4.825233
  16 C      9.563954    3.231182    5.000110
  17 C      6.333306    3.694741    4.806192
  18 C      3.669239    9.889271    4.986511
  19 C     10.182441    4.327776    4.981103
  20 C      7.271866    2.728715    4.867123
  21 C      4.754116   12.072949    4.918193
  22 C     11.085112    6.648478    4.874300
  23 C     10.027241    5.726528    4.910660

Unit cell:
           periodic     x           y           z      points  spacing
  1. axis:    yes   16.000000    0.000000    0.000000    80     0.2000
  2. axis:    yes    0.000000   16.000000    0.000000    80     0.2000
  3. axis:    yes    0.000000    0.000000   10.000000    48     0.2083

Effective grid spacing dv^(1/3) = 0.2027

                     log10-error:    total        iterations:
           time      wfs    density  energy       fermi  poisson
iter:   1  09:32:30          +inf  -163.699394    2      6      
iter:   2  09:32:30         -0.91  -162.767713    3      3      
iter:   3  09:32:31         -0.95  -161.515212    4      3      
iter:   4  09:32:32         -1.04  -160.646065    34     4      
iter:   5  09:32:32         -1.28  -160.475122    4      3      
iter:   6  09:32:33         -1.39  -160.434770    4      3      
iter:   7  09:32:33         -1.59  -160.382696    3      3      
iter:   8  09:32:34         -1.79  -160.355212    3      2      
iter:   9  09:32:34         -1.89  -160.341169    3      3      
iter:  10  09:32:35         -2.03  -160.333939    4      2      
iter:  11  09:32:35         -2.24  -160.318822    3      2      
iter:  12  09:32:36         -2.46  -160.318331    3      2      
iter:  13  09:32:36         -2.59  -160.318295    3      2      
iter:  14  09:32:37         -2.69  -160.318711    3      2      
iter:  15  09:32:37         -2.83  -160.318046    3      2      
iter:  16  09:32:38         -2.97  -160.317538    2      2      
iter:  17  09:32:38         -3.40  -160.316008    2      1      
iter:  18  09:32:39         -3.54  -160.314720    2      1      
iter:  19  09:32:39         -3.63  -160.314162    2      1      
iter:  20  09:32:40         -3.76  -160.313866    2      1      
iter:  21  09:32:40         -3.87  -160.313930    2      1      
iter:  22  09:32:40         -3.97  -160.314807    2      1      
iter:  23  09:32:41         -4.02  -160.314878    2      1      

Converged after 23 iterations.

Dipole moment: (0.223303, -0.573605, 0.021121) |e|*Ang

Energy contributions relative to reference atoms: (reference = -24663.074771)

Kinetic:        +77.018751
Potential:      -84.768661
External:        +0.000000
XC:            -155.225710
Entropy (-ST):   -0.370808
Local:           +2.846146
--------------------------
Free energy:   -160.500282
Extrapolated:  -160.314878

Fermi level: -4.73040

 Band  Eigenvalues  Occupancy
    0    -24.65686    2.00000
    1    -23.01648    2.00000
    2    -22.13985    2.00000
    3    -20.89612    2.00000
    4    -20.61032    2.00000
    5    -20.00283    2.00000
    6    -19.56504    2.00000
    7    -18.90404    2.00000
    8    -18.43174    2.00000
    9    -17.78012    2.00000
   10    -17.43812    2.00000
   11    -16.28198    2.00000
   12    -16.10490    2.00000
   13    -15.88507    2.00000
   14    -15.24905    2.00000
   15    -14.89014    2.00000
   16    -14.09469    2.00000
   17    -13.46995    2.00000
   18    -13.25331    2.00000
   19    -12.65015    2.00000
   20    -12.27243    2.00000
   21    -11.39083    2.00000
   22    -11.22176    2.00000
   23    -10.76061    2.00000
   24    -10.25094    2.00000
   25    -10.11508    2.00000
   26     -9.84155    2.00000
   27     -9.55852    2.00000
   28     -9.23678    2.00000
   29     -9.00691    2.00000
   30     -8.86731    2.00000
   31     -8.55851    2.00000
   32     -8.29118    2.00000
   33     -8.12764    2.00000
   34     -7.44779    2.00000
   35     -7.33340    2.00000
   36     -7.31883    2.00000
   37     -6.99916    2.00000
   38     -6.56965    2.00000
   39     -6.40827    2.00000
   40     -6.16601    2.00000
   41     -5.98334    1.99999
   42     -5.83062    1.99997
   43     -5.58950    1.99963
   44     -5.39519    1.99741
   45     -5.09412    1.94869
   46     -4.97433    1.83954
   47     -4.79928    1.33136
   48     -4.69715    0.83523
   49     -4.33766    0.03863
   50     -4.19026    0.00898
   51     -3.90965    0.00055
   52     -3.52003    0.00001
   53     -3.49134    0.00001
   54     -3.38358    0.00000
   55     -2.90986    0.00000
   56     -2.60193    0.00000
   57     -1.95914    0.00000
   58     -1.37129    0.00000
   59     -1.26918    0.00000
   60     -0.69037    0.00000
   61     -0.47803    0.00000
   62     -0.12389    0.00000
   63      0.62027    0.00000
   64      0.73828    0.00000
   65      0.82864    0.00000
   66      1.30094    0.00000
   67      1.83694    0.00000
   68      1.91947    0.00000
   69      2.26845    0.00000
   70      2.85077    0.00000
   71      3.07577    0.00000
   72      3.70746    0.00000
   73      4.21100    0.00000
   74      4.78146    0.00000
   75      5.17217    0.00000
   76      5.52501    0.00000
   77      6.15320    0.00000
   78      6.52625    0.00000
   79      6.75185    0.00000
   80      6.94470    0.00000
   81      7.55859    0.00000
   82      7.85699    0.00000
   83      7.89703    0.00000
   84      8.11443    0.00000
   85      8.41938    0.00000
   86      8.49577    0.00000
   87      8.67744    0.00000
   88      8.89480    0.00000
   89      8.98171    0.00000
   90      9.19189    0.00000
   91      9.32334    0.00000
   92      9.39222    0.00000
   93      9.52508    0.00000
   94      9.59369    0.00000
   95      9.78029    0.00000
   96      9.85459    0.00000
   97     10.12369    0.00000


Forces in eV/Ang:
  0 C    -0.43711   -3.64767   -2.77135
  1 C    -2.26656   -1.38760    0.65551
  2 C    -1.61072   -5.38903    3.44980
  3 C     2.12657    4.96989    0.57473
  4 C     1.64127   -0.62769    0.04736
  5 C    -0.87192    0.28537   -0.30779
  6 C    -3.25707    3.44598   -0.21524
  7 C    -3.91242   -1.96864    0.03857
  8 C    -0.45730    1.10959    0.41467
  9 C    -1.38342    1.36420    0.26710
 10 C    -0.39498   -0.83841    0.75799
 11 C     3.91656    0.22843   -0.07079
 12 C     0.49404   -4.87650   -0.57852
 13 C     0.84490    3.46039   -0.07414
 14 C     2.54550   -0.31300    0.31990
 15 C    -0.21559    3.34941    0.48225
 16 C    -2.05144   -1.96644    0.05221
 17 C     1.72425    2.37092   -2.40620
 18 C    -0.24687   -3.05860    0.05638
 19 C    -0.50613    2.82538   -0.07308
 20 C    -2.10585    2.90862   -0.38243
 21 C    -0.50400   -0.51924   -0.00923
 22 C     2.42870    2.59234    0.12581
 23 C     4.48972   -4.40581   -0.28944

System changes: positions 

Initializing position-dependent things.

Density initialized from wave functions
           .--------------------------------------.  
          /|                                      |  
         / |                                      |  
        /  |                                      |  
       /   |                                      |  
      /    |                                      |  
     /     |                                      |  
    /      |                                      |  
   /       |                                      |  
  /        |     C  C         C                   |  
 *         |    C          C    C  C              |  
 |         |        C  C  C  C    C               |  
 |         .------C------C---C--C-----------------.  
 |        /         C        C                   /   
 |       /         CC     C                     /    
 |      /              C                       /     
 |     /                                      /      
 |    /                                      /       
 |   /                                      /        
 |  /                                      /         
 | /                                      /          
 |/                                      /           
 *--------------------------------------*            

Positions:
   0 C      5.943004    7.386246    5.673806
   1 C      8.310882    6.617099    4.973925
   2 C      6.532415    5.253150    4.405879
   3 C      5.577539    5.966215    5.300458
   4 C     10.210596    9.824791    4.916778
   5 C      9.376603    8.591477    4.857998
   6 C      9.608401    7.192798    5.000673
   7 C      9.219006   10.862474    4.785950
   8 C      6.170927    6.622625    3.879553
   9 C      7.999968    8.897921    4.695611
  10 C      7.231727    7.639454    4.814203
  11 C      7.933914   10.373279    4.735016
  12 C     11.578142    9.520020    5.002378
  13 C      3.773353   11.188189    4.941527
  14 C      8.522091    2.386902    4.959041
  15 C     11.694763    7.873997    4.828157
  16 C      9.551518    3.219261    5.000427
  17 C      6.343759    3.709114    4.791605
  18 C      3.667742    9.870729    4.986853
  19 C     10.179373    4.344904    4.980660
  20 C      7.259100    2.746348    4.864804
  21 C      4.751060   12.069802    4.918137
  22 C     11.099835    6.664193    4.875062
  23 C     10.054459    5.699819    4.908906

Unit cell:
           periodic     x           y           z      points  spacing
  1. axis:    yes   16.000000    0.000000    0.000000    80     0.2000
  2. axis:    yes    0.000000   16.000000    0.000000    80     0.2000
  3. axis:    yes    0.000000    0.000000   10.000000    48     0.2083

Effective grid spacing dv^(1/3) = 0.2027

                     log10-error:    total        iterations:
           time      wfs    density  energy       fermi  poisson
iter:   1  09:32:42          +inf  -162.607793    3      5      
iter:   2  09:32:43         -1.54  -162.246334    3      2      
iter:   3  09:32:43         -1.77  -162.125276    3      2      
iter:   4  09:32:44         -2.01  -162.105181    3      2      
iter:   5  09:32:45         -2.13  -162.096741    3      2      
iter:   6  09:32:45         -2.23  -162.089997    3      2      
iter:   7  09:32:46         -2.39  -162.087209    3      2      
iter:   8  09:32:46         -2.60  -162.086893    3      2      
iter:   9  09:32:47         -2.79  -162.086959    3      2      
iter:  10  09:32:47         -2.98  -162.086746    2      2      
iter:  11  09:32:47         -3.18  -162.086696    2      1      
iter:  12  09:32:48         -3.25  -162.086455    2      1      
iter:  13  09:32:48         -3.38  -162.085341    2      1      
iter:  14  09:32:49         -3.75  -162.086299    2      1      
iter:  15  09:32:49         -3.91  -162.086867    2      1      
iter:  16  09:32:50         -3.96  -162.086772    2      1      
iter:  17  09:32:50         -4.11  -162.086643    2      1      

Converged after 17 iterations.

Dipole moment: (0.142246, -0.575386, 0.042729) |e|*Ang

Energy contributions relative to reference atoms: (reference = -24663.074771)

Kinetic:        +73.418572
Potential:      -82.397282
External:        +0.000000
XC:            -155.758498
Entropy (-ST):   -0.352270
Local:           +2.826700
--------------------------
Free energy:   -162.262779
Extrapolated:  -162.086643

Fermi level: -4.70562

 Band  Eigenvalues  Occupancy
    0    -24.15326    2.00000
    1    -23.04922    2.00000
    2    -22.06338    2.00000
    3    -20.83427    2.00000
    4    -20.53415    2.00000
    5    -19.94550    2.00000
    6    -19.56501    2.00000
    7    -18.92211    2.00000
    8    -18.35498    2.00000
    9    -17.71087    2.00000
   10    -17.53880    2.00000
   11    -16.30338    2.00000
   12    -16.07449    2.00000
   13    -15.94009    2.00000
   14    -15.20861    2.00000
   15    -14.89891    2.00000
   16    -14.11142    2.00000
   17    -13.46324    2.00000
   18    -13.20533    2.00000
   19    -12.68575    2.00000
   20    -12.26560    2.00000
   21    -11.38531    2.00000
   22    -11.17747    2.00000
   23    -10.75983    2.00000
   24    -10.21852    2.00000
   25    -10.12164    2.00000
   26     -9.87651    2.00000
   27     -9.63801    2.00000
   28     -9.19296    2.00000
   29     -8.94095    2.00000
   30     -8.80831    2.00000
   31     -8.55755    2.00000
   32     -8.28786    2.00000
   33     -8.09676    2.00000
   34     -7.43463    2.00000
   35     -7.34584    2.00000
   36     -7.33494    2.00000
   37     -7.03914    2.00000
   38     -6.67875    2.00000
   39     -6.47925    2.00000
   40     -6.20930    2.00000
   41     -6.00345    2.00000
   42     -5.86288    1.99998
   43     -5.54587    1.99955
   44     -5.43807    1.99868
   45     -5.12231    1.96948
   46     -4.94453    1.83199
   47     -4.77545    1.33566
   48     -4.67350    0.84079
   49     -4.25113    0.02102
   50     -4.01149    0.00193
   51     -3.93485    0.00090
   52     -3.52483    0.00001
   53     -3.38365    0.00000
   54     -3.35769    0.00000
   55     -2.78976    0.00000
   56     -2.56039    0.00000
   57     -1.88182    0.00000
   58     -1.25338    0.00000
   59     -1.12239    0.00000
   60     -0.54878    0.00000
   61     -0.45657    0.00000
   62     -0.25826    0.00000
   63      0.64934    0.00000
   64      0.79390    0.00000
   65      0.94632    0.00000
   66      1.42212    0.00000
   67      1.72186    0.00000
   68      2.16784    0.00000
   69      2.38316    0.00000
   70      2.93329    0.00000
   71      3.16837    0.00000
   72      3.77527    0.00000
   73      4.25603    0.00000
   74      4.90953    0.00000
   75      5.20599    0.00000
   76      5.51823    0.00000
   77      6.34053    0.00000
   78      6.60466    0.00000
   79      7.03262    0.00000
   80      7.24021    0.00000
   81      7.56333    0.00000
   82      7.94706    0.00000
   83      8.00323    0.00000
   84      8.15273    0.00000
   85      8.46653    0.00000
   86      8.53007    0.00000
   87      8.68532    0.00000
   88      8.97875    0.00000
   89      9.09954    0.00000
   90      9.24079    0.00000
   91      9.37265    0.00000
   92      9.50886    0.00000
   93      9.53995    0.00000
   94      9.65329    0.00000
   95      9.76861    0.00000
   96      9.88435    0.00000
   97     10.11101    0.00000


Forces in eV/Ang:
  0 C    -0.32777   -3.56375   -2.58786
  1 C    -1.91175   -1.09582    0.81404
  2 C    -1.80540   -4.40549    3.36713
  3 C     1.90845    4.60605    0.52306
  4 C     1.19119   -0.61111   -0.03756
  5 C    -1.09015    0.73262   -0.34213
  6 C    -2.47934    1.73503   -0.30521
  7 C    -2.68955   -1.59993    0.13628
  8 C    -0.26558    0.51520    0.38703
  9 C    -1.20103    0.90934    0.28884
 10 C    -0.40275   -0.39686    0.55664
 11 C     2.99625    0.14643   -0.06539
 12 C     0.37017   -5.09224   -0.68259
 13 C    -0.36938   -0.12793    0.03293
 14 C     0.78098   -0.39978    0.18335
 15 C    -0.39268    3.49904    0.57123
 16 C    -1.03191   -0.35857    0.09130
 17 C     1.94969    2.29503   -2.35143
 18 C    -0.02380   -0.33267   -0.02520
 19 C    -0.84530    0.64394   -0.03264
 20 C    -0.93282    2.46838   -0.31021
 21 C     0.46733    0.37289   -0.03260
 22 C     1.24347    2.34089    0.17707
 23 C     4.81218   -2.31343   -0.36926

System changes: positions 

Initializing position-dependent things.

Density initialized from wave functions
           .--------------------------------------.  
          /|                                      |  
         / |                                      |  
        /  |                                      |  
       /   |                                      |  
      /    |                                      |  
     /     |                                      |  
    /      |                                      |  
   /       |                                      |  
  /        |     C  C         C                   |  
 *         |    C          C    C  C              |  
 |         |        C  C  C  C    C               |  
 |         .------C------C------C-----------------.  
 |        /         C        C                   /   
 |       /         CC     C                     /    
 |      /              C                       /     
 |     /                                      /      
 |    /                                      /       
 |   /                                      /        
 |  /                                      /         
 | /                                      /          
 |/                                      /           
 *--------------------------------------*            

Positions:
   0 C      5.940777    7.361684    5.656010
   1 C      8.297806    6.609632    4.979593
   2 C      6.519895    5.223072    4.429085
   3 C      5.590637    5.997879    5.304050
   4 C     10.218669    9.820580    4.916491
   5 C      9.369010    8.596677    4.855626
   6 C      9.591546    7.204214    4.998538
   7 C      9.200845   10.851554    4.786922
   8 C      6.169157    6.625987    3.882215
   9 C      7.991740    8.904047    4.697611
  10 C      7.228945    7.636859    4.817978
  11 C      7.954289   10.374263    4.734566
  12 C     11.580656    9.484814    4.997634
  13 C      3.770411   11.186141    4.941789
  14 C      8.526907    2.384115    4.960262
  15 C     11.691996    7.898189    4.832127
  16 C      9.544729    3.217309    5.001069
  17 C      6.357285    3.724925    4.775398
  18 C      3.667650    9.869319    4.986652
  19 C     10.173431    4.348639    4.980448
  20 C      7.253045    2.763237    4.862687
  21 C      4.754600   12.072664    4.917905
  22 C     11.108030    6.680263    4.876301
  23 C     10.087767    5.684536    4.906332

Unit cell:
           periodic     x           y           z      points  spacing
  1. axis:    yes   16.000000    0.000000    0.000000    80     0.2000
  2. axis:    yes    0.000000   16.000000    0.000000    80     0.2000
  3. axis:    yes    0.000000    0.000000   10.000000    48     0.2083

Effective grid spacing dv^(1/3) = 0.2027

                     log10-error:    total        iterations:
           time      wfs    density  energy       fermi  poisson
iter:   1  09:32:52          +inf  -164.006145    3      5      
iter:   2  09:32:52         -1.58  -163.678080    3      2      
iter:   3  09:32:53         -1.79  -163.533438    3      2      
iter:   4  09:32:53         -2.13  -163.528629    3      2      
iter:   5  09:32:54         -2.20  -163.518387    3      2      
iter:   6  09:32:54         -2.35  -163.513045    3      2      
iter:   7  09:32:55         -2.53  -163.511381    3      2      
iter:   8  09:32:55         -2.72  -163.511516    2      2      
iter:   9  09:32:56         -2.91  -163.511782    2      2      
iter:  10  09:32:56         -3.11  -163.511317    2      1      
iter:  11  09:32:57         -3.22  -163.511507    2      1      
iter:  12  09:32:57         -3.32  -163.509936    2      1      
iter:  13  09:32:58         -3.59  -163.511185    2      1      
iter:  14  09:32:58         -3.70  -163.512497    2      1      
iter:  15  09:32:59         -3.96  -163.512380    2      1      
iter:  16  09:32:59         -4.06  -163.512226    2      1      

Converged after 16 iterations.

Dipole moment: (0.094973, -0.506113, 0.064269) |e|*Ang

Energy contributions relative to reference atoms: (reference = -24663.074771)

Kinetic:        +75.972975
Potential:      -84.820209
External:        +0.000000
XC:            -157.358275
Entropy (-ST):   -0.319511
Local:           +2.853039
--------------------------
Free energy:   -163.671981
Extrapolated:  -163.512226

Fermi level: -4.64317

 Band  Eigenvalues  Occupancy
    0    -23.86616    2.00000
    1    -23.12859    2.00000
    2    -22.00119    2.00000
    3    -20.78334    2.00000
    4    -20.48892    2.00000
    5    -19.94590    2.00000
    6    -19.57892    2.00000
    7    -18.99779    2.00000
    8    -18.32453    2.00000
    9    -17.63762    2.00000
   10    -17.55617    2.00000
   11    -16.37526    2.00000
   12    -16.08182    2.00000
   13    -15.96782    2.00000
   14    -15.17463    2.00000
   15    -14.96008    2.00000
   16    -14.14768    2.00000
   17    -13.47357    2.00000
   18    -13.13988    2.00000
   19    -12.70239    2.00000
   20    -12.26325    2.00000
   21    -11.54370    2.00000
   22    -11.10926    2.00000
   23    -10.76055    2.00000
   24    -10.23524    2.00000
   25    -10.13290    2.00000
   26     -9.86813    2.00000
   27     -9.68009    2.00000
   28     -9.15056    2.00000
   29     -8.90228    2.00000
   30     -8.75200    2.00000
   31     -8.54918    2.00000
   32     -8.30990    2.00000
   33     -8.10627    2.00000
   34     -7.48833    2.00000
   35     -7.38012    2.00000
   36     -7.33666    2.00000
   37     -7.10422    2.00000
   38     -6.76824    2.00000
   39     -6.51550    2.00000
   40     -6.24343    2.00000
   41     -6.03437    2.00000
   42     -5.90529    1.99999
   43     -5.51181    1.99966
   44     -5.46564    1.99946
   45     -5.14216    1.98648
   46     -4.90481    1.86382
   47     -4.73149    1.41498
   48     -4.58601    0.72175
   49     -4.12121    0.01076
   50     -3.97137    0.00242
   51     -3.83745    0.00063
   52     -3.53941    0.00003
   53     -3.32514    0.00000
   54     -3.27264    0.00000
   55     -2.66710    0.00000
   56     -2.49366    0.00000
   57     -1.78127    0.00000
   58     -1.11385    0.00000
   59     -0.97316    0.00000
   60     -0.47570    0.00000
   61     -0.33699    0.00000
   62     -0.27787    0.00000
   63      0.67329    0.00000
   64      0.81469    0.00000
   65      1.09817    0.00000
   66      1.57484    0.00000
   67      1.65874    0.00000
   68      2.42892    0.00000
   69      2.53072    0.00000
   70      3.05896    0.00000
   71      3.37048    0.00000
   72      3.89403    0.00000
   73      4.27821    0.00000
   74      4.97230    0.00000
   75      5.22726    0.00000
   76      5.56158    0.00000
   77      6.54698    0.00000
   78      6.72254    0.00000
   79      7.18984    0.00000
   80      7.53403    0.00000
   81      7.57776    0.00000
   82      8.02527    0.00000
   83      8.03100    0.00000
   84      8.30487    0.00000
   85      8.50818    0.00000
   86      8.59568    0.00000
   87      8.70886    0.00000
   88      9.03837    0.00000
   89      9.15929    0.00000
   90      9.27764    0.00000
   91      9.45911    0.00000
   92      9.54034    0.00000
   93      9.66278    0.00000
   94      9.69344    0.00000
   95      9.83793    0.00000
   96      9.94464    0.00000
   97     10.10148    0.00000


Forces in eV/Ang:
  0 C    -0.05671   -3.01812   -2.28018
  1 C    -1.74088   -0.86641    0.98858
  2 C    -1.79153   -3.49724    3.16991
  3 C     1.46782    3.76216    0.45465
  4 C     0.85161   -0.48185   -0.09871
  5 C    -1.23605    0.73385   -0.34420
  6 C    -2.03060    0.70524   -0.38959
  7 C    -1.17708   -1.10794    0.25587
  8 C    -0.10921    0.18731    0.22680
  9 C    -1.07618    0.54785    0.27030
 10 C    -0.41516   -0.00225    0.39663
 11 C     1.78456   -0.05703   -0.12119
 12 C     0.18555   -5.26200   -0.72061
 13 C    -0.01445    0.23204    0.02038
 14 C     0.08888   -0.42614    0.11358
 15 C    -0.43850    3.56415    0.61282
 16 C    -0.97516   -0.17010    0.09250
 17 C     1.77512    2.24220   -2.20406
 18 C    -0.02526   -0.37440   -0.01687
 19 C    -0.65591    0.12134   -0.00363
 20 C    -0.16424    2.02275   -0.24632
 21 C     0.10029    0.03990   -0.02180
 22 C     0.60250    2.22283    0.21371
 23 C     5.02701   -1.16365   -0.37559

System changes: positions 

Initializing position-dependent things.

Density initialized from wave functions
           .--------------------------------------.  
          /|                                      |  
         / |                                      |  
        /  |                                      |  
       /   |                                      |  
      /    |                                      |  
     /     |                                      |  
    /      |                                      |  
   /       |                                      |  
  /        |     C  C         C                   |  
 *         |    C          C    C  C              |  
 |         |        C  C  C  C    C               |  
 |         .------C------C---C--C-----------------.  
 |        /         C        C                   /   
 |       /         CC     C                     /    
 |      /              C                       /     
 |     /                                      /      
 |    /                                      /       
 |   /                                      /        
 |  /                                      /         
 | /                                      /          
 |/                                      /           
 *--------------------------------------*            

Positions:
   0 C      5.940865    7.340206    5.639488
   1 C      8.284925    6.603460    4.987269
   2 C      6.506632    5.198236    4.452441
   3 C      5.600816    6.024459    5.307338
   4 C     10.224592    9.817239    4.915673
   5 C      9.359579    8.601902    4.853066
   6 C      9.576833    7.208332    4.995496
   7 C      9.194520   10.844087    4.789034
   8 C      6.168557    6.627050    3.883587
   9 C      7.983840    8.907653    4.699581
  10 C      7.225816    7.637417    4.820727
  11 C      7.965619   10.373451    4.733537
  12 C     11.581726    9.445196    4.992222
  13 C      3.771795   11.190820    4.941850
  14 C      8.527164    2.380922    4.961046
  15 C     11.688723    7.924915    4.836749
  16 C      9.536933    3.215464    5.001741
  17 C      6.370063    3.741641    4.759182
  18 C      3.667323    9.864776    4.986593
  19 C     10.169131    4.349754    4.980458
  20 C      7.252744    2.777693    4.860936
  21 C      4.753979   12.071712    4.917779
  22 C     11.111891    6.696802    4.877947
  23 C     10.125657    5.677011    4.903556

Unit cell:
           periodic     x           y           z      points  spacing
  1. axis:    yes   16.000000    0.000000    0.000000    80     0.2000
  2. axis:    yes    0.000000   16.000000    0.000000    80     0.2000
  3. axis:    yes    0.000000    0.000000   10.000000    48     0.2083

Effective grid spacing dv^(1/3) = 0.2027

                     log10-error:    total        iterations:
           time      wfs    density  energy       fermi  poisson
iter:   1  09:33:01          +inf  -165.102121    3      5      
iter:   2  09:33:01         -1.63  -164.849482    3      2      
iter:   3  09:33:02         -1.83  -164.708196    3      2      
iter:   4  09:33:02         -2.24  -164.708396    3      2      
iter:   5  09:33:03         -2.31  -164.701797    3      2      
iter:   6  09:33:03         -2.48  -164.698079    3      2      
iter:   7  09:33:04         -2.68  -164.698843    2      2      
iter:   8  09:33:04         -2.82  -164.698549    2      2      
iter:   9  09:33:05         -3.09  -164.698372    2      1      
iter:  10  09:33:05         -3.16  -164.697536    2      1      
iter:  11  09:33:06         -3.41  -164.698830    2      1      
iter:  12  09:33:06         -3.54  -164.698675    2      1      
iter:  13  09:33:07         -3.82  -164.698642    2      1      
iter:  14  09:33:07         -3.94  -164.698721    2      1      
iter:  15  09:33:08         -4.11  -164.698984    2      1      

Converged after 15 iterations.

Dipole moment: (0.073174, -0.465903, 0.080268) |e|*Ang

Energy contributions relative to reference atoms: (reference = -24663.074771)

Kinetic:        +80.049537
Potential:      -88.416079
External:        +0.000000
XC:            -159.057449
Entropy (-ST):   -0.280371
Local:           +2.865192
--------------------------
Free energy:   -164.839169
Extrapolated:  -164.698984

Fermi level: -4.57437

 Band  Eigenvalues  Occupancy
    0    -23.73943    2.00000
    1    -23.19844    2.00000
    2    -21.95250    2.00000
    3    -20.75898    2.00000
    4    -20.48394    2.00000
    5    -19.94068    2.00000
    6    -19.58603    2.00000
    7    -19.09133    2.00000
    8    -18.32246    2.00000
    9    -17.58388    2.00000
   10    -17.54685    2.00000
   11    -16.44549    2.00000
   12    -16.08024    2.00000
   13    -15.97120    2.00000
   14    -15.20467    2.00000
   15    -15.04385    2.00000
   16    -14.19944    2.00000
   17    -13.48052    2.00000
   18    -13.08858    2.00000
   19    -12.70707    2.00000
   20    -12.28159    2.00000
   21    -11.73548    2.00000
   22    -11.14017    2.00000
   23    -10.75514    2.00000
   24    -10.25835    2.00000
   25    -10.15137    2.00000
   26     -9.84379    2.00000
   27     -9.69463    2.00000
   28     -9.11352    2.00000
   29     -8.90294    2.00000
   30     -8.71093    2.00000
   31     -8.54501    2.00000
   32     -8.31945    2.00000
   33     -8.10698    2.00000
   34     -7.56977    2.00000
   35     -7.40293    2.00000
   36     -7.31985    2.00000
   37     -7.17659    2.00000
   38     -6.82528    2.00000
   39     -6.52905    2.00000
   40     -6.26551    2.00000
   41     -6.06208    2.00000
   42     -5.95163    2.00000
   43     -5.58359    1.99992
   44     -5.39977    1.99948
   45     -5.16585    1.99462
   46     -4.87008    1.90120
   47     -4.69150    1.52678
   48     -4.48151    0.56645
   49     -3.99973    0.00637
   50     -3.96972    0.00472
   51     -3.72584    0.00041
   52     -3.53328    0.00006
   53     -3.31502    0.00001
   54     -3.17703    0.00000
   55     -2.55061    0.00000
   56     -2.42120    0.00000
   57     -1.69402    0.00000
   58     -0.98376    0.00000
   59     -0.85176    0.00000
   60     -0.44227    0.00000
   61     -0.35968    0.00000
   62     -0.09743    0.00000
   63      0.70298    0.00000
   64      0.83955    0.00000
   65      1.20938    0.00000
   66      1.60335    0.00000
   67      1.72317    0.00000
   68      2.59876    0.00000
   69      2.66585    0.00000
   70      3.16673    0.00000
   71      3.62304    0.00000
   72      4.00240    0.00000
   73      4.28980    0.00000
   74      5.02579    0.00000
   75      5.20368    0.00000
   76      5.63481    0.00000
   77      6.72868    0.00000
   78      6.87761    0.00000
   79      7.31996    0.00000
   80      7.58506    0.00000
   81      7.74952    0.00000
   82      8.00749    0.00000
   83      8.09836    0.00000
   84      8.40208    0.00000
   85      8.55470    0.00000
   86      8.67707    0.00000
   87      8.73258    0.00000
   88      9.06389    0.00000
   89      9.17934    0.00000
   90      9.32514    0.00000
   91      9.52561    0.00000
   92      9.62422    0.00000
   93      9.70788    0.00000
   94      9.76195    0.00000
   95      9.89342    0.00000
   96     10.02720    0.00000
   97     10.09803    0.00000


Forces in eV/Ang:
  0 C     0.26969   -2.04075   -1.91793
  1 C    -1.73926   -0.66310    1.08672
  2 C    -1.68525   -2.61197    2.90693
  3 C     0.91582    2.54182    0.37496
  4 C     0.60151   -0.31953   -0.13292
  5 C    -1.25090    0.46869   -0.30853
  6 C    -1.64469    0.11684   -0.44484
  7 C    -0.24483   -0.77923    0.29248
  8 C     0.03258    0.01431    0.03884
  9 C    -1.04177    0.37088    0.24068
 10 C    -0.42439    0.27592    0.28382
 11 C     1.08580   -0.17611   -0.13175
 12 C    -0.06621   -5.21649   -0.72894
 13 C    -0.31033   -0.54229    0.03629
 14 C    -0.24474   -0.54428    0.09661
 15 C    -0.38716    3.35208    0.61451
 16 C    -0.80981    0.14789    0.06012
 17 C     1.60489    1.85971   -1.96282
 18 C     0.03158    0.18912   -0.02818
 19 C    -0.55182   -0.13428    0.02576
 20 C     0.14622    1.80038   -0.24297
 21 C     0.34602    0.26465   -0.02666
 22 C     0.22624    2.26211    0.24471
 23 C     5.14644   -0.73333   -0.37112

System changes: positions 

Initializing position-dependent things.

Density initialized from wave functions
           .--------------------------------------.  
          /|                                      |  
         / |                                      |  
        /  |                                      |  
       /   |                                      |  
      /    |                                      |  
     /     |                                      |  
    /      |                                      |  
   /       |                                      |  
  /        |     C  C         C                   |  
 *         |    C          C    C  C              |  
 |         |        C  C  C  C    C               |  
 |         .------C------C---C--C-----------------.  
 |        /         C       CC                   /   
 |       /         CC     C                     /    
 |      /              C                       /     
 |     /                                      /      
 |    /                                      /       
 |   /                                      /        
 |  /                                      /         
 | /                                      /          
 |/                                      /           
 *--------------------------------------*            

Positions:
   0 C      5.943748    7.327398    5.625640
   1 C      8.271091    6.598543    4.995637
   2 C      6.494390    5.179392    4.473990
   3 C      5.606487    6.040790    5.310045
   4 C     10.229139    9.815269    4.914686
   5 C      9.350302    8.603976    4.850867
   6 C      9.564173    7.210145    4.992067
   7 C      9.193693   10.838593    4.791245
   8 C      6.168930    6.627577    3.883349
   9 C      7.975707    8.910644    4.701294
  10 C      7.222556    7.639686    4.822869
  11 C      7.973114   10.371842    4.732472
  12 C     11.580663    9.405773    4.986794
  13 C      3.770788   11.190753    4.941984
  14 C      8.527135    2.376571    4.961946
  15 C     11.686196    7.949701    4.841312
  16 C      9.529487    3.214805    5.002043
  17 C      6.381404    3.754890    4.744817
  18 C      3.667342    9.863133    4.986488
  19 C     10.165850    4.351558    4.980679
  20 C      7.252992    2.791427    4.858987
  21 C      4.755529   12.072728    4.917605
  22 C     11.114369    6.714587    4.879829
  23 C     10.164841    5.669434    4.900866

Unit cell:
           periodic     x           y           z      points  spacing
  1. axis:    yes   16.000000    0.000000    0.000000    80     0.2000
  2. axis:    yes    0.000000   16.000000    0.000000    80     0.2000
  3. axis:    yes    0.000000    0.000000   10.000000    48     0.2083

Effective grid spacing dv^(1/3) = 0.2027

                     log10-error:    total        iterations:
           time      wfs    density  energy       fermi  poisson
iter:   1  09:33:09          +inf  -165.940782    3      5      
iter:   2  09:33:10         -1.72  -165.767534    2      2      
iter:   3  09:33:10         -1.89  -165.653362    3      2      
iter:   4  09:33:11         -2.31  -165.654143    3      2      
iter:   5  09:33:11         -2.40  -165.650218    2      2      
iter:   6  09:33:12         -2.58  -165.648115    2      2      
iter:   7  09:33:12         -2.78  -165.648897    2      2      
iter:   8  09:33:13         -2.91  -165.648705    2      2      
iter:   9  09:33:13         -3.18  -165.648500    2      1      
iter:  10  09:33:14         -3.26  -165.648123    2      1      
iter:  11  09:33:14         -3.50  -165.649233    2      1      
iter:  12  09:33:15         -3.68  -165.648754    2      1      
iter:  13  09:33:15         -3.97  -165.648598    2      1      
iter:  14  09:33:16         -4.05  -165.648563    2      1      

Converged after 14 iterations.

Dipole moment: (0.080518, -0.418426, 0.087912) |e|*Ang

Energy contributions relative to reference atoms: (reference = -24663.074771)

Kinetic:        +84.336247
Potential:      -92.179627
External:        +0.000000
XC:            -160.563761
Entropy (-ST):   -0.241720
Local:           +2.879439
--------------------------
Free energy:   -165.769423
Extrapolated:  -165.648563

Fermi level: -4.51755

 Band  Eigenvalues  Occupancy
    0    -23.70104    2.00000
    1    -23.18710    2.00000
    2    -21.89830    2.00000
    3    -20.74606    2.00000
    4    -20.50595    2.00000
    5    -19.92158    2.00000
    6    -19.60716    2.00000
    7    -19.18867    2.00000
    8    -18.32767    2.00000
    9    -17.58752    2.00000
   10    -17.50137    2.00000
   11    -16.48238    2.00000
   12    -16.06492    2.00000
   13    -15.96154    2.00000
   14    -15.29767    2.00000
   15    -15.07912    2.00000
   16    -14.24528    2.00000
   17    -13.49650    2.00000
   18    -13.04703    2.00000
   19    -12.69483    2.00000
   20    -12.30789    2.00000
   21    -11.91827    2.00000
   22    -11.20902    2.00000
   23    -10.74148    2.00000
   24    -10.26973    2.00000
   25    -10.15711    2.00000
   26     -9.82259    2.00000
   27     -9.69144    2.00000
   28     -9.08242    2.00000
   29     -8.91783    2.00000
   30     -8.66985    2.00000
   31     -8.54031    2.00000
   32     -8.31675    2.00000
   33     -8.09448    2.00000
   34     -7.64598    2.00000
   35     -7.41196    2.00000
   36     -7.31521    2.00000
   37     -7.24983    2.00000
   38     -6.86656    2.00000
   39     -6.53287    2.00000
   40     -6.27622    2.00000
   41     -6.09362    2.00000
   42     -6.00041    2.00000
   43     -5.63819    1.99997
   44     -5.34399    1.99949
   45     -5.19068    1.99762
   46     -4.84879    1.92970
   47     -4.66583    1.62999
   48     -4.38791    0.42954
   49     -3.99288    0.01047
   50     -3.85857    0.00274
   51     -3.66180    0.00038
   52     -3.50394    0.00008
   53     -3.31209    0.00001
   54     -3.09296    0.00000
   55     -2.44411    0.00000
   56     -2.35993    0.00000
   57     -1.61734    0.00000
   58     -0.87519    0.00000
   59     -0.76530    0.00000
   60     -0.40900    0.00000
   61     -0.37144    0.00000
   62      0.09814    0.00000
   63      0.73185    0.00000
   64      0.86197    0.00000
   65      1.28821    0.00000
   66      1.58294    0.00000
   67      1.81488    0.00000
   68      2.68390    0.00000
   69      2.77998    0.00000
   70      3.26286    0.00000
   71      3.80261    0.00000
   72      4.09033    0.00000
   73      4.29695    0.00000
   74      5.04606    0.00000
   75      5.18209    0.00000
   76      5.69817    0.00000
   77      6.82579    0.00000
   78      7.04260    0.00000
   79      7.43814    0.00000
   80      7.62562    0.00000
   81      7.87957    0.00000
   82      8.01500    0.00000
   83      8.15384    0.00000
   84      8.48154    0.00000
   85      8.59755    0.00000
   86      8.70004    0.00000
   87      8.78555    0.00000
   88      9.06482    0.00000
   89      9.19909    0.00000
   90      9.36448    0.00000
   91      9.55764    0.00000
   92      9.64864    0.00000
   93      9.75986    0.00000
   94      9.84472    0.00000
   95      9.95140    0.00000
   96     10.07699    0.00000
   97     10.10825    0.00000


Forces in eV/Ang:
  0 C     0.46244   -1.20751   -1.55421
  1 C    -1.72811   -0.51161    1.12624
  2 C    -1.50673   -1.69248    2.60948
  3 C     0.44124    1.55182    0.27976
  4 C     0.36259   -0.23910   -0.15683
  5 C    -1.20840    0.31723   -0.27072
  6 C    -1.28587   -0.27813   -0.50143
  7 C     0.27935   -0.57930    0.30655
  8 C     0.11749   -0.09293   -0.06644
  9 C    -1.00657    0.31003    0.22489
 10 C    -0.45079    0.47157    0.21222
 11 C     0.69527   -0.19928   -0.14407
 12 C    -0.29716   -4.71482   -0.65890
 13 C    -0.20517   -0.53780    0.03348
 14 C    -0.46336   -0.59425    0.09302
 15 C    -0.22012    2.88220    0.55992
 16 C    -0.71608    0.40659    0.01859
 17 C     1.34996    1.37471   -1.71184
 18 C     0.04326    0.28267   -0.02836
 19 C    -0.47237   -0.40155    0.04608
 20 C     0.47676    1.53271   -0.24695
 21 C     0.22999    0.16263   -0.02240
 22 C    -0.21050    2.07784    0.25330
 23 C     5.20623   -0.42141   -0.36425

System changes: positions 

Initializing position-dependent things.

Density initialized from wave functions
           .--------------------------------------.  
          /|                                      |  
         / |                                      |  
        /  |                                      |  
       /   |                                      |  
      /    |                                      |  
     /     |                                      |  
    /      |                                      |  
   /       |                                      |  
  /        |     C  C         C                   |  
 *         |    C          C    C  C              |  
 |         |        C  C  C  C    C               |  
 |         .------C------C---C--C-----------------.  
 |        /         C       CC                   /   
 |       /         CC     C                     /    
 |      /              C                       /     
 |     /                                      /      
 |    /                                      /       
 |   /                                      /        
 |  /                                      /         
 | /                                      /          
 |/                                      /           
 *--------------------------------------*            

Positions:
   0 C      5.947683    7.320944    5.614593
   1 C      8.257108    6.594533    5.003995
   2 C      6.483868    5.167529    4.493115
   3 C      5.608713    6.049985    5.311967
   4 C     10.232065    9.813652    4.913593
   5 C      9.341726    8.604938    4.849010
   6 C      9.554002    7.210329    4.988243
   7 C      9.194499   10.833895    4.793366
   8 C      6.169715    6.627761    3.882577
   9 C      7.967698    8.913869    4.702924
  10 C      7.219035    7.642966    4.824693
  11 C      7.979533   10.370524    4.731371
  12 C     11.577836    9.372025    4.982211
  13 C      3.771105   11.191953    4.942070
  14 C      8.526403    2.371952    4.962946
  15 C     11.685482    7.969657    4.845209
  16 C      9.522622    3.216050    5.001951
  17 C      6.390540    3.763664    4.732489
  18 C      3.667368    9.861331    4.986395
  19 C     10.162955    4.351710    4.981020
  20 C      7.255138    2.803324    4.856892
  21 C      4.755764   12.072582    4.917474
  22 C     11.113730    6.730431    4.881690
  23 C     10.204186    5.662719    4.898249

Unit cell:
           periodic     x           y           z      points  spacing
  1. axis:    yes   16.000000    0.000000    0.000000    80     0.2000
  2. axis:    yes    0.000000   16.000000    0.000000    80     0.2000
  3. axis:    yes    0.000000    0.000000   10.000000    48     0.2083

Effective grid spacing dv^(1/3) = 0.2027

                     log10-error:    total        iterations:
           time      wfs    density  energy       fermi  poisson
iter:   1  09:33:17          +inf  -166.545185    2      5      
iter:   2  09:33:18         -1.85  -166.448081    3      2      
iter:   3  09:33:18         -2.02  -166.374396    3      2      
iter:   4  09:33:19         -2.41  -166.375404    2      2      
iter:   5  09:33:19         -2.54  -166.373457    2      2      
iter:   6  09:33:20         -2.68  -166.372042    1      2      
iter:   7  09:33:20         -2.90  -166.368520    2      1      
iter:   8  09:33:21         -3.02  -166.372687    2      2      
iter:   9  09:33:21         -3.30  -166.373235    2      1      
iter:  10  09:33:21         -3.39  -166.371867    2      1      
iter:  11  09:33:22         -3.60  -166.373047    2      1      
iter:  12  09:33:22         -3.65  -166.373856    2      1      
iter:  13  09:33:23         -3.83  -166.372146    2      1      
iter:  14  09:33:23         -4.05  -166.372463    2      1      

Converged after 14 iterations.

Dipole moment: (0.095573, -0.381317, 0.091164) |e|*Ang

Energy contributions relative to reference atoms: (reference = -24663.074771)

Kinetic:        +88.679046
Potential:      -95.940689
External:        +0.000000
XC:            -161.902705
Entropy (-ST):   -0.207586
Local:           +2.895679
--------------------------
Free energy:   -166.476256
Extrapolated:  -166.372463

Fermi level: -4.47709

 Band  Eigenvalues  Occupancy
    0    -23.71274    2.00000
    1    -23.14261    2.00000
    2    -21.85711    2.00000
    3    -20.74646    2.00000
    4    -20.53907    2.00000
    5    -19.90667    2.00000
    6    -19.63211    2.00000
    7    -19.27258    2.00000
    8    -18.33437    2.00000
    9    -17.60818    2.00000
   10    -17.45597    2.00000
   11    -16.49199    2.00000
   12    -16.05150    2.00000
   13    -15.96026    2.00000
   14    -15.39933    2.00000
   15    -15.08613    2.00000
   16    -14.27830    2.00000
   17    -13.51659    2.00000
   18    -13.01801    2.00000
   19    -12.68051    2.00000
   20    -12.34597    2.00000
   21    -12.05362    2.00000
   22    -11.28186    2.00000
   23    -10.73342    2.00000
   24    -10.27372    2.00000
   25    -10.16237    2.00000
   26     -9.81138    2.00000
   27     -9.68673    2.00000
   28     -9.06384    2.00000
   29     -8.94369    2.00000
   30     -8.64406    2.00000
   31     -8.53822    2.00000
   32     -8.31185    2.00000
   33     -8.08331    2.00000
   34     -7.70394    2.00000
   35     -7.41407    2.00000
   36     -7.33306    2.00000
   37     -7.29584    2.00000
   38     -6.89917    2.00000
   39     -6.52980    2.00000
   40     -6.28057    2.00000
   41     -6.15801    2.00000
   42     -6.02483    2.00000
   43     -5.66922    1.99999
   44     -5.29710    1.99945
   45     -5.21513    1.99875
   46     -4.84339    1.94997
   47     -4.65396    1.70859
   48     -4.31353    0.32612
   49     -3.98836    0.01497
   50     -3.77006    0.00170
   51     -3.61341    0.00035
   52     -3.46850    0.00008
   53     -3.31484    0.00002
   54     -3.01747    0.00000
   55     -2.35676    0.00000
   56     -2.30740    0.00000
   57     -1.55434    0.00000
   58     -0.79212    0.00000
   59     -0.70623    0.00000
   60     -0.39502    0.00000
   61     -0.34252    0.00000
   62      0.29941    0.00000
   63      0.77023    0.00000
   64      0.89744    0.00000
   65      1.33894    0.00000
   66      1.57722    0.00000
   67      1.88582    0.00000
   68      2.72901    0.00000
   69      2.86887    0.00000
   70      3.34956    0.00000
   71      3.89262    0.00000
   72      4.16182    0.00000
   73      4.30612    0.00000
   74      4.96290    0.00000
   75      5.27542    0.00000
   76      5.74154    0.00000
   77      6.87793    0.00000
   78      7.13967    0.00000
   79      7.48744    0.00000
   80      7.68955    0.00000
   81      7.90781    0.00000
   82      8.08970    0.00000
   83      8.20778    0.00000
   84      8.53845    0.00000
   85      8.65569    0.00000
   86      8.70206    0.00000
   87      8.83694    0.00000
   88      9.05270    0.00000
   89      9.20516    0.00000
   90      9.41059    0.00000
   91      9.56182    0.00000
   92      9.64383    0.00000
   93      9.78436    0.00000
   94      9.90495    0.00000
   95     10.03475    0.00000
   96     10.06995    0.00000
   97     10.18187    0.00000


Forces in eV/Ang:
  0 C     0.53162   -0.71484   -1.33470
  1 C    -1.62291   -0.40245    1.09742
  2 C    -1.33447   -0.98585    2.32755
  3 C     0.09289    0.95878    0.23394
  4 C     0.13870   -0.18766   -0.16824
  5 C    -1.11882    0.17130   -0.23941
  6 C    -1.01572   -0.49122   -0.55319
  7 C     0.67590   -0.41538    0.31439
  8 C     0.15472   -0.15341   -0.12310
  9 C    -0.94056    0.28392    0.19773
 10 C    -0.46198    0.59320    0.16827
 11 C     0.39346   -0.22614   -0.16167
 12 C    -0.50414   -3.85858   -0.59383
 13 C    -0.26500   -0.75834    0.03776
 14 C    -0.52861   -0.59965    0.10273
 15 C    -0.00298    2.10356    0.48639
 16 C    -0.72385    0.48101   -0.01575
 17 C     1.10735    1.00326   -1.51215
 18 C     0.06173    0.45806   -0.03288
 19 C    -0.35685   -0.41839    0.04945
 20 C     0.72130    1.24356   -0.23980
 21 C     0.27873    0.20669   -0.02380
 22 C    -0.55059    1.91844    0.26862
 23 C     5.12803   -0.34296   -0.34630

System changes: positions 

Initializing position-dependent things.

Density initialized from wave functions
           .--------------------------------------.  
          /|                                      |  
         / |                                      |  
        /  |                                      |  
       /   |                                      |  
      /    |                                      |  
     /     |                                      |  
    /      |                                      |  
   /       |                                      |  
  /        |     C  C         C                   |  
 *         |    C          C    C  C              |  
 |         |        C  C  C  C    C               |  
 |         .------C------C---C--C-----------------.  
 |        /         C       C C                  /   
 |       /         CC     C                     /    
 |      /              C                       /     
 |     /                                      /      
 |    /                                      /       
 |   /                                      /        
 |  /                                      /         
 | /                                      /          
 |/                                      /           
 *--------------------------------------*            

Positions:
   0 C      5.951641    7.316959    5.604505
   1 C      8.243879    6.591045    5.011990
   2 C      6.474564    5.160319    4.510484
   3 C      5.608735    6.056340    5.313722
   4 C     10.233367    9.812177    4.912447
   5 C      9.333936    8.604871    4.847346
   6 C      9.545342    7.209907    4.983916
   7 C      9.197219   10.829994    4.795524
   8 C      6.170554    6.627787    3.881627
   9 C      7.960079    8.917348    4.704360
  10 C      7.215350    7.646882    4.826395
  11 C      7.984685   10.369122    4.730090
  12 C     11.573357    9.346330    4.978143
  13 C      3.770794   11.191487    4.942198
  14 C      8.525974    2.367400    4.964139
  15 C     11.686903    7.982265    4.848450
  16 C      9.515055    3.217218    5.001580
  17 C      6.397885    3.769823    4.721285
  18 C      3.667513    9.860627    4.986258
  19 C     10.160971    4.352692    4.981322
  20 C      7.258900    2.813143    4.854803
  21 C      4.756603   12.072965    4.917317
  22 C     11.110657    6.745211    4.883712
  23 C     10.243391    5.655187    4.895750

Unit cell:
           periodic     x           y           z      points  spacing
  1. axis:    yes   16.000000    0.000000    0.000000    80     0.2000
  2. axis:    yes    0.000000   16.000000    0.000000    80     0.2000
  3. axis:    yes    0.000000    0.000000   10.000000    48     0.2083

Effective grid spacing dv^(1/3) = 0.2027

                     log10-error:    total        iterations:
           time      wfs    density  energy       fermi  poisson
iter:   1  09:33:25          +inf  -167.031170    3      5      
iter:   2  09:33:25         -1.98  -166.978200    3      2      
iter:   3  09:33:26         -2.13  -166.932720    3      2      
iter:   4  09:33:26         -2.50  -166.934188    2      2      
iter:   5  09:33:27         -2.66  -166.927910    2      1      
iter:   6  09:33:27         -2.77  -166.931974    2      2      
iter:   7  09:33:28         -2.99  -166.932234    2      1      
iter:   8  09:33:28         -3.10  -166.932593    2      2      
iter:   9  09:33:29         -3.40  -166.933126    2      1      
iter:  10  09:33:29         -3.47  -166.932572    2      1      
iter:  11  09:33:30         -3.67  -166.932081    2      1      
iter:  12  09:33:30         -3.85  -166.933093    2      1      
iter:  13  09:33:31         -3.93  -166.933532    2      1      
iter:  14  09:33:31         -4.07  -166.933107    2      1      

Converged after 14 iterations.

Dipole moment: (0.105642, -0.354421, 0.093671) |e|*Ang

Energy contributions relative to reference atoms: (reference = -24663.074771)

Kinetic:        +92.663965
Potential:      -99.363692
External:        +0.000000
XC:            -163.045845
Entropy (-ST):   -0.179190
Local:           +2.902059
--------------------------
Free energy:   -167.022702
Extrapolated:  -166.933107

Fermi level: -4.45025

 Band  Eigenvalues  Occupancy
    0    -23.74616    2.00000
    1    -23.08841    2.00000
    2    -21.81984    2.00000
    3    -20.75940    2.00000
    4    -20.56785    2.00000
    5    -19.89353    2.00000
    6    -19.65279    2.00000
    7    -19.33142    2.00000
    8    -18.34255    2.00000
    9    -17.63413    2.00000
   10    -17.42400    2.00000
   11    -16.48856    2.00000
   12    -16.04009    2.00000
   13    -15.96337    2.00000
   14    -15.47459    2.00000
   15    -15.08834    2.00000
   16    -14.30476    2.00000
   17    -13.54171    2.00000
   18    -13.00213    2.00000
   19    -12.67128    2.00000
   20    -12.38824    2.00000
   21    -12.13095    2.00000
   22    -11.35260    2.00000
   23    -10.73017    2.00000
   24    -10.27411    2.00000
   25    -10.16842    2.00000
   26     -9.80695    2.00000
   27     -9.68255    2.00000
   28     -9.05235    2.00000
   29     -8.97613    2.00000
   30     -8.63660    2.00000
   31     -8.53743    2.00000
   32     -8.30723    2.00000
   33     -8.07346    2.00000
   34     -7.74688    2.00000
   35     -7.41388    2.00000
   36     -7.37240    2.00000
   37     -7.30528    2.00000
   38     -6.92804    2.00000
   39     -6.52950    2.00000
   40     -6.28452    2.00000
   41     -6.22033    2.00000
   42     -6.03075    2.00000
   43     -5.67899    1.99999
   44     -5.26703    1.99943
   45     -5.23595    1.99923
   46     -4.85253    1.96483
   47     -4.65157    1.76435
   48     -4.25650    0.25184
   49     -3.98374    0.01866
   50     -3.71473    0.00128
   51     -3.56587    0.00029
   52     -3.43597    0.00008
   53     -3.31145    0.00002
   54     -2.95453    0.00000
   55     -2.28729    0.00000
   56     -2.26463    0.00000
   57     -1.50241    0.00000
   58     -0.73158    0.00000
   59     -0.65502    0.00000
   60     -0.39552    0.00000
   61     -0.30316    0.00000
   62      0.50084    0.00000
   63      0.81734    0.00000
   64      0.96146    0.00000
   65      1.37182    0.00000
   66      1.57255    0.00000
   67      1.93712    0.00000
   68      2.75311    0.00000
   69      2.94031    0.00000
   70      3.43007    0.00000
   71      3.92428    0.00000
   72      4.21605    0.00000
   73      4.32560    0.00000
   74      4.88102    0.00000
   75      5.38926    0.00000
   76      5.77297    0.00000
   77      6.90394    0.00000
   78      7.18788    0.00000
   79      7.49726    0.00000
   80      7.73429    0.00000
   81      7.90751    0.00000
   82      8.13896    0.00000
   83      8.27933    0.00000
   84      8.56916    0.00000
   85      8.65838    0.00000
   86      8.74879    0.00000
   87      8.88367    0.00000
   88      9.03850    0.00000
   89      9.19922    0.00000
   90      9.45244    0.00000
   91      9.54127    0.00000
   92      9.63890    0.00000
   93      9.79382    0.00000
   94      9.94880    0.00000
   95     10.03177    0.00000
   96     10.12216    0.00000
   97     10.26023    0.00000


Forces in eV/Ang:
  0 C     0.50888   -0.34340   -1.11495
  1 C    -1.40966   -0.31027    1.06428
  2 C    -1.15446   -0.47907    2.08295
  3 C    -0.14727    0.57582    0.22670
  4 C    -0.03373   -0.19324   -0.17688
  5 C    -1.00394    0.04416   -0.20813
  6 C    -0.83258   -0.55261   -0.57615
  7 C     0.85078   -0.29899    0.30772
  8 C     0.16317   -0.18916   -0.15459
  9 C    -0.86631    0.27362    0.16764
 10 C    -0.47162    0.65243    0.14788
 11 C     0.24626   -0.20208   -0.17283
 12 C    -0.62655   -2.89767   -0.49167
 13 C    -0.20451   -0.72167    0.03567
 14 C    -0.55943   -0.62508    0.11483
 15 C     0.24979    1.40563    0.40314
 16 C    -0.63000    0.64393   -0.04107
 17 C     0.91952    0.68943   -1.34423
 18 C     0.06422    0.47273   -0.03299
 19 C    -0.30085   -0.56605    0.04790
 20 C     0.79417    1.06356   -0.26234
 21 C     0.21421    0.15446   -0.02185
 22 C    -0.86301    1.67591    0.28548
 23 C     4.94935   -0.32232   -0.30771

System changes: positions 

Initializing position-dependent things.

Density initialized from wave functions
           .--------------------------------------.  
          /|                                      |  
         / |                                      |  
        /  |                                      |  
       /   |                                      |  
      /    |                                      |  
     /     |                                      |  
    /      |                                      |  
   /       |                                      |  
  /        |     C  C         C                   |  
 *         |    C          C    C  C              |  
 |         |        C  C  C  C    C               |  
 |         .------C------C---C--C-----------------.  
 |        /         C       C C                  /   
 |       /         CC     C                     /    
 |      /              C                       /     
 |     /                                      /      
 |    /                                      /       
 |   /                                      /        
 |  /                                      /         
 | /                                      /          
 |/                                      /           
 *--------------------------------------*            

Positions:
   0 C      5.954986    7.314631    5.595458
   1 C      8.232376    6.588016    5.019978
   2 C      6.466260    5.155873    4.526892
   3 C      5.607468    6.061503    5.315731
   4 C     10.233489    9.810271    4.911197
   5 C      9.326855    8.603995    4.845835
   6 C      9.537363    7.209658    4.979292
   7 C      9.200410   10.826591    4.797673
   8 C      6.171314    6.627623    3.880596
   9 C      7.952799    8.921014    4.705603
  10 C      7.211428    7.651137    4.828142
  11 C      7.989660   10.368070    4.728671
  12 C     11.568025    9.328340    4.974848
  13 C      3.771032   11.191462    4.942317
  14 C      8.525396    2.362429    4.965503
  15 C     11.690688    7.989524    4.851100
  16 C      9.508261    3.220079    5.001036
  17 C      6.404330    3.774118    4.710672
  18 C      3.667663    9.859895    4.986110
  19 C     10.159085    4.352031    4.981580
  20 C      7.262836    2.822292    4.852340
  21 C      4.756881   12.072891    4.917170
  22 C     11.104934    6.758345    4.885991
  23 C     10.282508    5.647132    4.893523

Unit cell:
           periodic     x           y           z      points  spacing
  1. axis:    yes   16.000000    0.000000    0.000000    80     0.2000
  2. axis:    yes    0.000000   16.000000    0.000000    80     0.2000
  3. axis:    yes    0.000000    0.000000   10.000000    48     0.2083

Effective grid spacing dv^(1/3) = 0.2027

                     log10-error:    total        iterations:
           time      wfs    density  energy       fermi  poisson
iter:   1  09:33:33          +inf  -167.436527    3      5      
iter:   2  09:33:33         -2.12  -167.409259    2      2      
iter:   3  09:33:34         -2.26  -167.383315    3      2      
iter:   4  09:33:34         -2.58  -167.384963    2      2      
iter:   5  09:33:35         -2.77  -167.380270    2      1      
iter:   6  09:33:35         -2.87  -167.383506    2      2      
iter:   7  09:33:35         -3.09  -167.383302    2      1      
iter:   8  09:33:36         -3.19  -167.380146    2      1      
iter:   9  09:33:36         -3.50  -167.383923    2      1      
iter:  10  09:33:37         -3.57  -167.384638    2      1      
iter:  11  09:33:37         -3.71  -167.383006    2      1      
iter:  12  09:33:38         -3.81  -167.384411    2      1      
iter:  13  09:33:38         -3.94  -167.385440    2      1      
iter:  14  09:33:39         -4.05  -167.384079    2      1      

Converged after 14 iterations.

Dipole moment: (0.111217, -0.334615, 0.096307) |e|*Ang

Energy contributions relative to reference atoms: (reference = -24663.074771)

Kinetic:        +96.238829
Potential:     -102.441292
External:        +0.000000
XC:            -164.020150
Entropy (-ST):   -0.157521
Local:           +2.917295
--------------------------
Free energy:   -167.462839
Extrapolated:  -167.384079

Fermi level: -4.43183

 Band  Eigenvalues  Occupancy
    0    -23.78410    2.00000
    1    -23.03574    2.00000
    2    -21.78854    2.00000
    3    -20.77416    2.00000
    4    -20.58588    2.00000
    5    -19.88586    2.00000
    6    -19.67086    2.00000
    7    -19.37458    2.00000
    8    -18.35133    2.00000
    9    -17.65785    2.00000
   10    -17.40408    2.00000
   11    -16.47926    2.00000
   12    -16.03332    2.00000
   13    -15.97681    2.00000
   14    -15.52402    2.00000
   15    -15.08248    2.00000
   16    -14.32819    2.00000
   17    -13.57275    2.00000
   18    -12.98903    2.00000
   19    -12.66971    2.00000
   20    -12.42869    2.00000
   21    -12.16626    2.00000
   22    -11.42003    2.00000
   23    -10.73449    2.00000
   24    -10.27484    2.00000
   25    -10.17417    2.00000
   26     -9.80540    2.00000
   27     -9.67770    2.00000
   28     -9.04671    2.00000
   29     -9.00827    2.00000
   30     -8.63900    2.00000
   31     -8.53145    2.00000
   32     -8.30462    2.00000
   33     -8.06767    2.00000
   34     -7.77696    2.00000
   35     -7.41510    2.00000
   36     -7.40367    2.00000
   37     -7.31258    2.00000
   38     -6.95689    2.00000
   39     -6.52948    2.00000
   40     -6.29555    2.00000
   41     -6.26180    2.00000
   42     -6.03699    2.00000
   43     -5.68119    1.99999
   44     -5.26348    1.99951
   45     -5.23655    1.99936
   46     -4.87136    1.97563
   47     -4.65218    1.80111
   48     -4.21285    0.20134
   49     -3.98011    0.02160
   50     -3.68491    0.00114
   51     -3.52044    0.00022
   52     -3.40734    0.00007
   53     -3.30541    0.00003
   54     -2.90300    0.00000
   55     -2.24141    0.00000
   56     -2.23406    0.00000
   57     -1.45494    0.00000
   58     -0.68891    0.00000
   59     -0.60297    0.00000
   60     -0.39407    0.00000
   61     -0.26674    0.00000
   62      0.67920    0.00000
   63      0.88986    0.00000
   64      1.05425    0.00000
   65      1.39719    0.00000
   66      1.57220    0.00000
   67      1.97659    0.00000
   68      2.76892    0.00000
   69      2.98964    0.00000
   70      3.50540    0.00000
   71      3.92308    0.00000
   72      4.24579    0.00000
   73      4.36537    0.00000
   74      4.81756    0.00000
   75      5.50103    0.00000
   76      5.79670    0.00000
   77      6.92044    0.00000
   78      7.20475    0.00000
   79      7.49732    0.00000
   80      7.76057    0.00000
   81      7.90539    0.00000
   82      8.15866    0.00000
   83      8.34582    0.00000
   84      8.57707    0.00000
   85      8.63589    0.00000
   86      8.79057    0.00000
   87      8.92072    0.00000
   88      9.02517    0.00000
   89      9.18721    0.00000
   90      9.48240    0.00000
   91      9.50998    0.00000
   92      9.63668    0.00000
   93      9.80277    0.00000
   94      9.98492    0.00000
   95     10.01639    0.00000
   96     10.15808    0.00000
   97     10.32545    0.00000


Forces in eV/Ang:
  0 C     0.45893   -0.07818   -0.95035
  1 C    -1.18394   -0.23602    1.02045
  2 C    -0.98892   -0.07684    1.83035
  3 C    -0.31362    0.29779    0.21502
  4 C    -0.17770   -0.20139   -0.18417
  5 C    -0.90922   -0.02944   -0.18413
  6 C    -0.67080   -0.56321   -0.59310
  7 C     0.95906   -0.18654    0.29789
  8 C     0.16815   -0.22450   -0.17675
  9 C    -0.77611    0.25893    0.14696
 10 C    -0.46262    0.65633    0.13371
 11 C     0.12375   -0.17719   -0.18006
 12 C    -0.69110   -2.17202   -0.41827
 13 C    -0.20984   -0.77010    0.03638
 14 C    -0.53181   -0.59195    0.13374
 15 C     0.44350    0.90924    0.34057
 16 C    -0.64545    0.58874   -0.06274
 17 C     0.72343    0.50939   -1.19358
 18 C     0.07052    0.51573   -0.03396
 19 C    -0.17175   -0.47392    0.03778
 20 C     0.91226    0.86749   -0.27981
 21 C     0.21614    0.15822   -0.02210
 22 C    -1.12713    1.43497    0.30437
 23 C     4.70165   -0.49404   -0.27605

System changes: positions 

Initializing position-dependent things.

Density initialized from wave functions
           .--------------------------------------.  
          /|                                      |  
         / |                                      |  
        /  |                                      |  
       /   |                                      |  
      /    |                                      |  
     /     |                                      |  
    /      |                                      |  
   /       |                                      |  
  /        |     C  C         C                   |  
 *         |    C          C    C  C              |  
 |         |        C  C  C  C     C              |  
 |         .------C------C---C--C-----------------.  
 |        /         C       C C                  /   
 |       /         CC     C                     /    
 |      /              C                       /     
 |     /                                      /      
 |    /                                      /       
 |   /                                      /        
 |  /                                      /         
 | /                                      /          
 |/                                      /           
 *--------------------------------------*            

Positions:
   0 C      5.957657    7.313283    5.586976
   1 C      8.222624    6.585352    5.027945
   2 C      6.458793    5.153657    4.542128
   3 C      5.605410    6.065921    5.317852
   4 C     10.232569    9.808016    4.909822
   5 C      9.320142    8.602894    4.844393
   6 C      9.530115    7.209607    4.974358
   7 C      9.204056   10.823865    4.799833
   8 C      6.172068    6.627113    3.879480
   9 C      7.946049    8.924687    4.706771
  10 C      7.207464    7.655313    4.829922
  11 C      7.994189   10.367270    4.727141
  12 C     11.562324    9.314962    4.971933
  13 C      3.770974   11.190538    4.942470
  14 C      8.525036    2.357709    4.967103
  15 C     11.696112    7.993855    4.853435
  16 C      9.500889    3.222119    5.000341
  17 C      6.409638    3.777953    4.700558
  18 C      3.667893    9.859765    4.985936
  19 C     10.158290    4.352464    4.981715
  20 C      7.267996    2.830332    4.849591
  21 C      4.757428   12.073059    4.917005
  22 C     11.096770    6.769901    4.888570
  23 C     10.321060    5.636669    4.891451

Unit cell:
           periodic     x           y           z      points  spacing
  1. axis:    yes   16.000000    0.000000    0.000000    80     0.2000
  2. axis:    yes    0.000000   16.000000    0.000000    80     0.2000
  3. axis:    yes    0.000000    0.000000   10.000000    48     0.2083

Effective grid spacing dv^(1/3) = 0.2027

                     log10-error:    total        iterations:
           time      wfs    density  energy       fermi  poisson
iter:   1  09:33:40          +inf  -167.801604    3      5      
iter:   2  09:33:41         -2.22  -167.782940    2      1      
iter:   3  09:33:41         -2.34  -167.767945    3      2      
iter:   4  09:33:42         -2.64  -167.775023    2      2      
iter:   5  09:33:42         -2.64  -167.768935    2      2      
iter:   6  09:33:43         -2.84  -167.769333    2      2      
iter:   7  09:33:43         -3.13  -167.768155    2      1      
iter:   8  09:33:44         -3.26  -167.767503    2      1      
iter:   9  09:33:44         -3.56  -167.769780    2      1      
iter:  10  09:33:45         -3.64  -167.770206    2      1      
iter:  11  09:33:45         -3.78  -167.769295    2      1      
iter:  12  09:33:45         -3.89  -167.770248    2      1      
iter:  13  09:33:46         -4.09  -167.770144    2      1      

Converged after 13 iterations.

Dipole moment: (0.113128, -0.325673, 0.099172) |e|*Ang

Energy contributions relative to reference atoms: (reference = -24663.074771)

Kinetic:        +99.331310
Potential:     -105.109818
External:        +0.000000
XC:            -164.842536
Entropy (-ST):   -0.140518
Local:           +2.921160
--------------------------
Free energy:   -167.840403
Extrapolated:  -167.770144

Fermi level: -4.41836

 Band  Eigenvalues  Occupancy
    0    -23.82187    2.00000
    1    -22.97780    2.00000
    2    -21.75329    2.00000
    3    -20.79833    2.00000
    4    -20.59167    2.00000
    5    -19.88095    2.00000
    6    -19.68461    2.00000
    7    -19.40344    2.00000
    8    -18.35969    2.00000
    9    -17.68268    2.00000
   10    -17.38202    2.00000
   11    -16.46636    2.00000
   12    -16.02937    2.00000
   13    -15.98781    2.00000
   14    -15.55710    2.00000
   15    -15.07173    2.00000
   16    -14.34484    2.00000
   17    -13.60403    2.00000
   18    -12.98555    2.00000
   19    -12.67169    2.00000
   20    -12.45871    2.00000
   21    -12.17407    2.00000
   22    -11.47961    2.00000
   23    -10.73828    2.00000
   24    -10.27058    2.00000
   25    -10.17461    2.00000
   26     -9.80523    2.00000
   27     -9.66982    2.00000
   28     -9.05206    2.00000
   29     -9.03260    2.00000
   30     -8.64907    2.00000
   31     -8.52666    2.00000
   32     -8.30316    2.00000
   33     -8.06410    2.00000
   34     -7.79662    2.00000
   35     -7.42764    2.00000
   36     -7.41251    2.00000
   37     -7.31683    2.00000
   38     -6.98296    2.00000
   39     -6.53145    2.00000
   40     -6.31598    2.00000
   41     -6.27605    2.00000
   42     -6.03991    2.00000
   43     -5.67395    1.99999
   44     -5.28310    1.99965
   45     -5.22022    1.99934
   46     -4.89656    1.98338
   47     -4.65428    1.82732
   48     -4.17746    0.16498
   49     -3.97722    0.02399
   50     -3.66735    0.00109
   51     -3.47836    0.00017
   52     -3.37993    0.00006
   53     -3.29422    0.00003
   54     -2.86090    0.00000
   55     -2.22949    0.00000
   56     -2.19851    0.00000
   57     -1.41419    0.00000
   58     -0.65723    0.00000
   59     -0.54836    0.00000
   60     -0.39202    0.00000
   61     -0.23719    0.00000
   62      0.77342    0.00000
   63      1.00059    0.00000
   64      1.20183    0.00000
   65      1.42759    0.00000
   66      1.57212    0.00000
   67      2.00470    0.00000
   68      2.78408    0.00000
   69      3.02619    0.00000
   70      3.57472    0.00000
   71      3.91028    0.00000
   72      4.25780    0.00000
   73      4.42390    0.00000
   74      4.76698    0.00000
   75      5.60630    0.00000
   76      5.82014    0.00000
   77      6.93087    0.00000
   78      7.20523    0.00000
   79      7.49341    0.00000
   80      7.77817    0.00000
   81      7.90629    0.00000
   82      8.16925    0.00000
   83      8.39494    0.00000
   84      8.54405    0.00000
   85      8.62956    0.00000
   86      8.81334    0.00000
   87      8.95173    0.00000
   88      9.01780    0.00000
   89      9.17413    0.00000
   90      9.46698    0.00000
   91      9.51260    0.00000
   92      9.63744    0.00000
   93      9.82020    0.00000
   94     10.00348    0.00000
   95     10.01715    0.00000
   96     10.18212    0.00000
   97     10.37688    0.00000


Forces in eV/Ang:
  0 C     0.37859    0.12924   -0.79790
  1 C    -0.94350   -0.16317    0.94622
  2 C    -0.86814    0.18424    1.65072
  3 C    -0.45751    0.10182    0.21498
  4 C    -0.28299   -0.21662   -0.19057
  5 C    -0.81510   -0.08934   -0.16516
  6 C    -0.50268   -0.49392   -0.59238
  7 C     0.97746   -0.09386    0.28799
  8 C     0.17234   -0.26363   -0.18846
  9 C    -0.68300    0.23582    0.11739
 10 C    -0.42849    0.64143    0.11942
 11 C     0.03101   -0.12603   -0.17945
 12 C    -0.72412   -1.60872   -0.35800
 13 C    -0.15488   -0.68650    0.03401
 14 C    -0.47482   -0.58034    0.15525
 15 C     0.58591    0.57238    0.29572
 16 C    -0.51718    0.64069   -0.07548
 17 C     0.61697    0.30218   -1.06725
 18 C     0.07065    0.47287   -0.03102
 19 C    -0.13649   -0.62675    0.03592
 20 C     0.85812    0.75889   -0.30309
 21 C     0.16446    0.11321   -0.02092
 22 C    -1.37658    1.25946    0.30635
 23 C     4.41646   -0.61324   -0.24296

System changes: positions 

Initializing position-dependent things.

Density initialized from wave functions
           .--------------------------------------.  
          /|                                      |  
         / |                                      |  
        /  |                                      |  
       /   |                                      |  
      /    |                                      |  
     /     |                                      |  
    /      |                                      |  
   /       |                                      |  
  /        |     C  C         C                   |  
 *         |    C          C    C  C              |  
 |         |        C  C  C  C     C              |  
 |         .------C------C---C--C-----------------.  
 |        /         C       C C                  /   
 |       /         C C    C                     /    
 |      /              C                       /     
 |     /                                      /      
 |    /                                      /       
[...]
   12    -16.84603    2.00000
   13    -15.97054    2.00000
   14    -15.70308    2.00000
   15    -14.93268    2.00000
   16    -14.57545    2.00000
   17    -14.00511    2.00000
   18    -13.75908    2.00000
   19    -13.17045    2.00000
   20    -12.52103    2.00000
   21    -12.23436    2.00000
   22    -12.02237    2.00000
   23    -10.98079    2.00000
   24    -10.95157    2.00000
   25    -10.53818    2.00000
   26    -10.31270    2.00000
   27     -9.82675    2.00000
   28     -9.57813    2.00000
   29     -9.38379    2.00000
   30     -9.27126    2.00000
   31     -9.10439    2.00000
   32     -9.03440    2.00000
   33     -8.26252    2.00000
   34     -8.04309    2.00000
   35     -8.01470    2.00000
   36     -7.51642    2.00000
   37     -7.22744    2.00000
   38     -6.75063    2.00000
   39     -6.47104    2.00000
   40     -6.44065    2.00000
   41     -6.30765    2.00000
   42     -6.08522    2.00000
   43     -5.82464    1.99999
   44     -5.65290    1.99994
   45     -5.19899    1.99394
   46     -4.95323    1.93147
   47     -4.74005    1.53950
   48     -4.50096    0.46869
   49     -4.28130    0.06582
   50     -3.81814    0.00066
   51     -3.09284    0.00000
   52     -2.75717    0.00000
   53     -2.54216    0.00000
   54     -2.21522    0.00000
   55     -2.10255    0.00000
   56     -1.76633    0.00000
   57     -0.70838    0.00000
   58     -0.27092    0.00000
   59     -0.15798    0.00000
   60      0.44268    0.00000
   61      0.93795    0.00000
   62      1.36065    0.00000
   63      1.53691    0.00000
   64      2.97316    0.00000
   65      3.07960    0.00000
   66      3.77769    0.00000
   67      4.18390    0.00000
   68      4.49320    0.00000
   69      4.69279    0.00000
   70      4.87135    0.00000
   71      5.41534    0.00000
   72      5.66392    0.00000
   73      6.02736    0.00000
   74      6.25996    0.00000
   75      6.61415    0.00000
   76      6.92145    0.00000
   77      7.55392    0.00000
   78      7.92338    0.00000
   79      8.25638    0.00000
   80      8.42782    0.00000
   81      8.58624    0.00000
   82      8.67131    0.00000
   83      8.85727    0.00000
   84      9.03810    0.00000
   85      9.16910    0.00000
   86      9.35608    0.00000
   87      9.41386    0.00000
   88      9.55356    0.00000
   89      9.67090    0.00000
   90      9.80103    0.00000
   91      9.84674    0.00000
   92      9.98614    0.00000
   93     10.16192    0.00000
   94     10.17847    0.00000
   95     10.22225    0.00000
   96     10.39769    0.00000
   97     10.40894    0.00000


Forces in eV/Ang:
  0 C     0.02140    0.03878    0.01716
  1 C    -0.00640    0.05428   -0.02290
  2 C    -0.01415   -0.00021   -0.01513
  3 C     0.07027   -0.05650   -0.00677
  4 C     0.01760   -0.01888   -0.02104
  5 C    -0.02695   -0.00781   -0.00519
  6 C    -0.00571   -0.05881   -0.01706
  7 C     0.01276    0.03852    0.02011
  8 C     0.02082    0.00129    0.02738
  9 C     0.04967   -0.02193    0.00746
 10 C    -0.02044    0.00674    0.00063
 11 C     0.01864   -0.00788    0.01541
 12 C    -0.01987    0.00151   -0.03230
 13 C    -0.09631    0.03536    0.05530
 14 C    -0.05145   -0.06819   -0.02067
 15 C    -0.03962   -0.07440   -0.00906
 16 C     0.02264    0.06676   -0.00939
 17 C    -0.03146   -0.01895   -0.03430
 18 C     0.03502   -0.00705   -0.04843
 19 C     0.01939   -0.03790    0.02543
 20 C     0.00062    0.00879    0.02327
 21 C    -0.02651    0.00372    0.01539
 22 C    -0.00115   -0.02134    0.03531
 23 C    -0.01520    0.07422   -0.00279

System changes: positions 

Initializing position-dependent things.

Density initialized from wave functions
           .--------------------------------------.  
          /|                                      |  
         / |                                      |  
        /  |                                      |  
       /   |                                      |  
      /    |                                      |  
     /     |        C                             |  
    /      |          C                           |  
   /       |            C                         |  
  /        |              C  C                    |  
 *         |             C     C                  |  
 |         |       C  C     C    C                |  
 |         .-----C------C---C----C----------------.  
 |        /        C           C                 /   
 |       /        C   C      CC                 /    
 |      /           C   C C                    /     
 |     /                                      /      
 |    /                                      /       
 |   /                                      /        
 |  /                                      /         
 | /                                      /          
 |/                                      /           
 *--------------------------------------*            

Positions:
   0 C      5.407918    7.111245    5.205360
   1 C      7.691457    6.684637    4.440374
   2 C      6.052951    4.802118    4.689382
   3 C      7.261606    5.410581    4.243000
   4 C      9.631074    9.783980    4.911954
   5 C      8.712275    8.704514    4.593332
   6 C      8.992381    7.356518    4.296537
   7 C      8.882186   10.717404    5.664740
   8 C      5.180348    5.855207    5.056019
   9 C      7.362588    8.956810    5.000221
  10 C      6.676237    7.705109    4.978961
  11 C      7.452354   10.320907    5.596941
  12 C     10.915760    9.235023    4.631487
  13 C      5.468263   11.688034    6.694859
  14 C      8.599180    2.473683    4.608172
  15 C     11.244503    8.062947    4.278034
  16 C      9.639763    3.158399    4.361062
  17 C      6.252911    3.395255    4.866899
  18 C      4.492891   12.337923    7.314767
  19 C     10.321523    4.305746    4.165353
  20 C      7.272257    2.640697    4.793865
  21 C      6.440065   11.020442    6.156162
  22 C     10.364940    6.920339    4.158164
  23 C     10.608110    5.530211    4.071544

Unit cell:
           periodic     x           y           z      points  spacing
  1. axis:    yes   16.000000    0.000000    0.000000    80     0.2000
  2. axis:    yes    0.000000   16.000000    0.000000    80     0.2000
  3. axis:    yes    0.000000    0.000000   10.000000    48     0.2083

Effective grid spacing dv^(1/3) = 0.2027

                     log10-error:    total        iterations:
           time      wfs    density  energy       fermi  poisson
iter:   1  10:14:00          +inf  -180.555773    2      4      
iter:   2  10:14:01         -2.91  -180.553645    2      1      
iter:   3  10:14:01         -3.19  -180.553180    2      1      
iter:   4  10:14:02         -3.32  -180.552985    2      1      
iter:   5  10:14:02         -3.39  -180.552509    2      1      
iter:   6  10:14:03         -3.16  -180.555662    2      1      
iter:   7  10:14:03         -2.93  -180.555799    2      1      
iter:   8  10:14:04         -2.95  -180.552997    2      1      
iter:   9  10:14:04         -3.62  -180.552769    2      1      
iter:  10  10:14:05         -3.89  -180.553215    2      1      
iter:  11  10:14:05         -3.71  -180.552905    2      1      
iter:  12  10:14:06         -4.05  -180.552803    2      1      

Converged after 12 iterations.

Dipole moment: (0.398139, -0.701357, -0.348361) |e|*Ang

Energy contributions relative to reference atoms: (reference = -24663.074771)

Kinetic:       +109.661719
Potential:     -119.144095
External:        +0.000000
XC:            -173.953924
Entropy (-ST):   -0.281612
Local:           +3.024304
--------------------------
Free energy:   -180.693609
Extrapolated:  -180.552803

Fermi level: -4.62057

 Band  Eigenvalues  Occupancy
    0    -22.88202    2.00000
    1    -21.61883    2.00000
    2    -21.21977    2.00000
    3    -20.79367    2.00000
    4    -20.28777    2.00000
    5    -20.18373    2.00000
    6    -19.49925    2.00000
    7    -19.07192    2.00000
    8    -18.48756    2.00000
    9    -18.06542    2.00000
   10    -17.59617    2.00000
   11    -17.34715    2.00000
   12    -16.84829    2.00000
   13    -15.97489    2.00000
   14    -15.70173    2.00000
   15    -14.93188    2.00000
   16    -14.57418    2.00000
   17    -14.00344    2.00000
   18    -13.75857    2.00000
   19    -13.17101    2.00000
   20    -12.52022    2.00000
   21    -12.22672    2.00000
   22    -12.02192    2.00000
   23    -10.98168    2.00000
   24    -10.95362    2.00000
   25    -10.53564    2.00000
   26    -10.31073    2.00000
   27     -9.81998    2.00000
   28     -9.57779    2.00000
   29     -9.38383    2.00000
   30     -9.27127    2.00000
   31     -9.10417    2.00000
   32     -9.03537    2.00000
   33     -8.26291    2.00000
   34     -8.04677    2.00000
   35     -8.01488    2.00000
   36     -7.51773    2.00000
   37     -7.22779    2.00000
   38     -6.74929    2.00000
   39     -6.47179    2.00000
   40     -6.44166    2.00000
   41     -6.30847    2.00000
   42     -6.08264    2.00000
   43     -5.82433    1.99999
   44     -5.65095    1.99993
   45     -5.19743    1.99377
   46     -4.95402    1.93119
   47     -4.74021    1.53580
   48     -4.50323    0.47251
   49     -4.28302    0.06614
   50     -3.81960    0.00066
   51     -3.09004    0.00000
   52     -2.75353    0.00000
   53     -2.54443    0.00000
   54     -2.20184    0.00000
   55     -2.10097    0.00000
   56     -1.76082    0.00000
   57     -0.70604    0.00000
   58     -0.27959    0.00000
   59     -0.16005    0.00000
   60      0.44176    0.00000
   61      0.93795    0.00000
   62      1.36120    0.00000
   63      1.53548    0.00000
   64      2.97243    0.00000
   65      3.07756    0.00000
   66      3.77389    0.00000
   67      4.18711    0.00000
   68      4.49911    0.00000
   69      4.69314    0.00000
   70      4.87037    0.00000
   71      5.41363    0.00000
   72      5.66523    0.00000
   73      6.02736    0.00000
   74      6.25690    0.00000
   75      6.61257    0.00000
   76      6.91352    0.00000
   77      7.55566    0.00000
   78      7.92643    0.00000
   79      8.25301    0.00000
   80      8.41838    0.00000
   81      8.58383    0.00000
   82      8.67043    0.00000
   83      8.85727    0.00000
   84      9.03820    0.00000
   85      9.16595    0.00000
   86      9.35415    0.00000
   87      9.41129    0.00000
   88      9.55849    0.00000
   89      9.66695    0.00000
   90      9.80015    0.00000
   91      9.84337    0.00000
   92      9.98734    0.00000
   93     10.16130    0.00000
   94     10.17990    0.00000
   95     10.22055    0.00000
   96     10.39582    0.00000
   97     10.40884    0.00000


Forces in eV/Ang:
  0 C     0.02109    0.06266    0.02556
  1 C    -0.00368    0.07303   -0.00024
  2 C    -0.00006   -0.01038   -0.00284
  3 C     0.07328   -0.08255   -0.02419
  4 C     0.02076   -0.02650   -0.02600
  5 C    -0.01155   -0.00847    0.01139
  6 C    -0.01616   -0.04438   -0.02097
  7 C     0.00896   -0.00151    0.01056
  8 C    -0.00401   -0.05418    0.01593
  9 C     0.05646   -0.03738    0.00538
 10 C     0.00784   -0.00698   -0.01843
 11 C     0.01417   -0.02001    0.00144
 12 C    -0.03650    0.02942   -0.01900
 13 C    -0.10160    0.04350    0.05813
 14 C    -0.05230   -0.07679   -0.00032
 15 C    -0.02631   -0.05863   -0.00911
 16 C     0.04240    0.04947   -0.00626
 17 C    -0.06513    0.04073   -0.02786
 18 C     0.02380   -0.00011   -0.03480
 19 C     0.00513   -0.00320    0.01014
 20 C     0.01206   -0.00657    0.00219
 21 C     0.00622   -0.02486    0.00124
 22 C    -0.00428   -0.04279    0.01235
 23 C    -0.02437    0.06658    0.01558

System changes: positions 

Initializing position-dependent things.

Density initialized from wave functions
           .--------------------------------------.  
          /|                                      |  
         / |                                      |  
        /  |                                      |  
       /   |                                      |  
      /    |                                      |  
     /     |        C                             |  
    /      |          C                           |  
   /       |            C                         |  
  /        |              C  C                    |  
 *         |             C     C                  |  
 |         |       C  C     C    C                |  
 |         .-----C------C---C----C----------------.  
 |        /        C           C                 /   
 |       /        C   C      CC                 /    
 |      /           C  C  C                    /     
 |     /                                      /      
 |    /                                      /       
 |   /                                      /        
 |  /                                      /         
 | /                                      /          
 |/                                      /           
 *--------------------------------------*            

Positions:
   0 C      5.406943    7.112275    5.210830
   1 C      7.690385    6.685869    4.443139
   2 C      6.053528    4.801223    4.688990
   3 C      7.264395    5.409914    4.246684
   4 C      9.630305    9.784667    4.910019
   5 C      8.710927    8.705130    4.593874
   6 C      8.991050    7.356525    4.298966
   7 C      8.882643   10.719113    5.663291
   8 C      5.183063    5.855520    5.057006
   9 C      7.361871    8.958439    5.001963
  10 C      6.675359    7.706254    4.982019
  11 C      7.452870   10.322584    5.599015
  12 C     10.913654    9.234089    4.629098
  13 C      5.469296   11.692349    6.697611
  14 C      8.596880    2.471519    4.600512
  15 C     11.242735    8.061717    4.277625
  16 C      9.636762    3.160344    4.360098
  17 C      6.248449    3.392006    4.859769
  18 C      4.496029   12.342650    7.318557
  19 C     10.324720    4.304264    4.167023
  20 C      7.271272    2.640804    4.789294
  21 C      6.440557   11.022550    6.157618
  22 C     10.363268    6.919611    4.160638
  23 C     10.607205    5.530128    4.074114

Unit cell:
           periodic     x           y           z      points  spacing
  1. axis:    yes   16.000000    0.000000    0.000000    80     0.2000
  2. axis:    yes    0.000000   16.000000    0.000000    80     0.2000
  3. axis:    yes    0.000000    0.000000   10.000000    48     0.2083

Effective grid spacing dv^(1/3) = 0.2027

                     log10-error:    total        iterations:
           time      wfs    density  energy       fermi  poisson
iter:   1  10:14:07          +inf  -180.563337    3      4      
iter:   2  10:14:08         -2.51  -180.554349    2      1      
iter:   3  10:14:08         -2.96  -180.553290    2      1      
iter:   4  10:14:09         -3.17  -180.554965    2      1      
iter:   5  10:14:09         -3.04  -180.556140    2      1      
iter:   6  10:14:10         -2.60  -180.554220    2      1      
iter:   7  10:14:10         -2.62  -180.559413    2      2      
iter:   8  10:14:11         -2.67  -180.556427    2      1      
iter:   9  10:14:11         -2.95  -180.553663    2      1      
iter:  10  10:14:12         -3.34  -180.553738    2      1      
iter:  11  10:14:12         -3.52  -180.553653    2      1      
iter:  12  10:14:13         -3.77  -180.553140    2      1      
iter:  13  10:14:13         -3.50  -180.553435    2      1      
iter:  14  10:14:14         -3.69  -180.553217    2      1      
iter:  15  10:14:14         -3.80  -180.553192    2      1      
iter:  16  10:14:15         -4.31  -180.553291    2      1      

Converged after 16 iterations.

Dipole moment: (0.403847, -0.702384, -0.350666) |e|*Ang

Energy contributions relative to reference atoms: (reference = -24663.074771)

Kinetic:       +109.522460
Potential:     -119.040965
External:        +0.000000
XC:            -173.917256
Entropy (-ST):   -0.282307
Local:           +3.023625
--------------------------
Free energy:   -180.694444
Extrapolated:  -180.553291

Fermi level: -4.62344

 Band  Eigenvalues  Occupancy
    0    -22.88433    2.00000
    1    -21.61426    2.00000
    2    -21.22345    2.00000
    3    -20.79515    2.00000
    4    -20.28879    2.00000
    5    -20.18360    2.00000
    6    -19.50088    2.00000
    7    -19.07227    2.00000
    8    -18.49116    2.00000
    9    -18.06663    2.00000
   10    -17.59807    2.00000
   11    -17.34155    2.00000
   12    -16.84981    2.00000
   13    -15.97928    2.00000
   14    -15.70048    2.00000
   15    -14.93134    2.00000
   16    -14.57638    2.00000
   17    -14.00297    2.00000
   18    -13.76013    2.00000
   19    -13.17318    2.00000
   20    -12.52013    2.00000
   21    -12.22180    2.00000
   22    -12.02034    2.00000
   23    -10.98279    2.00000
   24    -10.95554    2.00000
   25    -10.53662    2.00000
   26    -10.31257    2.00000
   27     -9.81470    2.00000
   28     -9.57859    2.00000
   29     -9.38498    2.00000
   30     -9.27289    2.00000
   31     -9.10611    2.00000
   32     -9.03591    2.00000
   33     -8.26432    2.00000
   34     -8.04537    2.00000
   35     -8.01532    2.00000
   36     -7.51963    2.00000
   37     -7.22897    2.00000
   38     -6.74855    2.00000
   39     -6.46729    2.00000
   40     -6.44117    2.00000
   41     -6.30896    2.00000
   42     -6.08025    2.00000
   43     -5.82473    1.99999
   44     -5.65016    1.99993
   45     -5.19594    1.99349
   46     -4.95452    1.92959
   47     -4.74312    1.53590
   48     -4.50684    0.47515
   49     -4.28456    0.06530
   50     -3.82071    0.00065
   51     -3.09492    0.00000
   52     -2.75170    0.00000
   53     -2.54864    0.00000
   54     -2.19688    0.00000
   55     -2.09877    0.00000
   56     -1.75866    0.00000
   57     -0.70596    0.00000
   58     -0.29366    0.00000
   59     -0.16260    0.00000
   60      0.44150    0.00000
   61      0.93751    0.00000
   62      1.36068    0.00000
   63      1.53114    0.00000
   64      2.97005    0.00000
   65      3.07367    0.00000
   66      3.77213    0.00000
   67      4.18922    0.00000
   68      4.50142    0.00000
   69      4.68422    0.00000
   70      4.87393    0.00000
   71      5.40976    0.00000
   72      5.66451    0.00000
   73      6.02898    0.00000
   74      6.25602    0.00000
   75      6.61124    0.00000
   76      6.90802    0.00000
   77      7.55534    0.00000
   78      7.92978    0.00000
   79      8.25319    0.00000
   80      8.40650    0.00000
   81      8.57864    0.00000
   82      8.66823    0.00000
   83      8.85499    0.00000
   84      9.04018    0.00000
   85      9.16135    0.00000
   86      9.35342    0.00000
   87      9.40955    0.00000
   88      9.55960    0.00000
   89      9.66244    0.00000
   90      9.79878    0.00000
   91      9.83969    0.00000
   92      9.99022    0.00000
   93     10.16065    0.00000
   94     10.18246    0.00000
   95     10.21973    0.00000
   96     10.39536    0.00000
   97     10.40786    0.00000


Forces in eV/Ang:
  0 C     0.04598    0.02475    0.00481
  1 C    -0.01044    0.05563    0.00913
  2 C     0.01013   -0.01387    0.00883
  3 C     0.00419   -0.01306   -0.00827
  4 C     0.01189   -0.01399   -0.01516
  5 C     0.00288   -0.00439    0.01692
  6 C    -0.01408   -0.03651   -0.02338
  7 C     0.03245    0.05139    0.02818
  8 C    -0.01177   -0.04322    0.01456
  9 C     0.04691   -0.05549    0.01803
 10 C     0.00695    0.00116   -0.00773
 11 C     0.00451   -0.02181   -0.00983
 12 C    -0.03005    0.04203   -0.01789
 13 C    -0.00823   -0.02095    0.00274
 14 C    -0.02562   -0.06669   -0.00153
 15 C    -0.00492   -0.04569   -0.00686
 16 C     0.04558    0.03536   -0.00575
 17 C    -0.03825    0.04739   -0.01313
 18 C    -0.00616    0.02217   -0.01026
 19 C    -0.00465    0.02387    0.00089
 20 C    -0.04375    0.01616   -0.01449
 21 C    -0.03893    0.01961    0.03482
 22 C    -0.00325   -0.03728    0.00158
 23 C    -0.02850    0.02374    0.02540

