
  ___ ___ ___ _ _ _  
 |   |   |_  | | | | 
 | | | | | . | | | | 
 |__ |  _|___|_____|  1.3.0b1
 |___|_|             

User:   esb@s65n62.grendel.cscaa.dk
Date:   Wed Nov  8 17:09:53 2017
Arch:   x86_64
Pid:    42824
Python: 2.7.13
gpaw:   /home/esb/DFT/gpaw_git/gpaw
_gpaw:  /home/esb/DFT/gpaw_git/build/bin.linux-x86_64-2.7/gpaw-python
ase:    /home/esb/DFT/ase_git/ase (version 3.15.0b1)
numpy:  /comm/swstack/core/python/2.7.13/lib/python2.7/site-packages/numpy (version 1.13.3)
scipy:  /comm/swstack/core/python/2.7.13/lib/python2.7/site-packages/scipy (version 0.19.1)
units:  Angstrom and eV
cores:  16
Extra parameters: {'blacs': True}

Input parameters:
  basis: dzp
  gpts: [80 80 48]
  kpts: [1 1 1]
  maxiter: 99
  mixer: {backend: pulay,
          beta: 0.05,
          method: separate,
          nmaxold: 5,
          weight: 75}
  mode: lcao
  nbands: -50
  occupations: {name: fermi-dirac,
                width: 0.1}
  poissonsolver: {eps: 1e-07,
                  name: fd,
                  nn: 3,
                  relax: GS}
  xc: PBE

System changes: positions, numbers, cell, pbc, initial_charges, initial_magmoms 

Initialize ...

C-setup:
  name: Carbon
  id: 4aa54d4b901d75f77cc0ea3eec22967b
  Z: 6
  valence: 4
  core: 2
  charge: 0.0
  file: /home/esb/DFT/gpaw-setups-0.8.7929/C.PBE.gz
  cutoffs: 0.64(comp), 1.14(filt), 1.14(core), lmax=2
  valence states:
                energy  radius
    2s(2.00)   -13.751   0.635
    2p(2.00)    -5.284   0.635
    *s          13.461   0.635
    *p          21.927   0.635
    *d           0.000   0.635

  LCAO basis set for C:
    Name: dzp
    File: /home/esb/DFT/gpaw-setups-0.8.7929/C.dzp.basis.gz
    Number of radial functions: 5
    Number of spherical harmonics: 13
      l=0, rc=5.5469 Bohr: 2s-sz confined orbital
      l=1, rc=6.6719 Bohr: 2p-sz confined orbital
      l=0, rc=3.0312 Bohr: 2s-dz split-valence wave
      l=1, rc=3.7500 Bohr: 2p-dz split-valence wave
      l=2, rc=6.6719 Bohr: d-type Gaussian polarization

Reference energy: -24663.074771

Spin-paired calculation

Occupation numbers:
  Fermi-Dirac: width=0.1000 eV

Convergence criteria:
  Maximum total energy change: 0.0005 eV / electron
  Maximum integral of absolute density change: 0.0001 electrons
  Maximum integral of absolute eigenstate change: 4e-08 eV^2
  Maximum number of iterations: 99

Symmetries present (total): 1

  ( 1  0  0)
  ( 0  1  0)
  ( 0  0  1)

1 k-point (Gamma)
1 k-point in the irreducible part of the Brillouin zone
       k-points in crystal coordinates                weights
   0:     0.00000000    0.00000000    0.00000000          1/1

Wave functions: LCAO
  Diagonalizer: Serial LAPACK
  Atomic Correction: dense with blas
  Datatype: float
  Eigensolver: None 

LCAO using direct dense diagonalizer 

Densities:
  Coarse grid: 80*80*48 grid
  Fine grid: 160*160*96 grid
  Total Charge: 0.000000 

Density mixing:
  Method: separate
  Backend: pulay
  Linear mixing parameter: 0.05
  Mixing with 5 old densities
  Damping of long wave oscillations: 75 

Hamiltonian:
  XC and Coulomb potentials evaluated on a 160*160*96 grid
  Using the PBE Exchange-Correlation functional
  Interpolation: tri-quintic (5. degree polynomial)
  Poisson solver: Gauss-Seidel solver with 6 multi-grid levels
    Coarsest grid: 5 x 5 x 3 points
    Stencil: 6*3+1=19 point O(h^6) finite-difference Laplacian
    Max iterations: 1000
    Tolerance: 1.000000e-07 

Memory estimate:
  Process memory now: 77.58 MiB
  Calculator: 15.59 MiB
    Density: 6.13 MiB
      Arrays: 3.81 MiB
      Localized functions: 0.86 MiB
      Mixer: 1.46 MiB
    Hamiltonian: 5.40 MiB
      Arrays: 2.49 MiB
      XC: 0.00 MiB
      Poisson: 2.85 MiB
      vbar: 0.07 MiB
    Wavefunctions: 4.05 MiB
      C [qnM]: 0.23 MiB
      S, T [2 x qmm]: 1.49 MiB
      P [aqMi]: 0.01 MiB
      TCI: 0.00 MiB
      BasisFunctions: 2.33 MiB
      Eigensolver: 0.00 MiB

Total number of cores used: 16
Domain decomposition: 2 x 4 x 2

Number of atoms: 24
Number of atomic orbitals: 312
Number of bands in calculation: 98
Bands to converge: occupied states only
Number of valence electrons: 96

... initialized

Initializing position-dependent things.

Density initialized from atomic densities
           .--------------------------------------.  
          /|                                      |  
         / |                                      |  
        /  |                                      |  
       /   |                                      |  
      /    |                                      |  
     /     |                                      |  
    /      |                                      |  
   /       |                                      |  
  /        |               C  C                   |  
 *         |         C  C  C  C C                 |  
 |         |   C  C  C  C   C   C                 |  
 |         .--------CC---C-------C----------------.  
 |        /       C     C                        /   
 |       /         C C  C   C  C                /    
 |      /                                      /     
 |     /                                      /      
 |    /                                      /       
 |   /                                      /        
 |  /                                      /         
 | /                                      /          
 |/                                      /           
 *--------------------------------------*            

Positions:
   0 C     10.411743    8.224185    4.590560
   1 C      8.209131    9.116301    4.894501
   2 C      9.176732   10.156395    4.837818
   3 C      7.862051    5.373453    4.735827
   4 C     10.952966    4.740367    4.385995
   5 C      8.973515    7.857468    4.765100
   6 C      8.537420    4.075329    4.618014
   7 C      7.418139    3.133528    4.660842
   8 C      9.920320    4.012459    4.481606
   9 C      6.268980    3.692731    4.791019
  10 C     10.354348    9.664102    4.630652
  11 C     11.354136    7.221803    4.406927
  12 C      8.068162    6.783381    4.793334
  13 C      5.988752    9.043438    4.863422
  14 C      7.564152   11.838793    4.313457
  15 C      6.536797    5.626146    5.016586
  16 C      7.230239    8.226525    4.909780
  17 C      5.633942    4.533144    5.295719
  18 C      5.439184   10.351118    4.591976
  19 C      8.874343   11.553152    4.421375
  20 C      6.395010   11.369702    4.395245
  21 C      5.160162    7.869728    5.104890
  22 C      3.744090    7.904226    5.127230
  23 C      6.367704    7.007898    5.072951

Unit cell:
           periodic     x           y           z      points  spacing
  1. axis:    yes   16.000000    0.000000    0.000000    80     0.2000
  2. axis:    yes    0.000000   16.000000    0.000000    80     0.2000
  3. axis:    yes    0.000000    0.000000   10.000000    48     0.2083

Effective grid spacing dv^(1/3) = 0.2027

                     log10-error:    total        iterations:
           time      wfs    density  energy       fermi  poisson
iter:   1  17:09:55          +inf  -171.213594    2      6      
iter:   2  17:09:55         -0.85  -169.374397    3      3      
iter:   3  17:09:56         -0.89  -169.469500    34     4      
iter:   4  17:09:56         -0.89  -168.247160    3      2      
iter:   5  17:09:57         -0.94  -167.745029    3      2      
iter:   6  17:09:57         -0.96  -166.403036    4      3      
iter:   7  17:09:58         -1.07  -165.015609    3      3      
iter:   8  17:09:58         -1.32  -164.785552    3      3      
iter:   9  17:09:59         -1.43  -164.730514    4      3      
iter:  10  17:09:59         -1.69  -164.733862    3      3      
iter:  11  17:10:00         -1.76  -164.694110    3      3      
iter:  12  17:10:00         -1.92  -164.678652    3      2      
iter:  13  17:10:01         -2.09  -164.662672    3      2      
iter:  14  17:10:01         -2.18  -164.651561    3      2      
iter:  15  17:10:02         -2.44  -164.644855    3      2      
iter:  16  17:10:02         -2.64  -164.642827    2      2      
iter:  17  17:10:03         -2.82  -164.644580    2      2      
iter:  18  17:10:03         -2.98  -164.652500    2      1      
iter:  19  17:10:04         -3.21  -164.650584    2      1      
iter:  20  17:10:04         -3.37  -164.645809    2      1      
iter:  21  17:10:05         -3.50  -164.645904    1      1      
iter:  22  17:10:05         -3.68  -164.643847    2      1      
iter:  23  17:10:06         -3.83  -164.642966    2      1      
iter:  24  17:10:06         -3.97  -164.643928    2      1      
iter:  25  17:10:07         -4.06  -164.643635    2      1      

Converged after 25 iterations.

Dipole moment: (-0.391290, 0.678115, 0.007808) |e|*Ang

Energy contributions relative to reference atoms: (reference = -24663.074771)

Kinetic:       +165.122419
Potential:     -153.566223
External:        +0.000000
XC:            -178.977893
Entropy (-ST):   -0.371431
Local:           +2.963778
--------------------------
Free energy:   -164.829350
Extrapolated:  -164.643635

Fermi level: -4.82488

 Band  Eigenvalues  Occupancy
    0    -25.92824    2.00000
    1    -23.92323    2.00000
    2    -22.92669    2.00000
    3    -21.95788    2.00000
    4    -21.38979    2.00000
    5    -20.84684    2.00000
    6    -20.20288    2.00000
    7    -19.65056    2.00000
    8    -18.95164    2.00000
    9    -18.02440    2.00000
   10    -17.89101    2.00000
   11    -17.61189    2.00000
   12    -17.30125    2.00000
   13    -16.45673    2.00000
   14    -15.85602    2.00000
   15    -15.33164    2.00000
   16    -14.97438    2.00000
   17    -14.26663    2.00000
   18    -13.86369    2.00000
   19    -13.65154    2.00000
   20    -12.69920    2.00000
   21    -12.56677    2.00000
   22    -12.25135    2.00000
   23    -11.97896    2.00000
   24    -11.46013    2.00000
   25    -11.30965    2.00000
   26    -10.85248    2.00000
   27    -10.29234    2.00000
   28    -10.02435    2.00000
   29     -9.88751    2.00000
   30     -9.49489    2.00000
   31     -8.62082    2.00000
   32     -8.54715    2.00000
   33     -8.13900    2.00000
   34     -7.96590    2.00000
   35     -7.82148    2.00000
   36     -7.66476    2.00000
   37     -7.61426    2.00000
   38     -7.40588    2.00000
   39     -6.85919    2.00000
   40     -6.23277    2.00000
   41     -5.96894    1.99998
   42     -5.92756    1.99997
   43     -5.69454    1.99967
   44     -5.34191    1.98870
   45     -5.17437    1.94109
   46     -5.07489    1.84830
   47     -4.95621    1.57616
   48     -4.70618    0.46762
   49     -4.55314    0.12391
   50     -4.46693    0.05427
   51     -3.95417    0.00033
   52     -3.61546    0.00001
   53     -3.20511    0.00000
   54     -2.89536    0.00000
   55     -2.53912    0.00000
   56     -1.90620    0.00000
   57     -1.73302    0.00000
   58     -1.47312    0.00000
   59     -1.19274    0.00000
   60     -0.19700    0.00000
   61      0.22820    0.00000
   62      0.39491    0.00000
   63      1.16384    0.00000
   64      1.48746    0.00000
   65      1.86982    0.00000
   66      2.10016    0.00000
   67      2.64402    0.00000
   68      3.34250    0.00000
   69      4.01114    0.00000
   70      4.22485    0.00000
   71      4.73166    0.00000
   72      5.63344    0.00000
   73      5.84129    0.00000
   74      6.13620    0.00000
   75      6.20718    0.00000
   76      6.59345    0.00000
   77      6.83365    0.00000
   78      7.29922    0.00000
   79      7.54997    0.00000
   80      7.68887    0.00000
   81      7.84391    0.00000
   82      8.04932    0.00000
   83      8.23442    0.00000
   84      8.39444    0.00000
   85      8.54074    0.00000
   86      8.75853    0.00000
   87      8.85025    0.00000
   88      8.94003    0.00000
   89      9.07430    0.00000
   90      9.17687    0.00000
   91      9.29624    0.00000
   92      9.38497    0.00000
   93      9.62888    0.00000
   94      9.70384    0.00000
   95      9.85489    0.00000
   96     10.01409    0.00000
   97     10.18139    0.00000


Forces in eV/Ang:
  0 C     0.46353   -1.08501   -0.15137
  1 C     5.42003   -2.48780    0.30220
  2 C    -4.72619    4.77678   -0.55786
  3 C     3.06147    2.13853   -0.18705
  4 C     0.63895    0.86692   -0.01313
  5 C     2.78709   -0.73362   -0.04832
  6 C    -2.49375   -0.50958   -0.14605
  7 C     3.91018   -1.11890   -0.72611
  8 C    -0.00191    0.43794    0.00869
  9 C     4.61032  -10.76256   -4.57068
 10 C     7.30980   -2.47129   -0.84006
 11 C     0.60432    0.42137   -0.03944
 12 C     7.30469   -0.71299   -1.49796
 13 C    -5.17176    0.67571   -0.21421
 14 C     3.99004    0.76129    0.21571
 15 C    -3.89593   -1.37829    1.53302
 16 C    -8.50361    3.04957    0.51906
 17 C    -8.03468   10.46729    4.79413
 18 C     3.99576    1.20071   -0.00147
 19 C    -1.61262   -0.41582    0.54412
 20 C    -4.80468   -3.56566    0.29483
 21 C    -4.03759   -0.34261   -0.15233
 22 C     2.50374   -0.31923    0.00438
 23 C    -3.37087    1.08950    0.96703

System changes: positions 

Initializing position-dependent things.

Density initialized from wave functions
           .--------------------------------------.  
          /|                                      |  
         / |                                      |  
        /  |                                      |  
       /   |                                      |  
      /    |                                      |  
     /     |                                      |  
    /      |                                      |  
   /       |                                      |  
  /        |               C  C                   |  
 *         |         C  C  C  C C                 |  
 |         |   C  C  C  C   C   C                 |  
 |         .--------CC---C-------C----------------.  
 |        /       C     C                        /   
 |       /         C C  C   C  C                /    
 |      /                                      /     
 |     /                                      /      
 |    /                                      /       
 |   /                                      /        
 |  /                                      /         
 | /                                      /          
 |/                                      /           
 *--------------------------------------*            

Positions:
   0 C     10.413064    8.221094    4.590129
   1 C      8.224573    9.109213    4.895362
   2 C      9.163267   10.170005    4.836228
   3 C      7.870774    5.379546    4.735294
   4 C     10.954787    4.742837    4.385958
   5 C      8.981455    7.855378    4.764962
   6 C      8.530315    4.073877    4.617598
   7 C      7.429280    3.130340    4.658774
   8 C      9.920314    4.013707    4.481631
   9 C      6.282116    3.662067    4.777997
  10 C     10.375175    9.657061    4.628259
  11 C     11.355858    7.223004    4.406815
  12 C      8.088974    6.781349    4.789066
  13 C      5.974017    9.045363    4.862812
  14 C      7.575520   11.840962    4.314071
  15 C      6.525697    5.622219    5.020953
  16 C      7.206011    8.235213    4.911259
  17 C      5.611050    4.562967    5.309378
  18 C      5.450568   10.354539    4.591972
  19 C      8.869749   11.551967    4.422925
  20 C      6.381321   11.359543    4.396085
  21 C      5.148658    7.868752    5.104456
  22 C      3.751223    7.903317    5.127243
  23 C      6.358100    7.011002    5.075706

Unit cell:
           periodic     x           y           z      points  spacing
  1. axis:    yes   16.000000    0.000000    0.000000    80     0.2000
  2. axis:    yes    0.000000   16.000000    0.000000    80     0.2000
  3. axis:    yes    0.000000    0.000000   10.000000    48     0.2083

Effective grid spacing dv^(1/3) = 0.2027

                     log10-error:    total        iterations:
           time      wfs    density  energy       fermi  poisson
iter:   1  17:10:08          +inf  -166.944521    3      5      
iter:   2  17:10:09         -1.73  -166.729230    2      2      
iter:   3  17:10:09         -1.94  -166.638164    2      2      
iter:   4  17:10:10         -2.14  -166.638938    2      2      
iter:   5  17:10:10         -2.20  -166.627360    2      2      
iter:   6  17:10:11         -2.33  -166.620841    2      2      
iter:   7  17:10:11         -2.53  -166.619326    2      2      
iter:   8  17:10:12         -2.64  -166.618491    2      2      
iter:   9  17:10:12         -2.92  -166.617455    2      2      
iter:  10  17:10:13         -3.08  -166.617350    2      2      
iter:  11  17:10:13         -3.30  -166.617351    2      1      
iter:  12  17:10:14         -3.40  -166.617073    2      1      
iter:  13  17:10:14         -3.58  -166.617091    2      1      
iter:  14  17:10:15         -3.74  -166.617313    2      1      
iter:  15  17:10:15         -3.89  -166.616996    2      1      
iter:  16  17:10:16         -3.99  -166.616533    2      1      
iter:  17  17:10:16         -4.21  -166.616905    2      1      

Converged after 17 iterations.

Dipole moment: (-0.374391, 0.722300, -0.007242) |e|*Ang

Energy contributions relative to reference atoms: (reference = -24663.074771)

Kinetic:       +154.359946
Potential:     -146.329825
External:        +0.000000
XC:            -177.398817
Entropy (-ST):   -0.327860
Local:           +2.915722
--------------------------
Free energy:   -166.780835
Extrapolated:  -166.616905

Fermi level: -4.80738

 Band  Eigenvalues  Occupancy
    0    -25.66139    2.00000
    1    -23.70280    2.00000
    2    -22.86511    2.00000
    3    -21.87562    2.00000
    4    -21.20482    2.00000
    5    -20.82002    2.00000
    6    -20.12304    2.00000
    7    -19.71099    2.00000
    8    -18.96063    2.00000
    9    -18.02866    2.00000
   10    -17.95271    2.00000
   11    -17.52469    2.00000
   12    -17.21921    2.00000
   13    -16.42278    2.00000
   14    -15.89746    2.00000
   15    -15.31684    2.00000
   16    -15.00586    2.00000
   17    -14.08929    2.00000
   18    -13.90485    2.00000
   19    -13.58700    2.00000
   20    -12.69782    2.00000
   21    -12.42749    2.00000
   22    -12.23544    2.00000
   23    -11.97696    2.00000
   24    -11.42342    2.00000
   25    -11.31248    2.00000
   26    -10.73699    2.00000
   27    -10.33270    2.00000
   28    -10.08255    2.00000
   29     -9.90330    2.00000
   30     -9.48929    2.00000
   31     -8.63798    2.00000
   32     -8.46006    2.00000
   33     -8.12230    2.00000
   34     -8.01624    2.00000
   35     -7.75435    2.00000
   36     -7.65159    2.00000
   37     -7.58998    2.00000
   38     -7.31556    2.00000
   39     -6.83835    2.00000
   40     -6.24292    2.00000
   41     -6.00445    1.99999
   42     -5.96636    1.99998
   43     -5.72853    1.99980
   44     -5.39676    1.99450
   45     -5.18466    1.95506
   46     -5.07667    1.87321
   47     -4.96063    1.64473
   48     -4.66278    0.38122
   49     -4.50865    0.09601
   50     -4.45110    0.05515
   51     -3.93925    0.00034
   52     -3.58678    0.00001
   53     -3.18579    0.00000
   54     -2.95707    0.00000
   55     -2.63871    0.00000
   56     -2.07352    0.00000
   57     -1.79410    0.00000
   58     -1.51229    0.00000
   59     -1.23355    0.00000
   60     -0.15897    0.00000
   61      0.22962    0.00000
   62      0.45233    0.00000
   63      1.15836    0.00000
   64      1.41026    0.00000
   65      1.86062    0.00000
   66      2.02136    0.00000
   67      2.86450    0.00000
   68      3.37415    0.00000
   69      3.96326    0.00000
   70      4.33965    0.00000
   71      4.80496    0.00000
   72      5.71807    0.00000
   73      5.91394    0.00000
   74      6.13797    0.00000
   75      6.24789    0.00000
   76      6.66025    0.00000
   77      6.94723    0.00000
   78      7.27617    0.00000
   79      7.66238    0.00000
   80      7.83005    0.00000
   81      7.90598    0.00000
   82      8.00682    0.00000
   83      8.28187    0.00000
   84      8.43952    0.00000
   85      8.62691    0.00000
   86      8.78703    0.00000
   87      8.87340    0.00000
   88      8.91247    0.00000
   89      9.13238    0.00000
   90      9.19195    0.00000
   91      9.33537    0.00000
   92      9.42000    0.00000
   93      9.64502    0.00000
   94      9.72636    0.00000
   95      9.86562    0.00000
   96     10.04152    0.00000
   97     10.19275    0.00000


Forces in eV/Ang:
  0 C     0.55753   -1.05002   -0.13502
  1 C     4.52339   -3.17320    0.22333
  2 C    -2.26580    3.27768   -0.79470
  3 C     2.27188    2.20704   -0.05269
  4 C     0.56480    0.80707   -0.00746
  5 C     2.54955   -0.23168   -0.00052
  6 C    -1.57439   -0.34700   -0.23181
  7 C     3.76777   -1.29329   -0.71451
  8 C    -0.23162    0.48407    0.04444
  9 C     0.29637   -5.00276   -1.30547
 10 C     5.13617   -1.41222   -0.44799
 11 C     0.75086    0.29823   -0.07146
 12 C     6.75885   -1.05380   -1.41598
 13 C    -4.91934    0.48587   -0.14613
 14 C     2.13916    0.32371    0.28880
 15 C    -2.95925   -0.82359    1.25294
 16 C    -7.46827    3.15310    0.50929
 17 C    -4.23164    4.60396    1.62577
 18 C     3.68161    1.15772   -0.03304
 19 C    -1.58479   -0.28033    0.48984
 20 C    -2.98880   -2.54590    0.12384
 21 C    -3.74855   -0.35126   -0.13566
 22 C     1.96619   -0.34387    0.02414
 23 C    -3.01770    1.03366    0.94231

System changes: positions 

Initializing position-dependent things.

Density initialized from wave functions
           .--------------------------------------.  
          /|                                      |  
         / |                                      |  
        /  |                                      |  
       /   |                                      |  
      /    |                                      |  
     /     |                                      |  
    /      |                                      |  
   /       |                                      |  
  /        |               C  C                   |  
 *         |         C  C  C  C C                 |  
 |         |   C  C  C  C   C   C                 |  
 |         .--------CC---C-------C----------------.  
 |        /       C     C                        /   
 |       /         C C  C   C  C                /    
 |      /                                      /     
 |     /                                      /      
 |    /                                      /       
 |   /                                      /        
 |  /                                      /         
 | /                                      /          
 |/                                      /           
 *--------------------------------------*            

Positions:
   0 C     10.416270    8.215682    4.589468
   1 C      8.245685    9.090519    4.896302
   2 C      9.158634   10.182793    4.831354
   3 C      7.880375    5.391342    4.735415
   4 C     10.957534    4.746899    4.385935
   5 C      8.994147    7.855644    4.765101
   6 C      8.524761    4.072535    4.616127
   7 C      7.448651    3.123031    4.655055
   8 C      9.918419    4.016386    4.481970
   9 C      6.270925    3.652806    4.780787
  10 C     10.395733    9.652772    4.627064
  11 C     11.360235    7.224206    4.406345
  12 C      8.122866    6.774807    4.781870
  13 C      5.948921    9.047354    4.862245
  14 C      7.581289   11.841370    4.315804
  15 C      6.512919    5.619532    5.026707
  16 C      7.169839    8.252083    4.913905
  17 C      5.600058    4.569826    5.308556
  18 C      5.468979   10.360494    4.591705
  19 C      8.861506   11.550895    4.425338
  20 C      6.370986   11.349183    4.396230
  21 C      5.129821    7.866881    5.103793
  22 C      3.759963    7.901437    5.127428
  23 C      6.343291    7.016267    5.080583

Unit cell:
           periodic     x           y           z      points  spacing
  1. axis:    yes   16.000000    0.000000    0.000000    80     0.2000
  2. axis:    yes    0.000000   16.000000    0.000000    80     0.2000
  3. axis:    yes    0.000000    0.000000   10.000000    48     0.2083

Effective grid spacing dv^(1/3) = 0.2027

                     log10-error:    total        iterations:
           time      wfs    density  energy       fermi  poisson
iter:   1  17:10:18          +inf  -168.523173    2      5      
iter:   2  17:10:18         -1.70  -168.268927    3      2      
iter:   3  17:10:19         -1.94  -168.165290    3      2      
iter:   4  17:10:19         -2.16  -168.171953    2      2      
iter:   5  17:10:20         -2.24  -168.158369    2      2      
iter:   6  17:10:20         -2.35  -168.148374    2      2      
iter:   7  17:10:21         -2.58  -168.148239    2      2      
iter:   8  17:10:21         -2.68  -168.148080    2      2      
iter:   9  17:10:22         -2.91  -168.147597    2      2      
iter:  10  17:10:22         -3.05  -168.147673    2      2      
iter:  11  17:10:23         -3.34  -168.147974    2      1      
iter:  12  17:10:23         -3.42  -168.148633    2      1      
iter:  13  17:10:23         -3.67  -168.147869    2      1      
iter:  14  17:10:24         -3.80  -168.147674    2      1      
iter:  15  17:10:24         -3.97  -168.147653    2      1      
iter:  16  17:10:25         -4.16  -168.147412    2      1      

Converged after 16 iterations.

Dipole moment: (-0.403830, 0.771849, -0.007731) |e|*Ang

Energy contributions relative to reference atoms: (reference = -24663.074771)

Kinetic:       +149.678104
Potential:     -143.743596
External:        +0.000000
XC:            -176.866236
Entropy (-ST):   -0.297461
Local:           +2.933046
--------------------------
Free energy:   -168.296142
Extrapolated:  -168.147412

Fermi level: -4.79278

 Band  Eigenvalues  Occupancy
    0    -25.29990    2.00000
    1    -23.49648    2.00000
    2    -22.84498    2.00000
    3    -21.79610    2.00000
    4    -21.05740    2.00000
    5    -20.76169    2.00000
    6    -20.12910    2.00000
    7    -19.78079    2.00000
    8    -18.94223    2.00000
    9    -18.05375    2.00000
   10    -17.95142    2.00000
   11    -17.46269    2.00000
   12    -17.10086    2.00000
   13    -16.39903    2.00000
   14    -15.85030    2.00000
   15    -15.31876    2.00000
   16    -14.96813    2.00000
   17    -14.04228    2.00000
   18    -13.93964    2.00000
   19    -13.43617    2.00000
   20    -12.70350    2.00000
   21    -12.27999    2.00000
   22    -12.19099    2.00000
   23    -11.96754    2.00000
   24    -11.40258    2.00000
   25    -11.30284    2.00000
   26    -10.64805    2.00000
   27    -10.40516    2.00000
   28    -10.19209    2.00000
   29     -9.93670    2.00000
   30     -9.48981    2.00000
   31     -8.73556    2.00000
   32     -8.42025    2.00000
   33     -8.19848    2.00000
   34     -8.06581    2.00000
   35     -7.71074    2.00000
   36     -7.64248    2.00000
   37     -7.57768    2.00000
   38     -7.27610    2.00000
   39     -6.80094    2.00000
   40     -6.23335    2.00000
   41     -6.04247    1.99999
   42     -5.98204    1.99999
   43     -5.74136    1.99985
   44     -5.41783    1.99615
   45     -5.19609    1.96518
   46     -5.07614    1.88892
   47     -4.95626    1.67363
   48     -4.63903    0.35379
   49     -4.50169    0.10323
   50     -4.32757    0.01890
   51     -3.93212    0.00037
   52     -3.54859    0.00001
   53     -3.18894    0.00000
   54     -2.95833    0.00000
   55     -2.76504    0.00000
   56     -2.17073    0.00000
   57     -1.89262    0.00000
   58     -1.48112    0.00000
   59     -1.17368    0.00000
   60     -0.15225    0.00000
   61      0.25371    0.00000
   62      0.60890    0.00000
   63      1.17328    0.00000
   64      1.40766    0.00000
   65      1.91155    0.00000
   66      2.05427    0.00000
   67      3.23460    0.00000
   68      3.49767    0.00000
   69      3.95505    0.00000
   70      4.49122    0.00000
   71      4.89631    0.00000
   72      5.79706    0.00000
   73      5.99296    0.00000
   74      6.15474    0.00000
   75      6.29791    0.00000
   76      6.72516    0.00000
   77      7.04151    0.00000
   78      7.30886    0.00000
   79      7.71167    0.00000
   80      7.93611    0.00000
   81      8.02500    0.00000
   82      8.06363    0.00000
   83      8.32479    0.00000
   84      8.46535    0.00000
   85      8.68457    0.00000
   86      8.81758    0.00000
   87      8.88142    0.00000
   88      8.92787    0.00000
   89      9.14096    0.00000
   90      9.25308    0.00000
   91      9.38884    0.00000
   92      9.44366    0.00000
   93      9.71908    0.00000
   94      9.76689    0.00000
   95      9.90338    0.00000
   96     10.08800    0.00000
   97     10.20488    0.00000


Forces in eV/Ang:
  0 C     0.73971   -0.89003   -0.10494
  1 C     3.37323   -3.31016    0.14204
  2 C    -0.77975    1.93480   -0.85771
  3 C     1.45804    1.98766    0.07555
  4 C     0.29090    0.62941    0.01495
  5 C     2.24011   -0.12431    0.00601
  6 C    -1.09449   -0.19683   -0.26153
  7 C     1.73044   -0.71861   -0.50915
  8 C    -0.02231    0.70087    0.04122
  9 C     1.55542   -4.85940   -1.06419
 10 C     3.66807   -0.78956   -0.23912
 11 C     0.87875    0.12945   -0.10180
 12 C     6.13468   -1.28592   -1.30330
 13 C    -4.49969    0.52020   -0.11673
 14 C     1.17631    0.18169    0.29064
 15 C    -1.93023    0.08658    1.01308
 16 C    -6.19849    3.11276    0.52713
 17 C    -3.72749    3.62386    1.22553
 18 C     3.12991    0.89291   -0.02491
 19 C    -1.63049   -0.15926    0.42454
 20 C    -1.83559   -1.61119   -0.00529
 21 C    -3.09623   -0.39757   -0.11085
 22 C     1.03431   -0.35141    0.05171
 23 C    -2.58304    0.88424    0.86468

System changes: positions 

Initializing position-dependent things.

Density initialized from wave functions
           .--------------------------------------.  
          /|                                      |  
         / |                                      |  
        /  |                                      |  
       /   |                                      |  
      /    |                                      |  
     /     |                                      |  
    /      |                                      |  
   /       |                                      |  
  /        |               C  C                   |  
 *         |         C  C  C  C C                 |  
 |         |   C  C  C  C   C   C                 |  
 |         .--------CC---C-------C----------------.  
 |        /      C      C                        /   
 |       /         C C  C   C  C                /    
 |      /                                      /     
 |     /                                      /      
 |    /                                      /       
 |   /                                      /        
 |  /                                      /         
 | /                                      /          
 |/                                      /           
 *--------------------------------------*            

Positions:
   0 C     10.422010    8.210415    4.588916
   1 C      8.261804    9.066335    4.896762
   2 C      9.164986   10.187144    4.824837
   3 C      7.885221    5.403951    4.736696
   4 C     10.958362    4.750318    4.386123
   5 C      9.007303    7.856529    4.765291
   6 C      8.521578    4.072164    4.614069
   7 C      7.453049    3.119686    4.652391
   8 C      9.918335    4.021852    4.482328
   9 C      6.273662    3.636718    4.783366
  10 C     10.409309    9.652450    4.627226
  11 C     11.366858    7.224178    4.405486
  12 C      8.159907    6.764626    4.773844
  13 C      5.921228    9.050392    4.861754
  14 C      7.580916   11.840924    4.317929
  15 C      6.506053    5.624577    5.031864
  16 C      7.135809    8.272809    4.917422
  17 C      5.587343    4.574732    5.306786
  18 C      5.487019   10.365415    4.591482
  19 C      8.850653   11.550604    4.427785
  20 C      6.367528   11.344342    4.395311
  21 C      5.112265    7.864078    5.103186
  22 C      3.762303    7.899023    5.127913
  23 C      6.328590    7.021474    5.085979

Unit cell:
           periodic     x           y           z      points  spacing
  1. axis:    yes   16.000000    0.000000    0.000000    80     0.2000
  2. axis:    yes    0.000000   16.000000    0.000000    80     0.2000
  3. axis:    yes    0.000000    0.000000   10.000000    48     0.2083

Effective grid spacing dv^(1/3) = 0.2027

                     log10-error:    total        iterations:
           time      wfs    density  energy       fermi  poisson
iter:   1  17:10:26          +inf  -169.630730    3      5      
iter:   2  17:10:27         -1.80  -169.468863    3      2      
iter:   3  17:10:27         -2.03  -169.389075    3      2      
iter:   4  17:10:28         -2.24  -169.390211    2      2      
iter:   5  17:10:28         -2.33  -169.378649    2      2      
iter:   6  17:10:29         -2.43  -169.373324    2      2      
iter:   7  17:10:29         -2.64  -169.370500    2      2      
iter:   8  17:10:30         -2.79  -169.372278    2      2      
iter:   9  17:10:30         -2.97  -169.371322    2      2      
iter:  10  17:10:31         -3.18  -169.372322    2      1      
iter:  11  17:10:31         -3.33  -169.372523    2      1      
iter:  12  17:10:32         -3.46  -169.371972    2      1      
iter:  13  17:10:32         -3.63  -169.372052    2      1      
iter:  14  17:10:33         -3.74  -169.372146    2      1      
iter:  15  17:10:33         -3.88  -169.372301    2      1      
iter:  16  17:10:34         -4.11  -169.371984    2      1      

Converged after 16 iterations.

Dipole moment: (-0.420925, 0.797286, -0.012822) |e|*Ang

Energy contributions relative to reference atoms: (reference = -24663.074771)

Kinetic:       +148.401124
Potential:     -143.694774
External:        +0.000000
XC:            -176.884326
Entropy (-ST):   -0.279804
Local:           +2.945893
--------------------------
Free energy:   -169.511886
Extrapolated:  -169.371984

Fermi level: -4.78494

 Band  Eigenvalues  Occupancy
    0    -24.98511    2.00000
    1    -23.32903    2.00000
    2    -22.83206    2.00000
    3    -21.71059    2.00000
    4    -20.99712    2.00000
    5    -20.67060    2.00000
    6    -20.07314    2.00000
    7    -19.80518    2.00000
    8    -18.93184    2.00000
    9    -18.12939    2.00000
   10    -17.94110    2.00000
   11    -17.47194    2.00000
   12    -16.95203    2.00000
   13    -16.40391    2.00000
   14    -15.86402    2.00000
   15    -15.33485    2.00000
   16    -14.87497    2.00000
   17    -14.10778    2.00000
   18    -13.85403    2.00000
   19    -13.28047    2.00000
   20    -12.69437    2.00000
   21    -12.22912    2.00000
   22    -12.04376    2.00000
   23    -11.92671    2.00000
   24    -11.39017    2.00000
   25    -11.28461    2.00000
   26    -10.59154    2.00000
   27    -10.44171    2.00000
   28    -10.24981    2.00000
   29     -9.97092    2.00000
   30     -9.48963    2.00000
   31     -8.88366    2.00000
   32     -8.45473    2.00000
   33     -8.28808    2.00000
   34     -8.06941    2.00000
   35     -7.66839    2.00000
   36     -7.62616    2.00000
   37     -7.54592    2.00000
   38     -7.26891    2.00000
   39     -6.77025    2.00000
   40     -6.23843    2.00000
   41     -6.07190    1.99999
   42     -6.00934    1.99999
   43     -5.76094    1.99988
   44     -5.44641    1.99732
   45     -5.21050    1.97203
   46     -5.08563    1.90577
   47     -4.94536    1.66521
   48     -4.63782    0.37352
   49     -4.46568    0.07889
   50     -4.22015    0.00702
   51     -3.92376    0.00036
   52     -3.51020    0.00001
   53     -3.21401    0.00000
   54     -2.92519    0.00000
   55     -2.85050    0.00000
   56     -2.18930    0.00000
   57     -1.97035    0.00000
   58     -1.45271    0.00000
   59     -1.09012    0.00000
   60     -0.10088    0.00000
   61      0.28198    0.00000
   62      0.80436    0.00000
   63      1.21340    0.00000
   64      1.44116    0.00000
   65      2.00016    0.00000
   66      2.11642    0.00000
   67      3.58251    0.00000
   68      3.65546    0.00000
   69      3.97955    0.00000
   70      4.63288    0.00000
   71      4.95641    0.00000
   72      5.81747    0.00000
   73      6.05895    0.00000
   74      6.19402    0.00000
   75      6.41153    0.00000
   76      6.77478    0.00000
   77      7.08972    0.00000
   78      7.28571    0.00000
   79      7.70183    0.00000
   80      7.94376    0.00000
   81      8.08962    0.00000
   82      8.20783    0.00000
   83      8.35775    0.00000
   84      8.50400    0.00000
   85      8.69325    0.00000
   86      8.85000    0.00000
   87      8.90252    0.00000
   88      8.98825    0.00000
   89      9.18213    0.00000
   90      9.31564    0.00000
   91      9.43184    0.00000
   92      9.47825    0.00000
   93      9.78821    0.00000
   94      9.80489    0.00000
   95      9.93749    0.00000
   96     10.11939    0.00000
   97     10.22757    0.00000


Forces in eV/Ang:
  0 C     0.91196   -0.65913   -0.08603
  1 C     2.54181   -2.85118    0.07643
  2 C    -0.45856    1.29393   -0.84578
  3 C     1.20063    1.50595    0.10258
  4 C     0.34169    0.68062    0.00592
  5 C     1.95278   -0.34465   -0.00070
  6 C    -0.82854   -0.13793   -0.26465
  7 C     1.63698   -0.64406   -0.48720
  8 C    -0.21936    0.66886    0.05965
  9 C     0.78243   -3.55331   -0.40136
 10 C     3.13636   -0.67238   -0.17947
 11 C     0.96291    0.01578   -0.12420
 12 C     5.61943   -1.41964   -1.14930
 13 C    -3.97130    0.57515   -0.05926
 14 C     1.00735    0.27998    0.23653
 15 C    -1.64108    0.32713    0.91003
 16 C    -5.25665    2.88105    0.55295
 17 C    -2.73842    2.51654    0.53019
 18 C     2.61260    0.75891   -0.02634
 19 C    -1.51231   -0.29406    0.45509
 20 C    -1.57692   -1.11774   -0.05610
 21 C    -2.55530   -0.49694   -0.07905
 22 C     0.23062   -0.34813    0.07986
 23 C    -2.17279    1.04906    0.74499

System changes: positions 

Initializing position-dependent things.

Density initialized from wave functions
           .--------------------------------------.  
          /|                                      |  
         / |                                      |  
        /  |                                      |  
       /   |                                      |  
      /    |                                      |  
     /     |                                      |  
    /      |                                      |  
   /       |                                      |  
  /        |               C  C                   |  
 *         |         C  C  C  C C                 |  
 |         |   C  C  C  C   C   C                 |  
 |         .--------C----C-------C----------------.  
 |        /      C      C                        /   
 |       /         C C  C   C  C                /    
 |      /                                      /     
 |     /                                      /      
 |    /                                      /       
 |   /                                      /        
 |  /                                      /         
 | /                                      /          
 |/                                      /           
 *--------------------------------------*            

Positions:
   0 C     10.430316    8.207055    4.588466
   1 C      8.272521    9.045781    4.896690
   2 C      9.170582   10.188029    4.818036
   3 C      7.889681    5.412453    4.738134
   4 C     10.960323    4.755110    4.386193
   5 C      9.019419    7.853880    4.765338
   6 C      8.519227    4.072047    4.611864
   7 C      7.459152    3.116525    4.649411
   8 C      9.915988    4.027379    4.482906
   9 C      6.273203    3.624765    4.788772
  10 C     10.423273    9.651143    4.627283
  11 C     11.375051    7.223118    4.404318
  12 C      8.197189    6.752208    4.766370
  13 C      5.895423    9.054804    4.861760
  14 C      7.582453   11.842498    4.319555
  15 C      6.499228    5.631446    5.037161
  16 C      7.105745    8.293379    4.921735
  17 C      5.578226    4.577426    5.301895
  18 C      5.502223   10.369693    4.591255
  19 C      8.839772   11.548268    4.431096
  20 C      6.362611   11.342289    4.394054
  21 C      5.097844    7.859729    5.102836
  22 C      3.756888    7.896368    5.128751
  23 C      6.315913    7.029661    5.090756

Unit cell:
           periodic     x           y           z      points  spacing
  1. axis:    yes   16.000000    0.000000    0.000000    80     0.2000
  2. axis:    yes    0.000000   16.000000    0.000000    80     0.2000
  3. axis:    yes    0.000000    0.000000   10.000000    48     0.2083

Effective grid spacing dv^(1/3) = 0.2027

                     log10-error:    total        iterations:
           time      wfs    density  energy       fermi  poisson
iter:   1  17:10:35          +inf  -170.500329    3      5      
iter:   2  17:10:36         -1.91  -170.399073    3      2      
iter:   3  17:10:36         -2.14  -170.350545    3      2      
iter:   4  17:10:37         -2.32  -170.346794    2      2      
iter:   5  17:10:37         -2.43  -170.338998    2      2      
iter:   6  17:10:38         -2.52  -170.337162    2      2      
iter:   7  17:10:38         -2.72  -170.334412    2      2      
iter:   8  17:10:39         -2.90  -170.335973    2      2      
iter:   9  17:10:39         -3.07  -170.336730    2      1      
iter:  10  17:10:40         -3.28  -170.336358    2      1      
iter:  11  17:10:40         -3.41  -170.336080    2      1      
iter:  12  17:10:41         -3.56  -170.336080    2      1      
iter:  13  17:10:41         -3.70  -170.335845    2      1      
iter:  14  17:10:41         -3.80  -170.335941    2      1      
iter:  15  17:10:42         -3.91  -170.336004    2      1      
iter:  16  17:10:42         -4.10  -170.335828    2      1      

Converged after 16 iterations.

Dipole moment: (-0.449832, 0.817732, -0.013810) |e|*Ang

Energy contributions relative to reference atoms: (reference = -24663.074771)

Kinetic:       +146.828405
Potential:     -143.216789
External:        +0.000000
XC:            -176.760857
Entropy (-ST):   -0.269480
Local:           +2.948152
--------------------------
Free energy:   -170.470568
Extrapolated:  -170.335828

Fermi level: -4.77685

 Band  Eigenvalues  Occupancy
    0    -24.72016    2.00000
    1    -23.17467    2.00000
    2    -22.82131    2.00000
    3    -21.63471    2.00000
    4    -20.94506    2.00000
    5    -20.55704    2.00000
    6    -20.03281    2.00000
    7    -19.81941    2.00000
    8    -18.91619    2.00000
    9    -18.16660    2.00000
   10    -17.91167    2.00000
   11    -17.48465    2.00000
   12    -16.82457    2.00000
   13    -16.39500    2.00000
   14    -15.85578    2.00000
   15    -15.33991    2.00000
   16    -14.78932    2.00000
   17    -14.16846    2.00000
   18    -13.78566    2.00000
   19    -13.14025    2.00000
   20    -12.68162    2.00000
   21    -12.21438    2.00000
   22    -11.90661    2.00000
   23    -11.86000    2.00000
   24    -11.38873    2.00000
   25    -11.25603    2.00000
   26    -10.59165    2.00000
   27    -10.41380    2.00000
   28    -10.27678    2.00000
   29     -9.99984    2.00000
   30     -9.47861    2.00000
   31     -9.03273    2.00000
   32     -8.53511    2.00000
   33     -8.28261    2.00000
   34     -8.06187    2.00000
   35     -7.64764    2.00000
   36     -7.60689    2.00000
   37     -7.50772    2.00000
   38     -7.26107    2.00000
   39     -6.75584    2.00000
   40     -6.24887    2.00000
   41     -6.09523    2.00000
   42     -6.01185    1.99999
   43     -5.75858    1.99989
   44     -5.45914    1.99783
   45     -5.22040    1.97658
   46     -5.09043    1.91669
   47     -4.93001    1.64448
   48     -4.64277    0.41474
   49     -4.40364    0.04676
   50     -4.11693    0.00272
   51     -3.90572    0.00033
   52     -3.47478    0.00000
   53     -3.26116    0.00000
   54     -2.92406    0.00000
   55     -2.86450    0.00000
   56     -2.21883    0.00000
   57     -2.04613    0.00000
   58     -1.41513    0.00000
   59     -1.02594    0.00000
   60     -0.06317    0.00000
   61      0.30167    0.00000
   62      0.99117    0.00000
   63      1.24543    0.00000
   64      1.46646    0.00000
   65      2.07702    0.00000
   66      2.17347    0.00000
   67      3.77770    0.00000
   68      3.82606    0.00000
   69      4.02305    0.00000
   70      4.74880    0.00000
   71      5.02337    0.00000
   72      5.80676    0.00000
   73      6.09586    0.00000
   74      6.21806    0.00000
   75      6.56708    0.00000
   76      6.81449    0.00000
   77      7.14684    0.00000
   78      7.27990    0.00000
   79      7.64726    0.00000
   80      7.98178    0.00000
   81      8.13139    0.00000
   82      8.32993    0.00000
   83      8.38691    0.00000
   84      8.51840    0.00000
   85      8.68861    0.00000
   86      8.87403    0.00000
   87      8.92096    0.00000
   88      9.03633    0.00000
   89      9.21346    0.00000
   90      9.35529    0.00000
   91      9.46418    0.00000
   92      9.50168    0.00000
   93      9.82461    0.00000
   94      9.87148    0.00000
   95      9.97190    0.00000
   96     10.14642    0.00000
   97     10.24817    0.00000


Forces in eV/Ang:
  0 C     1.02282   -0.51395   -0.07155
  1 C     1.85215   -2.33045    0.02563
  2 C    -0.12511    0.77443   -0.82529
  3 C     0.90058    1.17052    0.14846
  4 C     0.16710    0.57106    0.01421
  5 C     1.67338   -0.49171    0.00956
  6 C    -0.70783   -0.11693   -0.24624
  7 C     1.24848   -0.53545   -0.42717
  8 C    -0.04452    0.77018    0.03622
  9 C     0.68276   -2.96190   -0.13724
 10 C     2.61548   -0.52085   -0.12718
 11 C     0.99284   -0.05339   -0.14435
 12 C     5.17659   -1.57745   -1.04208
 13 C    -3.56435    0.53463   -0.02284
 14 C     0.58048    0.32083    0.17860
 15 C    -1.31258    0.52684    0.80038
 16 C    -4.38894    2.57006    0.58047
 17 C    -2.16078    1.99637    0.18843
 18 C     2.09485    0.69152   -0.04393
 19 C    -1.27511   -0.45232    0.50710
 20 C    -1.17459   -0.60040   -0.11735
 21 C    -2.36872   -0.50999   -0.05044
 22 C    -0.14766   -0.34061    0.09109
 23 C    -1.76548    1.07825    0.63025

System changes: positions 

Initializing position-dependent things.

Density initialized from wave functions
           .--------------------------------------.  
          /|                                      |  
         / |                                      |  
        /  |                                      |  
       /   |                                      |  
      /    |                                      |  
     /     |                                      |  
    /      |                                      |  
   /       |                                      |  
  /        |               C  C                   |  
 *         |         C  C  C  C C                 |  
 |         |   C  C  C C    C   C                 |  
 |         .--------C----C-------C----------------.  
 |        /      C      C                        /   
 |       /         C C  C   C  C                /    
 |      /                                      /     
 |     /                                      /      
 |    /                                      /       
 |   /                                      /        
 |  /                                      /         
 | /                                      /          
 |/                                      /           
 *--------------------------------------*            

Positions:
   0 C     10.440018    8.204622    4.588079
   1 C      8.278941    9.030027    4.896247
   2 C      9.176751   10.186304    4.811190
   3 C      7.892738    5.418484    4.739953
   4 C     10.960567    4.759068    4.386354
   5 C      9.029992    7.849140    4.765494
   6 C      8.516559    4.071780    4.609824
   7 C      7.463922    3.113656    4.646633
   8 C      9.915854    4.034316    4.483184
   9 C      6.273483    3.613620    4.794554
  10 C     10.435938    9.649969    4.627383
  11 C     11.383814    7.221618    4.402910
  12 C      8.233748    6.737639    4.759216
  13 C      5.871166    9.058993    4.862044
  14 C      7.581422   11.844974    4.320623
  15 C      6.493549    5.639321    5.042145
  16 C      7.080348    8.311963    4.926649
  17 C      5.571109    4.580405    5.295916
  18 C      5.513900   10.374072    4.590799
  19 C      8.830913   11.543759    4.435376
  20 C      6.359296   11.343836    4.392301
  21 C      5.082668    7.855141    5.102719
  22 C      3.749344    7.893630    5.129693
  23 C      6.305891    7.038770    5.094777

Unit cell:
           periodic     x           y           z      points  spacing
  1. axis:    yes   16.000000    0.000000    0.000000    80     0.2000
  2. axis:    yes    0.000000   16.000000    0.000000    80     0.2000
  3. axis:    yes    0.000000    0.000000   10.000000    48     0.2083

Effective grid spacing dv^(1/3) = 0.2027

                     log10-error:    total        iterations:
           time      wfs    density  energy       fermi  poisson
iter:   1  17:10:44          +inf  -171.197706    3      5      
iter:   2  17:10:45         -2.04  -171.140726    3      2      
iter:   3  17:10:45         -2.26  -171.115259    3      2      
iter:   4  17:10:46         -2.43  -171.110875    2      2      
iter:   5  17:10:46         -2.55  -171.105176    3      2      
iter:   6  17:10:47         -2.68  -171.107649    2      2      
iter:   7  17:10:47         -2.83  -171.105172    2      2      
iter:   8  17:10:48         -2.99  -171.105599    2      2      
iter:   9  17:10:48         -3.16  -171.106585    2      1      
iter:  10  17:10:48         -3.37  -171.106752    2      1      
iter:  11  17:10:49         -3.56  -171.106210    2      1      
iter:  12  17:10:49         -3.68  -171.106480    2      1      
iter:  13  17:10:50         -3.83  -171.105960    2      1      
iter:  14  17:10:50         -3.89  -171.105740    2      1      
iter:  15  17:10:51         -4.02  -171.105960    2      1      

Converged after 15 iterations.

Dipole moment: (-0.471885, 0.823918, -0.012216) |e|*Ang

Energy contributions relative to reference atoms: (reference = -24663.074771)

Kinetic:       +145.276861
Potential:     -142.606334
External:        +0.000000
XC:            -176.595563
Entropy (-ST):   -0.264327
Local:           +2.951240
--------------------------
Free energy:   -171.238124
Extrapolated:  -171.105960

Fermi level: -4.77564

 Band  Eigenvalues  Occupancy
    0    -24.51154    2.00000
    1    -23.04958    2.00000
    2    -22.80460    2.00000
    3    -21.57595    2.00000
    4    -20.89370    2.00000
    5    -20.46293    2.00000
    6    -19.98723    2.00000
    7    -19.81706    2.00000
    8    -18.89992    2.00000
    9    -18.20714    2.00000
   10    -17.89462    2.00000
   11    -17.49868    2.00000
   12    -16.74536    2.00000
   13    -16.39027    2.00000
   14    -15.85770    2.00000
   15    -15.34543    2.00000
   16    -14.71427    2.00000
   17    -14.21116    2.00000
   18    -13.73536    2.00000
   19    -13.03697    2.00000
   20    -12.66280    2.00000
   21    -12.21361    2.00000
   22    -11.82562    2.00000
   23    -11.76548    2.00000
   24    -11.38953    2.00000
   25    -11.22778    2.00000
   26    -10.62312    2.00000
   27    -10.36294    2.00000
   28    -10.27852    2.00000
   29    -10.02195    2.00000
   30     -9.46637    2.00000
   31     -9.16418    2.00000
   32     -8.60962    2.00000
   33     -8.26293    2.00000
   34     -8.05097    2.00000
   35     -7.64195    2.00000
   36     -7.59069    2.00000
   37     -7.47006    2.00000
   38     -7.26058    2.00000
   39     -6.73280    2.00000
   40     -6.25967    2.00000
   41     -6.11427    2.00000
   42     -6.01325    1.99999
   43     -5.76248    1.99990
   44     -5.47683    1.99820
   45     -5.23582    1.98013
   46     -5.09726    1.92288
   47     -4.92132    1.62209
   48     -4.65151    0.44845
   49     -4.34577    0.02681
   50     -4.03981    0.00127
   51     -3.88661    0.00028
   52     -3.44572    0.00000
   53     -3.31504    0.00000
   54     -2.93819    0.00000
   55     -2.84200    0.00000
   56     -2.23024    0.00000
   57     -2.11825    0.00000
   58     -1.38147    0.00000
   59     -0.96844    0.00000
   60     -0.03412    0.00000
   61      0.34103    0.00000
   62      1.13192    0.00000
   63      1.29101    0.00000
   64      1.50047    0.00000
   65      2.12701    0.00000
   66      2.23122    0.00000
   67      3.88348    0.00000
   68      3.94480    0.00000
   69      4.07822    0.00000
   70      4.82942    0.00000
   71      5.09002    0.00000
   72      5.78386    0.00000
   73      6.08170    0.00000
   74      6.26166    0.00000
   75      6.70444    0.00000
   76      6.83847    0.00000
   77      7.19934    0.00000
   78      7.28781    0.00000
   79      7.58618    0.00000
   80      8.01369    0.00000
   81      8.16294    0.00000
   82      8.40453    0.00000
   83      8.40915    0.00000
   84      8.51127    0.00000
   85      8.68770    0.00000
   86      8.88955    0.00000
   87      8.94041    0.00000
   88      9.07787    0.00000
   89      9.24420    0.00000
   90      9.38262    0.00000
   91      9.48558    0.00000
   92      9.52544    0.00000
   93      9.85515    0.00000
   94      9.91585    0.00000
   95     10.00201    0.00000
   96     10.15967    0.00000
   97     10.26318    0.00000


Forces in eV/Ang:
  0 C     1.03993   -0.39688   -0.05434
  1 C     1.39475   -2.00192   -0.02101
  2 C     0.04877    0.45261   -0.78757
  3 C     0.68065    0.84388    0.17327
  4 C     0.22787    0.63998    0.00388
  5 C     1.41054   -0.49793    0.00374
  6 C    -0.53920   -0.11765   -0.22965
  7 C     0.99643   -0.46311   -0.37454
  8 C    -0.18817    0.69945    0.04229
  9 C     0.53317   -2.44408    0.07209
 10 C     2.24730   -0.44197   -0.12217
 11 C     0.99450   -0.11408   -0.14918
 12 C     4.76573   -1.62749   -0.90657
 13 C    -3.23220    0.52347    0.02924
 14 C     0.49894    0.34955    0.13840
 15 C    -1.05494    0.61188    0.70142
 16 C    -3.68499    2.24479    0.57781
 17 C    -1.65837    1.58392   -0.06376
 18 C     1.62438    0.62827   -0.03282
 19 C    -1.17368   -0.53409    0.50115
 20 C    -0.99142   -0.28000   -0.14413
 21 C    -2.07833   -0.47992   -0.04673
 22 C    -0.49524   -0.31963    0.09880
 23 C    -1.44902    1.08832    0.54520

System changes: positions 

Initializing position-dependent things.

Density initialized from wave functions
           .--------------------------------------.  
          /|                                      |  
         / |                                      |  
        /  |                                      |  
       /   |                                      |  
      /    |                                      |  
     /     |                                      |  
    /      |                                      |  
   /       |                                      |  
  /        |               C  C                   |  
 *         |         C  C  C  C C                 |  
 |         |   C  C  C C    C   C                 |  
 |         .--------C----C-------C----------------.  
 |        /      C      C                        /   
 |       /         C C  C   C  C                /    
 |      /                                      /     
 |     /                                      /      
 |    /                                      /       
 |   /                                      /        
 |  /                                      /         
 | /                                      /          
 |/                                      /           
 *--------------------------------------*            

Positions:
   0 C     10.450191    8.202874    4.587814
   1 C      8.283159    9.016243    4.895400
   2 C      9.182829   10.183336    4.804358
   3 C      7.894797    5.421977    4.742009
   4 C     10.962058    4.764525    4.386373
   5 C      9.039081    7.844191    4.765556
   6 C      8.514674    4.071198    4.607863
   7 C      7.467888    3.110918    4.644058
   8 C      9.913745    4.040617    4.483564
   9 C      6.273873    3.603342    4.800834
  10 C     10.448148    9.648516    4.627098
  11 C     11.393030    7.219609    4.401415
  12 C      8.269951    6.721894    4.752778
  13 C      5.847541    9.063421    4.862864
  14 C      7.581487   11.848108    4.321380
  15 C      6.488859    5.647515    5.046814
  16 C      7.058284    8.328557    4.931854
  17 C      5.565989    4.583451    5.289083
  18 C      5.522297   10.378466    4.590489
  19 C      8.822148   11.538076    4.439879
  20 C      6.355675   11.347271    4.390362
  21 C      5.068482    7.850765    5.102529
  22 C      3.739083    7.890940    5.130733
  23 C      6.297614    7.048627    5.098408

Unit cell:
           periodic     x           y           z      points  spacing
  1. axis:    yes   16.000000    0.000000    0.000000    80     0.2000
  2. axis:    yes    0.000000   16.000000    0.000000    80     0.2000
  3. axis:    yes    0.000000    0.000000   10.000000    48     0.2083

Effective grid spacing dv^(1/3) = 0.2027

                     log10-error:    total        iterations:
           time      wfs    density  energy       fermi  poisson
iter:   1  17:10:52          +inf  -171.807533    3      5      
iter:   2  17:10:53         -2.15  -171.771400    3      2      
iter:   3  17:10:53         -2.37  -171.757974    2      1      
iter:   4  17:10:54         -2.50  -171.752482    2      2      
iter:   5  17:10:54         -2.62  -171.753567    2      2      
iter:   6  17:10:55         -2.76  -171.749593    2      2      
iter:   7  17:10:55         -2.89  -171.752214    2      1      
iter:   8  17:10:56         -3.08  -171.751762    2      2      
iter:   9  17:10:56         -3.26  -171.751452    2      1      
iter:  10  17:10:57         -3.42  -171.751992    2      1      
iter:  11  17:10:57         -3.64  -171.751442    2      1      
iter:  12  17:10:58         -3.73  -171.751381    2      1      
iter:  13  17:10:58         -3.86  -171.751447    2      1      
iter:  14  17:10:58         -4.00  -171.751159    2      1      

Converged after 14 iterations.

Dipole moment: (-0.490020, 0.822049, -0.009245) |e|*Ang

Energy contributions relative to reference atoms: (reference = -24663.074771)

Kinetic:       +143.296228
Potential:     -141.558482
External:        +0.000000
XC:            -176.310369
Entropy (-ST):   -0.261079
Local:           +2.952004
--------------------------
Free energy:   -171.881699
Extrapolated:  -171.751159

Fermi level: -4.77450

 Band  Eigenvalues  Occupancy
    0    -24.34495    2.00000
    1    -22.94790    2.00000
    2    -22.77941    2.00000
    3    -21.52693    2.00000
    4    -20.83522    2.00000
    5    -20.38758    2.00000
    6    -19.94249    2.00000
    7    -19.80691    2.00000
    8    -18.88144    2.00000
    9    -18.23388    2.00000
   10    -17.87470    2.00000
   11    -17.50575    2.00000
   12    -16.69037    2.00000
   13    -16.37879    2.00000
   14    -15.85443    2.00000
   15    -15.35084    2.00000
   16    -14.64719    2.00000
   17    -14.23944    2.00000
   18    -13.70390    2.00000
   19    -12.95735    2.00000
   20    -12.64100    2.00000
   21    -12.21497    2.00000
   22    -11.78290    2.00000
   23    -11.67201    2.00000
   24    -11.38922    2.00000
   25    -11.19638    2.00000
   26    -10.64967    2.00000
   27    -10.31832    2.00000
   28    -10.27114    2.00000
   29    -10.03621    2.00000
   30     -9.45313    2.00000
   31     -9.27947    2.00000
   32     -8.66347    2.00000
   33     -8.24055    2.00000
   34     -8.04032    2.00000
   35     -7.64708    2.00000
   36     -7.57544    2.00000
   37     -7.43558    2.00000
   38     -7.26131    2.00000
   39     -6.71151    2.00000
   40     -6.26911    2.00000
   41     -6.13262    2.00000
   42     -6.00537    1.99999
   43     -5.76065    1.99990
   44     -5.48851    1.99842
   45     -5.24638    1.98231
   46     -5.10386    1.92841
   47     -4.91389    1.60241
   48     -4.65730    0.47298
   49     -4.28382    0.01468
   50     -3.97812    0.00070
   51     -3.85815    0.00021
   52     -3.42437    0.00000
   53     -3.36374    0.00000
   54     -2.94351    0.00000
   55     -2.81828    0.00000
   56     -2.24686    0.00000
   57     -2.18157    0.00000
   58     -1.35872    0.00000
   59     -0.92233    0.00000
   60     -0.00827    0.00000
   61      0.35809    0.00000
   62      1.20719    0.00000
   63      1.36904    0.00000
   64      1.52904    0.00000
   65      2.15734    0.00000
   66      2.28325    0.00000
   67      3.94657    0.00000
   68      4.01715    0.00000
   69      4.13379    0.00000
   70      4.87475    0.00000
   71      5.16037    0.00000
   72      5.75289    0.00000
   73      6.04409    0.00000
   74      6.30219    0.00000
   75      6.79862    0.00000
   76      6.84954    0.00000
   77      7.24279    0.00000
   78      7.31414    0.00000
   79      7.54541    0.00000
   80      8.03933    0.00000
   81      8.18196    0.00000
   82      8.40146    0.00000
   83      8.42963    0.00000
   84      8.53937    0.00000
   85      8.69309    0.00000
   86      8.90484    0.00000
   87      8.95859    0.00000
   88      9.11310    0.00000
   89      9.27641    0.00000
   90      9.40265    0.00000
   91      9.50269    0.00000
   92      9.54550    0.00000
   93      9.88098    0.00000
   94      9.94145    0.00000
   95     10.02647    0.00000
   96     10.16633    0.00000
   97     10.27845    0.00000


Forces in eV/Ang:
  0 C     1.01740   -0.32636   -0.04111
  1 C     1.04324   -1.71388   -0.05464
  2 C     0.19491    0.21243   -0.76780
  3 C     0.50299    0.62613    0.19344
  4 C     0.08074    0.55174    0.01639
  5 C     1.24851   -0.49137   -0.01961
  6 C    -0.48718   -0.12647   -0.20309
  7 C     0.76880   -0.41114   -0.32134
  8 C    -0.01493    0.77966    0.01877
  9 C     0.44050   -2.01870    0.20383
 10 C     1.92660   -0.37258   -0.10994
 11 C     0.98468   -0.14304   -0.13755
 12 C     4.33473   -1.61369   -0.77344
 13 C    -2.88570    0.51309    0.06278
 14 C     0.28039    0.36848    0.09820
 15 C    -0.86135    0.65175    0.61342
 16 C    -3.04802    1.92878    0.56839
 17 C    -1.26123    1.27591   -0.22983
 18 C     1.27872    0.64973   -0.04653
 19 C    -0.96904   -0.61687    0.49965
 20 C    -0.80967   -0.04336   -0.14954
 21 C    -1.97543   -0.46850   -0.03405
 22 C    -0.67422   -0.28829    0.09635
 23 C    -1.18080    1.03218    0.45312

System changes: positions 

Initializing position-dependent things.

Density initialized from wave functions
           .--------------------------------------.  
          /|                                      |  
         / |                                      |  
        /  |                                      |  
       /   |                                      |  
      /    |                                      |  
     /     |                                      |  
    /      |                                      |  
   /       |                                      |  
  /        |               C  C                   |  
 *         |         C  C  C  C  C                |  
 |         |   C  C  C C    C   C                 |  
 |         .--------C----C-------C----------------.  
 |        /      C      C                        /   
 |       /         C C  C   C  C                /    
 |      /                                      /     
 |     /                                      /      
 |    /                                      /       
 |   /                                      /        
 |  /                                      /         
 | /                                      /          
 |/                                      /           
 *--------------------------------------*            

Positions:
   0 C     10.460656    8.201298    4.587628
   1 C      8.285986    9.003830    4.894244
   2 C      9.189129   10.179507    4.797112
   3 C      7.896153    5.424154    4.744335
   4 C     10.961931    4.769443    4.386564
   5 C      9.048031    7.839014    4.765279
   6 C      8.512201    4.070227    4.606069
   7 C      7.471169    3.108055    4.641678
   8 C      9.913901    4.048538    4.483655
   9 C      6.274482    3.593726    4.807386
  10 C     10.460165    9.646840    4.626602
  11 C     11.402836    7.217380    4.400006
  12 C      8.305901    6.705331    4.747011
  13 C      5.824616    9.068220    4.864041
  14 C      7.580375   11.851857    4.321805
  15 C      6.484550    5.655874    5.051303
  16 C      7.039016    8.343461    4.937401
  17 C      5.562315    4.586830    5.281688
  18 C      5.528844   10.384056    4.589970
  19 C      8.814813   11.530973    4.444788
  20 C      6.352082   11.352051    4.388426
  21 C      5.052762    7.846186    5.102409
  22 C      3.727542    7.888384    5.131777
  23 C      6.290603    7.058623    5.101538

Unit cell:
           periodic     x           y           z      points  spacing
  1. axis:    yes   16.000000    0.000000    0.000000    80     0.2000
  2. axis:    yes    0.000000   16.000000    0.000000    80     0.2000
  3. axis:    yes    0.000000    0.000000   10.000000    48     0.2083

Effective grid spacing dv^(1/3) = 0.2027

                     log10-error:    total        iterations:
           time      wfs    density  energy       fermi  poisson
iter:   1  17:11:00          +inf  -172.343283    3      5      
iter:   2  17:11:01         -2.26  -172.323233    3      1      
iter:   3  17:11:01         -2.45  -172.312927    2      1      
iter:   4  17:11:02         -2.56  -172.312957    2      2      
iter:   5  17:11:02         -2.67  -172.305962    3      2      
iter:   6  17:11:02         -2.68  -172.309953    3      1      
iter:   7  17:11:03         -2.96  -172.310439    2      2      
iter:   8  17:11:03         -3.08  -172.310244    2      1      
iter:   9  17:11:04         -3.24  -172.311118    2      1      
iter:  10  17:11:04         -3.46  -172.310601    2      1      
iter:  11  17:11:05         -3.68  -172.310015    2      1      
iter:  12  17:11:05         -3.76  -172.309992    2      1      
iter:  13  17:11:06         -3.88  -172.309874    2      1      
iter:  14  17:11:06         -3.99  -172.309665    2      1      
iter:  15  17:11:07         -4.07  -172.309841    2      1      

Converged after 15 iterations.

Dipole moment: (-0.504634, 0.816035, -0.005135) |e|*Ang

Energy contributions relative to reference atoms: (reference = -24663.074771)

Kinetic:       +141.076711
Potential:     -140.233048
External:        +0.000000
XC:            -175.976460
Entropy (-ST):   -0.260503
Local:           +2.953208
--------------------------
Free energy:   -172.440092
Extrapolated:  -172.309841

Fermi level: -4.77683

 Band  Eigenvalues  Occupancy
    0    -24.20715    2.00000
    1    -22.87237    2.00000
    2    -22.73828    2.00000
    3    -21.48730    2.00000
    4    -20.77672    2.00000
    5    -20.33011    2.00000
    6    -19.89564    2.00000
    7    -19.79208    2.00000
    8    -18.86278    2.00000
    9    -18.26408    2.00000
   10    -17.86231    2.00000
   11    -17.51151    2.00000
   12    -16.65800    2.00000
   13    -16.36984    2.00000
   14    -15.85661    2.00000
   15    -15.36055    2.00000
   16    -14.58892    2.00000
   17    -14.26055    2.00000
   18    -13.67946    2.00000
   19    -12.89670    2.00000
   20    -12.61669    2.00000
   21    -12.22018    2.00000
   22    -11.75694    2.00000
   23    -11.59266    2.00000
   24    -11.38795    2.00000
   25    -11.16475    2.00000
   26    -10.67029    2.00000
   27    -10.29410    2.00000
   28    -10.24528    2.00000
   29    -10.04406    2.00000
   30     -9.44948    2.00000
   31     -9.37555    2.00000
   32     -8.70663    2.00000
   33     -8.22394    2.00000
   34     -8.02686    2.00000
   35     -7.65411    2.00000
   36     -7.56281    2.00000
   37     -7.40696    2.00000
   38     -7.26506    2.00000
   39     -6.68696    2.00000
   40     -6.27715    2.00000
   41     -6.15348    2.00000
   42     -5.99788    1.99999
   43     -5.76753    1.99990
   44     -5.50144    1.99858
   45     -5.26030    1.98423
   46     -5.11164    1.93209
   47     -4.90994    1.58206
   48     -4.66541    0.49418
   49     -4.22990    0.00839
   50     -3.93215    0.00043
   51     -3.83010    0.00015
   52     -3.41424    0.00000
   53     -3.39244    0.00000
   54     -2.94704    0.00000
   55     -2.79990    0.00000
   56     -2.27589    0.00000
   57     -2.22414    0.00000
   58     -1.33887    0.00000
   59     -0.88019    0.00000
   60      0.01051    0.00000
   61      0.39782    0.00000
   62      1.23936    0.00000
   63      1.44760    0.00000
   64      1.58243    0.00000
   65      2.17852    0.00000
   66      2.32983    0.00000
   67      3.96638    0.00000
   68      4.06920    0.00000
   69      4.18205    0.00000
   70      4.88615    0.00000
   71      5.22922    0.00000
   72      5.71176    0.00000
   73      5.99174    0.00000
   74      6.32632    0.00000
   75      6.81856    0.00000
   76      6.87601    0.00000
   77      7.25244    0.00000
   78      7.36135    0.00000
   79      7.53405    0.00000
   80      8.04845    0.00000
   81      8.18889    0.00000
   82      8.34776    0.00000
   83      8.44455    0.00000
   84      8.59197    0.00000
   85      8.70358    0.00000
   86      8.91910    0.00000
   87      8.97395    0.00000
   88      9.14056    0.00000
   89      9.31204    0.00000
   90      9.41908    0.00000
   91      9.51547    0.00000
   92      9.56247    0.00000
   93      9.90436    0.00000
   94      9.95524    0.00000
   95     10.03771    0.00000
   96     10.17062    0.00000
   97     10.28763    0.00000


Forces in eV/Ang:
  0 C     0.98574   -0.26367   -0.02817
  1 C     0.74480   -1.44874   -0.08594
  2 C     0.29049    0.02095   -0.73446
  3 C     0.36420    0.44480    0.20365
  4 C     0.16103    0.64987    0.01174
  5 C     1.09800   -0.51027   -0.02851
  6 C    -0.36003   -0.12172   -0.18642
  7 C     0.58456   -0.37147   -0.27267
  8 C    -0.16371    0.69490    0.02460
  9 C     0.33619   -1.64285    0.31641
 10 C     1.64085   -0.32772   -0.09190
 11 C     0.98499   -0.17517   -0.13480
 12 C     3.93517   -1.55197   -0.62641
 13 C    -2.58354    0.48729    0.10368
 14 C     0.23018    0.34754    0.08126
 15 C    -0.67906    0.67890    0.53064
 16 C    -2.53203    1.63294    0.51626
 17 C    -0.92665    1.01139   -0.36692
 18 C     0.93169    0.59496   -0.05010
 19 C    -0.92146   -0.64617    0.51026
 20 C    -0.63383    0.18850   -0.15699
 21 C    -1.65537   -0.42714   -0.02884
 22 C    -0.86825   -0.27110    0.09215
 23 C    -1.00785    0.98961    0.36943

System changes: positions 

Initializing position-dependent things.

Density initialized from wave functions
           .--------------------------------------.  
          /|                                      |  
         / |                                      |  
        /  |                                      |  
       /   |                                      |  
      /    |                                      |  
     /     |                                      |  
    /      |                                      |  
   /       |                                      |  
  /        |               C  C                   |  
 *         |         C  C     C  C                |  
 |         |   C  C  C C   CC   C                 |  
 |         .--------C-----C------C----------------.  
 |        /      C      C                        /   
 |       /         C C  C   C  C                /    
 |      /                                      /     
 |     /                                      /      
 |    /                                      /       
 |   /                                      /        
 |  /                                      /         
 | /                                      /          
 |/                                      /           
 *--------------------------------------*            

Positions:
   0 C     10.471384    8.199852    4.587531
   1 C      8.287677    8.992618    4.892766
   2 C      9.195436   10.175011    4.789596
   3 C      7.897062    5.425360    4.746848
   4 C     10.963215    4.776367    4.386702
   5 C      9.056870    7.833221    4.764862
   6 C      8.510325    4.069080    4.604302
   7 C      7.473893    3.104995    4.639487
   8 C      9.911970    4.055910    4.483849
   9 C      6.275113    3.584572    4.814244
  10 C     10.471982    9.644789    4.626043
  11 C     11.413455    7.214823    4.398545
  12 C      8.341843    6.688455    4.742180
  13 C      5.801948    9.073167    4.865712
  14 C      7.579992   11.855652    4.322201
  15 C      6.480787    5.664478    5.055601
  16 C      7.021435    8.356815    4.942721
  17 C      5.559704    4.590566    5.273776
  18 C      5.533192   10.389764    4.589366
  19 C      8.806811   11.523106    4.450312
  20 C      6.348862   11.358551    4.386410
  21 C      5.038637    7.841805    5.102270
  22 C      3.714174    7.885758    5.132810
  23 C      6.283760    7.068950    5.104218

Unit cell:
           periodic     x           y           z      points  spacing
  1. axis:    yes   16.000000    0.000000    0.000000    80     0.2000
  2. axis:    yes    0.000000   16.000000    0.000000    80     0.2000
  3. axis:    yes    0.000000    0.000000   10.000000    48     0.2083

Effective grid spacing dv^(1/3) = 0.2027

                     log10-error:    total        iterations:
           time      wfs    density  energy       fermi  poisson
iter:   1  17:11:08          +inf  -172.826494    3      5      
iter:   2  17:11:09         -2.31  -172.812212    2      1      
iter:   3  17:11:09         -2.50  -172.804523    2      1      
iter:   4  17:11:10         -2.61  -172.803966    2      2      
iter:   5  17:11:10         -2.72  -172.798524    3      2      
iter:   6  17:11:11         -2.81  -172.808470    3      2      
iter:   7  17:11:11         -2.74  -172.803343    2      1      
iter:   8  17:11:12         -3.16  -172.802120    2      1      
iter:   9  17:11:12         -3.27  -172.803285    2      1      
iter:  10  17:11:13         -3.54  -172.801448    2      1      
iter:  11  17:11:13         -3.63  -172.801133    2      1      
iter:  12  17:11:13         -3.73  -172.802298    2      1      
iter:  13  17:11:14         -3.62  -172.801313    2      1      
iter:  14  17:11:14         -4.01  -172.801149    2      1      

Converged after 14 iterations.

Dipole moment: (-0.518341, 0.806493, -0.000276) |e|*Ang

Energy contributions relative to reference atoms: (reference = -24663.074771)

Kinetic:       +138.354500
Potential:     -138.459908
External:        +0.000000
XC:            -175.515812
Entropy (-ST):   -0.260403
Local:           +2.950272
--------------------------
Free energy:   -172.931351
Extrapolated:  -172.801149

Fermi level: -4.77697

 Band  Eigenvalues  Occupancy
    0    -24.09290    2.00000
    1    -22.81726    2.00000
    2    -22.68272    2.00000
    3    -21.45157    2.00000
    4    -20.71595    2.00000
    5    -20.28336    2.00000
    6    -19.85010    2.00000
    7    -19.76972    2.00000
    8    -18.84397    2.00000
    9    -18.28135    2.00000
   10    -17.84404    2.00000
   11    -17.51198    2.00000
   12    -16.63309    2.00000
   13    -16.35945    2.00000
   14    -15.85247    2.00000
   15    -15.36587    2.00000
   16    -14.53888    2.00000
   17    -14.27346    2.00000
   18    -13.66424    2.00000
   19    -12.84471    2.00000
   20    -12.59361    2.00000
   21    -12.22467    2.00000
   22    -11.74688    2.00000
   23    -11.52476    2.00000
   24    -11.38415    2.00000
   25    -11.13618    2.00000
   26    -10.67906    2.00000
   27    -10.28839    2.00000
   28    -10.21099    2.00000
   29    -10.04594    2.00000
   30     -9.49704    2.00000
   31     -9.40442    2.00000
   32     -8.73900    2.00000
   33     -8.20786    2.00000
   34     -8.01228    2.00000
   35     -7.66811    2.00000
   36     -7.54965    2.00000
   37     -7.37988    2.00000
   38     -7.26692    2.00000
   39     -6.66796    2.00000
   40     -6.28296    2.00000
   41     -6.17200    2.00000
   42     -5.98626    1.99999
   43     -5.76917    1.99990
   44     -5.50545    1.99863
   45     -5.26660    1.98516
   46     -5.11899    1.93666
   47     -4.90475    1.56415
   48     -4.66981    0.51018
   49     -4.17645    0.00492
   50     -3.89433    0.00029
   51     -3.79606    0.00011
   52     -3.44364    0.00000
   53     -3.38155    0.00000
   54     -2.94923    0.00000
   55     -2.78437    0.00000
   56     -2.32788    0.00000
   57     -2.23928    0.00000
   58     -1.32728    0.00000
   59     -0.85460    0.00000
   60      0.02711    0.00000
   61      0.41347    0.00000
   62      1.25516    0.00000
   63      1.48921    0.00000
   64      1.64873    0.00000
   65      2.18799    0.00000
   66      2.37275    0.00000
   67      3.95952    0.00000
   68      4.11036    0.00000
   69      4.21741    0.00000
   70      4.87333    0.00000
   71      5.29858    0.00000
   72      5.66883    0.00000
   73      5.93767    0.00000
   74      6.33307    0.00000
   75      6.80008    0.00000
   76      6.90185    0.00000
   77      7.24538    0.00000
   78      7.41671    0.00000
   79      7.54591    0.00000
   80      8.02783    0.00000
   81      8.19433    0.00000
   82      8.31222    0.00000
   83      8.45966    0.00000
   84      8.64135    0.00000
   85      8.71701    0.00000
   86      8.93331    0.00000
   87      8.98792    0.00000
   88      9.16309    0.00000
   89      9.34754    0.00000
   90      9.43613    0.00000
   91      9.52426    0.00000
   92      9.57189    0.00000
   93      9.92648    0.00000
   94      9.96282    0.00000
   95     10.03881    0.00000
   96     10.17760    0.00000
   97     10.29375    0.00000


Forces in eV/Ang:
  0 C     0.95589   -0.23293   -0.01909
  1 C     0.54653   -1.25148   -0.11403
  2 C     0.34139   -0.12756   -0.68418
  3 C     0.24736    0.33437    0.21790
  4 C     0.01095    0.57923    0.03225
  5 C     0.92837   -0.46430   -0.01677
  6 C    -0.33642   -0.10718   -0.16002
  7 C     0.41193   -0.33162   -0.22237
  8 C     0.02754    0.77642   -0.00854
  9 C     0.26272   -1.29605    0.39171
 10 C     1.41756   -0.26939   -0.06932
 11 C     0.96799   -0.18318   -0.12841
 12 C     3.54472   -1.49768   -0.53455
 13 C    -2.26042    0.45906    0.12501
 14 C     0.09876    0.35765    0.05730
 15 C    -0.53136    0.67670    0.44342
 16 C    -2.08346    1.38307    0.49013
 17 C    -0.66316    0.78747   -0.46593
 18 C     0.69089    0.61380   -0.07204
 19 C    -0.73960   -0.67490    0.49201
 20 C    -0.56364    0.28419   -0.14433
 21 C    -1.58325   -0.36234   -0.02024
 22 C    -0.87204   -0.25872    0.09494
 23 C    -0.87164    0.87412    0.30392

System changes: positions 

Initializing position-dependent things.

Density initialized from wave functions
           .--------------------------------------.  
          /|                                      |  
         / |                                      |  
        /  |                                      |  
       /   |                                      |  
      /    |                                      |  
     /     |                                      |  
    /      |                                      |  
   /       |                                      |  
[...]
External:        +0.000000
XC:            -176.024506
Entropy (-ST):   -0.315536
Local:           +2.989186
--------------------------
Free energy:   -180.555722
Extrapolated:  -180.397954

Fermi level: -4.58685

 Band  Eigenvalues  Occupancy
    0    -23.34277    2.00000
    1    -22.61761    2.00000
    2    -22.22148    2.00000
    3    -21.19207    2.00000
    4    -20.83426    2.00000
    5    -19.90484    2.00000
    6    -19.53857    2.00000
    7    -19.23475    2.00000
    8    -18.59380    2.00000
    9    -17.99479    2.00000
   10    -17.63731    2.00000
   11    -17.29441    2.00000
   12    -16.64559    2.00000
   13    -16.06813    2.00000
   14    -15.53430    2.00000
   15    -14.84375    2.00000
   16    -14.61581    2.00000
   17    -13.70245    2.00000
   18    -13.39368    2.00000
   19    -12.97230    2.00000
   20    -12.67784    2.00000
   21    -11.84569    2.00000
   22    -11.45725    2.00000
   23    -11.25010    2.00000
   24    -10.93754    2.00000
   25    -10.85060    2.00000
   26    -10.53330    2.00000
   27    -10.22826    2.00000
   28    -10.00479    2.00000
   29     -9.84798    2.00000
   30     -9.76566    2.00000
   31     -9.34676    2.00000
   32     -9.20511    2.00000
   33     -8.95622    2.00000
   34     -8.52227    2.00000
   35     -8.50653    2.00000
   36     -7.42946    2.00000
   37     -7.26522    2.00000
   38     -7.06707    2.00000
   39     -7.02165    2.00000
   40     -6.18689    2.00000
   41     -6.14809    2.00000
   42     -5.87541    1.99999
   43     -5.78782    1.99999
   44     -5.56453    1.99989
   45     -5.25036    1.99738
   46     -4.95543    1.95107
   47     -4.65569    1.33123
   48     -4.50765    0.62350
   49     -4.28909    0.09690
   50     -3.50748    0.00004
   51     -3.36055    0.00001
   52     -3.27449    0.00000
   53     -3.01455    0.00000
   54     -2.75123    0.00000
   55     -2.33656    0.00000
   56     -2.12094    0.00000
   57     -0.74135    0.00000
   58     -0.57051    0.00000
   59      0.08231    0.00000
   60      1.30960    0.00000
   61      1.67405    0.00000
   62      2.11602    0.00000
   63      2.41696    0.00000
   64      2.89675    0.00000
   65      3.21925    0.00000
   66      3.60184    0.00000
   67      3.98932    0.00000
   68      4.58867    0.00000
   69      4.73641    0.00000
   70      4.89611    0.00000
   71      5.26739    0.00000
   72      5.71538    0.00000
   73      5.99183    0.00000
   74      6.59562    0.00000
   75      6.86878    0.00000
   76      6.95457    0.00000
   77      7.64251    0.00000
   78      7.84665    0.00000
   79      8.22545    0.00000
   80      8.33407    0.00000
   81      8.65979    0.00000
   82      8.73608    0.00000
   83      8.79203    0.00000
   84      8.82589    0.00000
   85      8.99530    0.00000
   86      9.22846    0.00000
   87      9.34065    0.00000
   88      9.40218    0.00000
   89      9.42691    0.00000
   90      9.75026    0.00000
   91      9.79290    0.00000
   92      9.81972    0.00000
   93      9.98283    0.00000
   94     10.04533    0.00000
   95     10.12096    0.00000
   96     10.24751    0.00000
   97     10.32064    0.00000


Forces in eV/Ang:
  0 C    -0.04436   -0.00376   -0.01411
  1 C    -0.04955    0.03396    0.00094
  2 C     0.01847   -0.06814   -0.01619
  3 C    -0.00906    0.02301   -0.01534
  4 C    -0.02927    0.01307    0.00324
  5 C    -0.05639   -0.00295   -0.07964
  6 C     0.01283    0.02861    0.02153
  7 C    -0.03451    0.02006    0.03160
  8 C    -0.01467   -0.02573   -0.02588
  9 C     0.02175    0.06665   -0.01371
 10 C    -0.09432   -0.04831    0.01532
 11 C     0.00918    0.03396    0.00638
 12 C     0.00197    0.00187    0.05574
 13 C     0.04758    0.01013    0.01767
 14 C    -0.00894   -0.03274    0.01849
 15 C     0.08968    0.04331    0.01427
 16 C     0.07491    0.01151   -0.01057
 17 C     0.05605    0.00344   -0.03179
 18 C    -0.05021   -0.01439   -0.01830
 19 C    -0.02381   -0.08828    0.01397
 20 C     0.03276    0.01171    0.00383
 21 C     0.04839   -0.01806    0.05579
 22 C    -0.06849   -0.02396   -0.04286
 23 C     0.05877    0.04519    0.01762

System changes: positions 

Initializing position-dependent things.

Density initialized from wave functions
           .--------------------------------------.  
          /|                                      |  
         / |                                      |  
        /  |                                      |  
       /   |                                      |  
      /    |                                      |  
     /     |                                      |  
    /      |                                      |  
   /       |                                      |  
  /        |           C   C                      |  
 *         |        CC       CC                   |  
 |         |  C   C    C   CC    C                |  
 |         .---------C-----C----C-----------------.  
 |        /       C     C     C                  /   
 |       /         C C  C   C                   /    
 |      /                                      /     
 |     /                                      /      
 |    /                                      /       
 |   /                                      /        
 |  /                                      /         
 | /                                      /          
 |/                                      /           
 *--------------------------------------*            

Positions:
   0 C     10.609745    8.007069    4.560378
   1 C      8.307384    8.774680    4.811520
   2 C      9.255597    9.930544    4.545850
   3 C      7.920378    5.451259    4.913193
   4 C     10.302490    5.622926    4.618220
   5 C      9.197110    7.688273    4.854413
   6 C      8.462157    4.094504    4.694943
   7 C      7.465218    3.097458    4.673336
   8 C      9.891399    4.294869    4.414811
   9 C      6.264175    3.620541    4.866927
  10 C     10.582278    9.408771    4.383692
  11 C     11.185739    6.723428    4.419674
  12 C      9.022997    6.304336    4.904390
  13 C      5.602901    9.200100    4.882140
  14 C      7.568089   11.850121    4.443746
  15 C      6.519789    5.819989    4.995843
  16 C      6.901376    8.484558    4.893085
  17 C      5.563228    4.730446    5.005956
  18 C      5.404517   10.558983    4.751680
  19 C      8.656147   11.188324    4.439299
  20 C      6.286815   11.472568    4.573898
  21 C      4.862508    7.898610    5.000405
  22 C      3.674238    7.269717    5.123366
  23 C      6.201888    7.207937    4.984267

Unit cell:
           periodic     x           y           z      points  spacing
  1. axis:    yes   16.000000    0.000000    0.000000    80     0.2000
  2. axis:    yes    0.000000   16.000000    0.000000    80     0.2000
  3. axis:    yes    0.000000    0.000000   10.000000    48     0.2083

Effective grid spacing dv^(1/3) = 0.2027

                     log10-error:    total        iterations:
           time      wfs    density  energy       fermi  poisson
iter:   1  17:19:15          +inf  -180.401526    2      4      
iter:   2  17:19:15         -2.88  -180.399799    2      1      
iter:   3  17:19:16         -2.98  -180.398743    2      1      
iter:   4  17:19:16         -3.10  -180.397940    2      1      
iter:   5  17:19:17         -3.30  -180.397997    2      1      
iter:   6  17:19:17         -3.42  -180.397472    2      1      
iter:   7  17:19:18         -3.69  -180.398580    2      1      
iter:   8  17:19:18         -3.81  -180.398990    2      1      
iter:   9  17:19:19         -3.93  -180.398728    2      1      
iter:  10  17:19:19         -4.07  -180.398849    2      1      

Converged after 10 iterations.

Dipole moment: (0.361029, 0.556925, 0.045654) |e|*Ang

Energy contributions relative to reference atoms: (reference = -24663.074771)

Kinetic:       +113.922270
Potential:     -120.920252
External:        +0.000000
XC:            -176.239264
Entropy (-ST):   -0.315868
Local:           +2.996331
--------------------------
Free energy:   -180.556783
Extrapolated:  -180.398849

Fermi level: -4.58696

 Band  Eigenvalues  Occupancy
    0    -23.35377    2.00000
    1    -22.61658    2.00000
    2    -22.23263    2.00000
    3    -21.20222    2.00000
    4    -20.84523    2.00000
    5    -19.91121    2.00000
    6    -19.54579    2.00000
    7    -19.24074    2.00000
    8    -18.60721    2.00000
    9    -17.99726    2.00000
   10    -17.64144    2.00000
   11    -17.29836    2.00000
   12    -16.65231    2.00000
   13    -16.07352    2.00000
   14    -15.54115    2.00000
   15    -14.84732    2.00000
   16    -14.61886    2.00000
   17    -13.70646    2.00000
   18    -13.39896    2.00000
   19    -12.97688    2.00000
   20    -12.68641    2.00000
   21    -11.84331    2.00000
   22    -11.46662    2.00000
   23    -11.25972    2.00000
   24    -10.93740    2.00000
   25    -10.85127    2.00000
   26    -10.52854    2.00000
   27    -10.23565    2.00000
   28    -10.00746    2.00000
   29     -9.85257    2.00000
   30     -9.77335    2.00000
   31     -9.35080    2.00000
   32     -9.20839    2.00000
   33     -8.96474    2.00000
   34     -8.52984    2.00000
   35     -8.51139    2.00000
   36     -7.43525    2.00000
   37     -7.26997    2.00000
   38     -7.06877    2.00000
   39     -7.01893    2.00000
   40     -6.18573    2.00000
   41     -6.15248    2.00000
   42     -5.87712    2.00000
   43     -5.78674    1.99999
   44     -5.56572    1.99989
   45     -5.25193    1.99741
   46     -4.95426    1.95045
   47     -4.65573    1.33090
   48     -4.50794    0.62424
   49     -4.28938    0.09706
   50     -3.50893    0.00004
   51     -3.37273    0.00001
   52     -3.27558    0.00000
   53     -3.01673    0.00000
   54     -2.75664    0.00000
   55     -2.33355    0.00000
   56     -2.12107    0.00000
   57     -0.73508    0.00000
   58     -0.56941    0.00000
   59      0.08955    0.00000
   60      1.31255    0.00000
   61      1.68828    0.00000
   62      2.12828    0.00000
   63      2.42624    0.00000
   64      2.90771    0.00000
   65      3.20989    0.00000
   66      3.62494    0.00000
   67      3.99686    0.00000
   68      4.59718    0.00000
   69      4.74183    0.00000
   70      4.90739    0.00000
   71      5.27646    0.00000
   72      5.72942    0.00000
   73      6.00100    0.00000
   74      6.60852    0.00000
   75      6.88069    0.00000
   76      6.97277    0.00000
   77      7.64859    0.00000
   78      7.84725    0.00000
   79      8.23467    0.00000
   80      8.32564    0.00000
   81      8.66227    0.00000
   82      8.72984    0.00000
   83      8.79686    0.00000
   84      8.82376    0.00000
   85      8.99589    0.00000
   86      9.22256    0.00000
   87      9.33690    0.00000
   88      9.40257    0.00000
   89      9.42901    0.00000
   90      9.74814    0.00000
   91      9.79073    0.00000
   92      9.82185    0.00000
   93      9.98957    0.00000
   94     10.04548    0.00000
   95     10.11981    0.00000
   96     10.24028    0.00000
   97     10.32274    0.00000


Forces in eV/Ang:
  0 C    -0.01536   -0.02979   -0.00780
  1 C    -0.02112    0.00037   -0.00734
  2 C    -0.02440   -0.05749   -0.01119
  3 C    -0.00348   -0.03736    0.01070
  4 C    -0.01908   -0.07255   -0.00397
  5 C    -0.06544   -0.03711   -0.04264
  6 C     0.01115    0.01912    0.00470
  7 C    -0.00080    0.00378    0.02119
  8 C     0.03759   -0.01230   -0.02040
  9 C    -0.00530    0.06767   -0.00438
 10 C    -0.05761   -0.02453   -0.00089
 11 C     0.02864    0.04666    0.00405
 12 C     0.00548    0.05071    0.03551
 13 C    -0.00632   -0.03401    0.01708
 14 C     0.00025    0.00254    0.01546
 15 C     0.05174    0.03084    0.00076
 16 C     0.02098   -0.01389    0.00660
 17 C     0.03687    0.02969   -0.02369
 18 C    -0.03248    0.05033   -0.01182
 19 C    -0.00857   -0.04878    0.00044
 20 C    -0.03721   -0.02932    0.01545
 21 C     0.10725    0.03336    0.02238
 22 C    -0.04535   -0.04656   -0.04437
 23 C     0.02740    0.02223    0.01110

System changes: positions 

Initializing position-dependent things.

Density initialized from wave functions
           .--------------------------------------.  
          /|                                      |  
         / |                                      |  
        /  |                                      |  
       /   |                                      |  
      /    |                                      |  
     /     |                                      |  
    /      |                                      |  
   /       |                                      |  
  /        |           C   C                      |  
 *         |        CC       CC                   |  
 |         |  C   C    C   CC    C                |  
 |         .---------C-----C----C-----------------.  
 |        /       C     C     C                  /   
 |       /         C C  C   C                   /    
 |      /                                      /     
 |     /                                      /      
 |    /                                      /       
 |   /                                      /        
 |  /                                      /         
 | /                                      /          
 |/                                      /           
 *--------------------------------------*            

Positions:
   0 C     10.607999    8.005837    4.558929
   1 C      8.306973    8.776272    4.809734
   2 C      9.255105    9.931450    4.545293
   3 C      7.922203    5.451594    4.913492
   4 C     10.302797    5.622156    4.618904
   5 C      9.195171    7.688403    4.851963
   6 C      8.464648    4.094838    4.696338
   7 C      7.465986    3.099683    4.674261
   8 C      9.893827    4.292304    4.412682
   9 C      6.264418    3.621874    4.865407
  10 C     10.580018    9.407059    4.385741
  11 C     11.185451    6.722593    4.420233
  12 C      9.024173    6.304122    4.904387
  13 C      5.602806    9.200831    4.883966
  14 C      7.567434   11.851278    4.444045
  15 C      6.522596    5.822460    4.996870
  16 C      6.901787    8.487106    4.892609
  17 C      5.565854    4.732648    5.005217
  18 C      5.401776   10.559402    4.750418
  19 C      8.655983   11.188594    4.439536
  20 C      6.287791   11.470518    4.574172
  21 C      4.864070    7.897324    5.004407
  22 C      3.673514    7.267772    5.120059
  23 C      6.204251    7.210101    4.986683

Unit cell:
           periodic     x           y           z      points  spacing
  1. axis:    yes   16.000000    0.000000    0.000000    80     0.2000
  2. axis:    yes    0.000000   16.000000    0.000000    80     0.2000
  3. axis:    yes    0.000000    0.000000   10.000000    48     0.2083

Effective grid spacing dv^(1/3) = 0.2027

                     log10-error:    total        iterations:
           time      wfs    density  energy       fermi  poisson
iter:   1  17:19:21          +inf  -180.403038    2      4      
iter:   2  17:19:21         -2.75  -180.400911    2      1      
iter:   3  17:19:22         -3.08  -180.400618    2      1      
iter:   4  17:19:22         -3.23  -180.400602    2      1      
iter:   5  17:19:23         -3.35  -180.400388    2      1      
iter:   6  17:19:23         -3.49  -180.400203    2      1      
iter:   7  17:19:24         -3.60  -180.400189    2      1      
iter:   8  17:19:24         -3.69  -180.400106    2      1      
iter:   9  17:19:25         -4.03  -180.400213    2      1      

Converged after 9 iterations.

Dipole moment: (0.361606, 0.560051, 0.046886) |e|*Ang

Energy contributions relative to reference atoms: (reference = -24663.074771)

Kinetic:       +114.104355
Potential:     -121.061776
External:        +0.000000
XC:            -176.274262
Entropy (-ST):   -0.315850
Local:           +2.989396
--------------------------
Free energy:   -180.558138
Extrapolated:  -180.400213

Fermi level: -4.58634

 Band  Eigenvalues  Occupancy
    0    -23.35629    2.00000
    1    -22.61646    2.00000
    2    -22.23620    2.00000
    3    -21.20525    2.00000
    4    -20.84740    2.00000
    5    -19.91201    2.00000
    6    -19.54707    2.00000
    7    -19.24093    2.00000
    8    -18.61054    2.00000
    9    -17.99514    2.00000
   10    -17.63458    2.00000
   11    -17.30047    2.00000
   12    -16.65431    2.00000
   13    -16.07036    2.00000
   14    -15.54234    2.00000
   15    -14.84346    2.00000
   16    -14.62055    2.00000
   17    -13.70456    2.00000
   18    -13.39967    2.00000
   19    -12.98120    2.00000
   20    -12.68813    2.00000
   21    -11.83867    2.00000
   22    -11.47347    2.00000
   23    -11.26885    2.00000
   24    -10.93583    2.00000
   25    -10.85010    2.00000
   26    -10.52283    2.00000
   27    -10.23742    2.00000
   28    -10.00638    2.00000
   29     -9.85294    2.00000
   30     -9.77544    2.00000
   31     -9.34843    2.00000
   32     -9.21167    2.00000
   33     -8.96643    2.00000
   34     -8.53075    2.00000
   35     -8.51176    2.00000
   36     -7.43639    2.00000
   37     -7.27114    2.00000
   38     -7.06670    2.00000
   39     -7.02107    2.00000
   40     -6.18831    2.00000
   41     -6.15263    2.00000
   42     -5.87346    1.99999
   43     -5.78725    1.99999
   44     -5.56477    1.99989
   45     -5.25260    1.99745
   46     -4.95218    1.94975
   47     -4.65546    1.33249
   48     -4.50718    0.62366
   49     -4.28839    0.09673
   50     -3.50812    0.00004
   51     -3.37558    0.00001
   52     -3.27450    0.00000
   53     -3.02834    0.00000
   54     -2.75895    0.00000
   55     -2.33753    0.00000
   56     -2.11393    0.00000
   57     -0.73533    0.00000
   58     -0.57355    0.00000
   59      0.09146    0.00000
   60      1.31226    0.00000
   61      1.69261    0.00000
   62      2.13260    0.00000
   63      2.42944    0.00000
   64      2.91049    0.00000
   65      3.21346    0.00000
   66      3.63213    0.00000
   67      3.99947    0.00000
   68      4.59640    0.00000
   69      4.74247    0.00000
   70      4.91192    0.00000
   71      5.27868    0.00000
   72      5.73182    0.00000
   73      6.00096    0.00000
   74      6.62227    0.00000
   75      6.87551    0.00000
   76      6.97507    0.00000
   77      7.65292    0.00000
   78      7.85287    0.00000
   79      8.23555    0.00000
   80      8.31454    0.00000
   81      8.66499    0.00000
   82      8.72844    0.00000
   83      8.79435    0.00000
   84      8.82724    0.00000
   85      8.99704    0.00000
   86      9.21994    0.00000
   87      9.33671    0.00000
   88      9.40097    0.00000
   89      9.42987    0.00000
   90      9.74838    0.00000
   91      9.79075    0.00000
   92      9.82349    0.00000
   93      9.99709    0.00000
   94     10.04639    0.00000
   95     10.12074    0.00000
   96     10.23898    0.00000
   97     10.32652    0.00000


Forces in eV/Ang:
  0 C    -0.00106   -0.00661   -0.00201
  1 C    -0.02723   -0.01793   -0.00797
  2 C    -0.02378   -0.07521    0.00061
  3 C    -0.01410   -0.04083    0.02522
  4 C    -0.01037   -0.07482   -0.01426
  5 C    -0.02864   -0.04951   -0.03699
  6 C    -0.01491    0.00020   -0.00999
  7 C     0.00295   -0.01255    0.01679
  8 C     0.02309    0.03496    0.00998
  9 C     0.01147    0.05725   -0.00551
 10 C    -0.00388    0.00457   -0.02743
 11 C     0.03092    0.05221   -0.00004
 12 C    -0.01717    0.06461    0.03490
 13 C    -0.03114   -0.03021    0.00502
 14 C     0.05650   -0.02589    0.01143
 15 C     0.04423   -0.00332   -0.00533
 16 C     0.01434   -0.03266    0.01785
 17 C     0.01325    0.05551   -0.02085
 18 C    -0.00188    0.05059   -0.00041
 19 C    -0.05040   -0.00498   -0.00000
 20 C    -0.07051   -0.03100    0.01644
 21 C     0.03859    0.04362   -0.00037
 22 C     0.03441   -0.03170   -0.05508
 23 C     0.02218   -0.00016    0.00181

