
  ___ ___ ___ _ _ _  
 |   |   |_  | | | | 
 | | | | | . | | | | 
 |__ |  _|___|_____|  1.3.0b1
 |___|_|             

User:   esb@s65n11.grendel.cscaa.dk
Date:   Thu Nov  9 10:22:40 2017
Arch:   x86_64
Pid:    75656
Python: 2.7.13
gpaw:   /home/esb/DFT/gpaw_git/gpaw
_gpaw:  /home/esb/DFT/gpaw_git/build/bin.linux-x86_64-2.7/gpaw-python
ase:    /home/esb/DFT/ase_git/ase (version 3.15.0b1)
numpy:  /comm/swstack/core/python/2.7.13/lib/python2.7/site-packages/numpy (version 1.13.3)
scipy:  /comm/swstack/core/python/2.7.13/lib/python2.7/site-packages/scipy (version 0.19.1)
units:  Angstrom and eV
cores:  16
Extra parameters: {'blacs': True}

Input parameters:
  basis: dzp
  gpts: [80 80 48]
  kpts: [1 1 1]
  maxiter: 99
  mixer: {backend: pulay,
          beta: 0.05,
          method: separate,
          nmaxold: 5,
          weight: 75}
  mode: lcao
  nbands: -50
  occupations: {name: fermi-dirac,
                width: 0.1}
  poissonsolver: {eps: 1e-07,
                  name: fd,
                  nn: 3,
                  relax: GS}
  xc: PBE

System changes: positions, numbers, cell, pbc, initial_charges, initial_magmoms 

Initialize ...

C-setup:
  name: Carbon
  id: 4aa54d4b901d75f77cc0ea3eec22967b
  Z: 6
  valence: 4
  core: 2
  charge: 0.0
  file: /home/esb/DFT/gpaw-setups-0.8.7929/C.PBE.gz
  cutoffs: 0.64(comp), 1.14(filt), 1.14(core), lmax=2
  valence states:
                energy  radius
    2s(2.00)   -13.751   0.635
    2p(2.00)    -5.284   0.635
    *s          13.461   0.635
    *p          21.927   0.635
    *d           0.000   0.635

  LCAO basis set for C:
    Name: dzp
    File: /home/esb/DFT/gpaw-setups-0.8.7929/C.dzp.basis.gz
    Number of radial functions: 5
    Number of spherical harmonics: 13
      l=0, rc=5.5469 Bohr: 2s-sz confined orbital
      l=1, rc=6.6719 Bohr: 2p-sz confined orbital
      l=0, rc=3.0312 Bohr: 2s-dz split-valence wave
      l=1, rc=3.7500 Bohr: 2p-dz split-valence wave
      l=2, rc=6.6719 Bohr: d-type Gaussian polarization

Reference energy: -24663.074771

Spin-paired calculation

Occupation numbers:
  Fermi-Dirac: width=0.1000 eV

Convergence criteria:
  Maximum total energy change: 0.0005 eV / electron
  Maximum integral of absolute density change: 0.0001 electrons
  Maximum integral of absolute eigenstate change: 4e-08 eV^2
  Maximum number of iterations: 99

Symmetries present (total): 1

  ( 1  0  0)
  ( 0  1  0)
  ( 0  0  1)

1 k-point (Gamma)
1 k-point in the irreducible part of the Brillouin zone
       k-points in crystal coordinates                weights
   0:     0.00000000    0.00000000    0.00000000          1/1

Wave functions: LCAO
  Diagonalizer: Serial LAPACK
  Atomic Correction: dense with blas
  Datatype: float
  Eigensolver: None 

LCAO using direct dense diagonalizer 

Densities:
  Coarse grid: 80*80*48 grid
  Fine grid: 160*160*96 grid
  Total Charge: 0.000000 

Density mixing:
  Method: separate
  Backend: pulay
  Linear mixing parameter: 0.05
  Mixing with 5 old densities
  Damping of long wave oscillations: 75 

Hamiltonian:
  XC and Coulomb potentials evaluated on a 160*160*96 grid
  Using the PBE Exchange-Correlation functional
  Interpolation: tri-quintic (5. degree polynomial)
  Poisson solver: Gauss-Seidel solver with 6 multi-grid levels
    Coarsest grid: 5 x 5 x 3 points
    Stencil: 6*3+1=19 point O(h^6) finite-difference Laplacian
    Max iterations: 1000
    Tolerance: 1.000000e-07 

Memory estimate:
  Process memory now: 77.55 MiB
  Calculator: 15.59 MiB
    Density: 6.13 MiB
      Arrays: 3.81 MiB
      Localized functions: 0.86 MiB
      Mixer: 1.46 MiB
    Hamiltonian: 5.40 MiB
      Arrays: 2.49 MiB
      XC: 0.00 MiB
      Poisson: 2.85 MiB
      vbar: 0.07 MiB
    Wavefunctions: 4.05 MiB
      C [qnM]: 0.23 MiB
      S, T [2 x qmm]: 1.49 MiB
      P [aqMi]: 0.01 MiB
      TCI: 0.00 MiB
      BasisFunctions: 2.33 MiB
      Eigensolver: 0.00 MiB

Total number of cores used: 16
Domain decomposition: 2 x 4 x 2

Number of atoms: 24
Number of atomic orbitals: 312
Number of bands in calculation: 98
Bands to converge: occupied states only
Number of valence electrons: 96

... initialized

Initializing position-dependent things.

Density initialized from atomic densities
           .--------------------------------------.  
          /|                                      |  
         / |                                      |  
        /  |                                      |  
       /   |                                      |  
      /    |                                      |  
     /     |                                      |  
    /      |                                      |  
   /       |                  C                   |  
  /        |             C  C  C C                |  
 *         |   C C  C  C  C    C C                |  
 |         |  C C          C   C  C               |  
 |         .-------C--C-C--C----------------------.  
 |        /              C                       /   
 |       /                                      /    
 |      /                                      /     
 |     /                                      /      
 |    /                                      /       
 |   /                                      /        
 |  /                                      /         
 | /                                      /          
 |/                                      /           
 *--------------------------------------*            

Positions:
   0 C      9.250780    6.255832    5.372242
   1 C     11.179025    7.557348    5.664344
   2 C      9.041725   11.778453    5.387672
   3 C     10.672979    6.227493    5.601601
   4 C      8.825929    7.663093    5.295121
   5 C      8.618784   10.364209    5.406035
   6 C      9.938603    9.843161    5.548405
   7 C     10.070118    8.461115    5.499478
   8 C     12.080157    6.457487    5.861338
   9 C     10.363612   11.214820    5.104439
  10 C      6.746221   12.087455    4.794291
  11 C      8.437416    5.146799    5.216975
  12 C      6.109356   10.724318    4.587181
  13 C      5.002496   10.138557    4.764403
  14 C      4.036205    9.296221    5.162889
  15 C      7.509525   10.538073    4.552001
  16 C      3.574570    8.175864    5.543810
  17 C      3.560286    6.904203    5.957265
  18 C      7.355364    7.908021    4.524602
  19 C      7.438542    4.108760    6.190785
  20 C     11.081623    5.208559    6.317269
  21 C      6.103657    4.221599    6.313579
  22 C      4.968954    4.788400    6.329425
  23 C      4.059629    5.759108    6.193472

Unit cell:
           periodic     x           y           z      points  spacing
  1. axis:    yes   16.000000    0.000000    0.000000    80     0.2000
  2. axis:    yes    0.000000   16.000000    0.000000    80     0.2000
  3. axis:    yes    0.000000    0.000000   10.000000    48     0.2083

Effective grid spacing dv^(1/3) = 0.2027

                     log10-error:    total        iterations:
           time      wfs    density  energy       fermi  poisson
iter:   1  10:22:41          +inf  -167.653931    3      6      
iter:   2  10:22:42         -0.90  -166.527581    3      3      
iter:   3  10:22:43         -0.94  -165.283757    3      3      
iter:   4  10:22:43         -1.03  -164.550805    4      3      
iter:   5  10:22:44         -1.13  -164.181441    34     4      
iter:   6  10:22:44         -1.49  -164.009157    4      3      
iter:   7  10:22:45         -1.70  -164.014085    3      3      
iter:   8  10:22:45         -1.80  -163.982812    3      2      
iter:   9  10:22:46         -1.93  -163.968669    3      2      
iter:  10  10:22:46         -2.06  -163.962521    3      2      
iter:  11  10:22:47         -2.27  -163.958298    3      2      
iter:  12  10:22:47         -2.51  -163.956654    3      2      
iter:  13  10:22:48         -2.78  -163.957262    2      1      
iter:  14  10:22:48         -2.82  -163.949571    3      2      
iter:  15  10:22:49         -3.05  -163.943313    2      1      
iter:  16  10:22:49         -3.20  -163.938791    3      1      
iter:  17  10:22:50         -3.43  -163.943716    3      1      
iter:  18  10:22:50         -3.56  -163.949796    2      1      
iter:  19  10:22:51         -3.72  -163.948839    2      1      
iter:  20  10:22:51         -3.86  -163.948853    2      1      
iter:  21  10:22:52         -3.93  -163.948008    2      1      
iter:  22  10:22:52         -4.08  -163.947210    2      1      

Converged after 22 iterations.

Dipole moment: (-0.447717, -0.187129, 0.060715) |e|*Ang

Energy contributions relative to reference atoms: (reference = -24663.074771)

Kinetic:       +100.200848
Potential:     -105.538994
External:        +0.000000
XC:            -161.337187
Entropy (-ST):   -0.345747
Local:           +2.900997
--------------------------
Free energy:   -164.120084
Extrapolated:  -163.947210

Fermi level: -4.34754

 Band  Eigenvalues  Occupancy
    0    -25.54629    2.00000
    1    -23.22453    2.00000
    2    -21.81648    2.00000
    3    -21.40076    2.00000
    4    -20.68229    2.00000
    5    -20.19241    2.00000
    6    -19.94442    2.00000
    7    -19.28844    2.00000
    8    -18.39617    2.00000
    9    -18.01227    2.00000
   10    -17.45727    2.00000
   11    -16.77571    2.00000
   12    -16.49917    2.00000
   13    -16.32235    2.00000
   14    -15.64761    2.00000
   15    -14.63627    2.00000
   16    -14.51208    2.00000
   17    -13.57122    2.00000
   18    -13.45977    2.00000
   19    -12.72278    2.00000
   20    -12.22673    2.00000
   21    -12.18335    2.00000
   22    -11.59044    2.00000
   23    -11.37798    2.00000
   24    -10.71743    2.00000
   25    -10.32433    2.00000
   26    -10.06841    2.00000
   27     -9.50345    2.00000
   28     -9.41969    2.00000
   29     -9.33137    2.00000
   30     -8.99628    2.00000
   31     -8.78706    2.00000
   32     -8.53297    2.00000
   33     -8.35152    2.00000
   34     -8.11472    2.00000
   35     -7.75083    2.00000
   36     -7.43572    2.00000
   37     -7.11240    2.00000
   38     -6.92695    2.00000
   39     -6.78886    2.00000
   40     -6.61688    2.00000
   41     -6.10875    2.00000
   42     -5.84126    2.00000
   43     -5.62480    1.99999
   44     -5.26134    1.99979
   45     -5.00375    1.99718
   46     -4.73088    1.95764
   47     -4.39511    1.23345
   48     -4.27335    0.64519
   49     -4.09697    0.15092
   50     -3.80878    0.00910
   51     -3.77385    0.00643
   52     -3.44098    0.00023
   53     -3.32985    0.00008
   54     -2.93076    0.00000
   55     -2.58278    0.00000
   56     -1.98690    0.00000
   57     -1.78008    0.00000
   58     -1.52424    0.00000
   59     -1.42735    0.00000
   60     -0.44488    0.00000
   61     -0.13593    0.00000
   62      0.04017    0.00000
   63      0.49942    0.00000
   64      0.54298    0.00000
   65      1.50190    0.00000
   66      1.67941    0.00000
   67      1.80696    0.00000
   68      2.68840    0.00000
   69      2.91542    0.00000
   70      3.22947    0.00000
   71      3.86471    0.00000
   72      4.01113    0.00000
   73      4.63042    0.00000
   74      4.76783    0.00000
   75      5.83136    0.00000
   76      6.22495    0.00000
   77      6.58958    0.00000
   78      7.06338    0.00000
   79      7.51639    0.00000
   80      7.67526    0.00000
   81      7.85088    0.00000
   82      8.06860    0.00000
   83      8.21121    0.00000
   84      8.34271    0.00000
   85      8.50030    0.00000
   86      8.55491    0.00000
   87      8.81197    0.00000
   88      8.85391    0.00000
   89      9.02870    0.00000
   90      9.09035    0.00000
   91      9.27285    0.00000
   92      9.34308    0.00000
   93      9.47913    0.00000
   94      9.55312    0.00000
   95      9.72612    0.00000
   96      9.83309    0.00000
   97      9.99818    0.00000


Forces in eV/Ang:
  0 C    -1.55698    0.40667   -0.55018
  1 C     1.47956    2.37153    0.47957
  2 C     1.14697    1.17379    2.73475
  3 C    -7.16085   -1.15712   -2.36930
  4 C    -3.92972   -0.20690   -3.14369
  5 C     0.27698    2.19195   -0.96027
  6 C     0.25478    0.60294   -0.53008
  7 C     1.73346   -1.19494    0.59467
  8 C     2.61359    1.72162    0.46647
  9 C    -1.17198   -1.49502   -0.48912
 10 C     0.85657   -2.33590   -1.60767
 11 C    -5.10114   -3.85416    3.30373
 12 C     3.86521    3.42215   -0.20479
 13 C    -6.58753   -4.49433    1.76188
 14 C     2.86868    3.56470   -1.51562
 15 C    -1.82293    0.36670   -0.16062
 16 C    -0.69657   -3.63705    1.16436
 17 C    -0.81963    3.22454   -0.90135
 18 C     4.68771   -0.24082    2.66482
 19 C     2.73592    4.08647   -3.32897
 20 C     4.00222   -3.32476    2.78823
 21 C     3.81004   -0.47718   -0.76996
 22 C    -3.46264    1.97413    0.12232
 23 C     2.01233   -2.75698    0.46560

System changes: positions 

Initializing position-dependent things.

Density initialized from wave functions
           .--------------------------------------.  
          /|                                      |  
         / |                                      |  
        /  |                                      |  
       /   |                                      |  
      /    |                                      |  
     /     |                                      |  
    /      |                                      |  
   /       |                  C                   |  
  /        |             C  C  C C                |  
 *         |   C C C   C  C    C C                |  
 |         |  CCC          C   C   C              |  
 |         .-------C--C-C--C----------------------.  
 |        /              C                       /   
 |       /                                      /    
 |      /                                      /     
 |     /                                      /      
 |    /                                      /       
 |   /                                      /        
 |  /                                      /         
 | /                                      /          
 |/                                      /           
 *--------------------------------------*            

Positions:
   0 C      9.243154    6.257824    5.369547
   1 C     11.186271    7.568963    5.666693
   2 C      9.047342   11.784202    5.401066
   3 C     10.637906    6.221826    5.589996
   4 C      8.806682    7.662080    5.279724
   5 C      8.620141   10.374945    5.401331
   6 C      9.939851    9.846114    5.545808
   7 C     10.078609    8.455263    5.502390
   8 C     12.092958    6.465919    5.863623
   9 C     10.357872   11.207498    5.102043
  10 C      6.750416   12.076014    4.786417
  11 C      8.412431    5.127922    5.233156
  12 C      6.128287   10.741079    4.586178
  13 C      4.970231   10.116544    4.773032
  14 C      4.050255    9.313680    5.155466
  15 C      7.500596   10.539869    4.551214
  16 C      3.571159    8.158051    5.549513
  17 C      3.556272    6.919996    5.952850
  18 C      7.378324    7.906841    4.537653
  19 C      7.451942    4.128774    6.174480
  20 C     11.101226    5.192275    6.330925
  21 C      6.122317    4.219262    6.309808
  22 C      4.951995    4.798069    6.330024
  23 C      4.069485    5.745605    6.195752

Unit cell:
           periodic     x           y           z      points  spacing
  1. axis:    yes   16.000000    0.000000    0.000000    80     0.2000
  2. axis:    yes    0.000000   16.000000    0.000000    80     0.2000
  3. axis:    yes    0.000000    0.000000   10.000000    48     0.2083

Effective grid spacing dv^(1/3) = 0.2027

                     log10-error:    total        iterations:
           time      wfs    density  energy       fermi  poisson
iter:   1  10:22:54          +inf  -166.298653    3      5      
iter:   2  10:22:54         -1.61  -166.055366    3      2      
iter:   3  10:22:55         -1.78  -165.952923    3      2      
iter:   4  10:22:55         -1.94  -165.926064    2      2      
iter:   5  10:22:56         -2.05  -165.904953    3      2      
iter:   6  10:22:57         -2.30  -165.898996    3      2      
iter:   7  10:22:57         -2.51  -165.898129    2      2      
iter:   8  10:22:58         -2.71  -165.897337    2      2      
iter:   9  10:22:58         -2.92  -165.897499    2      1      
iter:  10  10:22:59         -3.03  -165.898064    2      1      
iter:  11  10:22:59         -3.23  -165.897772    2      1      
iter:  12  10:23:00         -3.33  -165.897385    2      1      
iter:  13  10:23:00         -3.44  -165.897399    2      1      
iter:  14  10:23:00         -3.53  -165.897311    2      1      
iter:  15  10:23:01         -3.61  -165.897207    2      1      
iter:  16  10:23:01         -3.76  -165.897145    1      1      
iter:  17  10:23:02         -3.84  -165.897132    2      1      
iter:  18  10:23:02         -3.97  -165.897193    2      1      
iter:  19  10:23:03         -4.23  -165.897149    2      1      

Converged after 19 iterations.

Dipole moment: (-0.446137, -0.272160, 0.070280) |e|*Ang

Energy contributions relative to reference atoms: (reference = -24663.074771)

Kinetic:        +92.210965
Potential:     -100.186594
External:        +0.000000
XC:            -160.635791
Entropy (-ST):   -0.299260
Local:           +2.863901
--------------------------
Free energy:   -166.046779
Extrapolated:  -165.897149

Fermi level: -4.33805

 Band  Eigenvalues  Occupancy
    0    -25.01194    2.00000
    1    -23.28730    2.00000
    2    -21.89840    2.00000
    3    -21.28551    2.00000
    4    -20.68592    2.00000
    5    -20.17794    2.00000
    6    -19.86726    2.00000
    7    -19.29322    2.00000
    8    -18.26669    2.00000
    9    -17.84304    2.00000
   10    -17.44413    2.00000
   11    -16.82278    2.00000
   12    -16.53099    2.00000
   13    -16.31181    2.00000
   14    -15.59291    2.00000
   15    -14.64655    2.00000
   16    -14.53484    2.00000
   17    -13.60314    2.00000
   18    -13.46244    2.00000
   19    -12.75479    2.00000
   20    -12.32569    2.00000
   21    -12.17732    2.00000
   22    -11.55866    2.00000
   23    -11.30203    2.00000
   24    -10.71758    2.00000
   25    -10.28740    2.00000
   26    -10.07586    2.00000
   27     -9.47892    2.00000
   28     -9.42191    2.00000
   29     -9.33380    2.00000
   30     -8.95194    2.00000
   31     -8.77635    2.00000
   32     -8.53235    2.00000
   33     -8.33534    2.00000
   34     -8.06781    2.00000
   35     -7.65815    2.00000
   36     -7.41049    2.00000
   37     -7.15487    2.00000
   38     -6.95922    2.00000
   39     -6.77672    2.00000
   40     -6.62527    2.00000
   41     -6.07209    2.00000
   42     -5.91767    2.00000
   43     -5.62455    1.99999
   44     -5.43199    1.99996
   45     -4.93684    1.99499
   46     -4.77947    1.97608
   47     -4.42163    1.39515
   48     -4.23881    0.54088
   49     -4.01324    0.07479
   50     -3.83236    0.01265
   51     -3.74705    0.00541
   52     -3.29892    0.00006
   53     -3.22387    0.00003
   54     -2.84381    0.00000
   55     -2.52915    0.00000
   56     -2.00701    0.00000
   57     -1.72751    0.00000
   58     -1.55861    0.00000
   59     -1.41167    0.00000
   60     -0.33927    0.00000
   61     -0.12758    0.00000
   62      0.08314    0.00000
   63      0.43155    0.00000
   64      0.53813    0.00000
   65      1.62420    0.00000
   66      1.75441    0.00000
   67      1.84881    0.00000
   68      2.63641    0.00000
   69      2.89179    0.00000
   70      3.23284    0.00000
   71      4.09506    0.00000
   72      4.38839    0.00000
   73      4.71163    0.00000
   74      4.81897    0.00000
   75      5.77630    0.00000
   76      6.25040    0.00000
   77      6.58061    0.00000
   78      7.10880    0.00000
   79      7.42985    0.00000
   80      7.64393    0.00000
   81      7.78678    0.00000
   82      8.02891    0.00000
   83      8.30407    0.00000
   84      8.34881    0.00000
   85      8.52255    0.00000
   86      8.69955    0.00000
   87      8.81829    0.00000
   88      8.85333    0.00000
   89      8.93517    0.00000
   90      9.12498    0.00000
   91      9.29050    0.00000
   92      9.33121    0.00000
   93      9.46156    0.00000
   94      9.54738    0.00000
   95      9.63316    0.00000
   96      9.83311    0.00000
   97     10.01093    0.00000


Forces in eV/Ang:
  0 C    -2.35780   -0.35602   -0.63731
  1 C     1.05033    1.05268    0.62835
  2 C     1.20762    1.42192    2.86526
  3 C    -4.26609   -1.79470   -0.97646
  4 C    -3.46535    0.09750   -3.03920
  5 C     0.52268    1.86359   -1.14221
  6 C     0.18591    0.12276   -0.53851
  7 C     1.11014   -0.67449    0.55294
  8 C     1.26782    1.25131    0.15949
  9 C    -1.24541   -1.44597   -0.52358
 10 C     0.56766   -2.07642   -1.72583
 11 C    -4.43571   -3.34771    3.41059
 12 C     0.53553    2.13343    0.14309
 13 C    -1.94942   -1.48018    0.66374
 14 C     0.60501    0.74665   -0.40035
 15 C    -1.14433    0.09528    0.04052
 16 C    -0.22690   -1.75459    0.55733
 17 C    -0.38851    1.57442   -0.48290
 18 C     4.61623   -0.26475    2.60806
 19 C     2.19195    4.30738   -3.45211
 20 C     3.33000   -1.13223    1.58530
 21 C     2.54632    0.22473   -0.65269
 22 C    -1.08415    0.41097    0.17272
 23 C     0.89021   -1.09152    0.18603

System changes: positions 

Initializing position-dependent things.

Density initialized from wave functions
           .--------------------------------------.  
          /|                                      |  
         / |                                      |  
        /  |                                      |  
       /   |                                      |  
      /    |                                      |  
     /     |                                      |  
    /      |                                      |  
   /       |                  C                   |  
  /        |             C   C C C                |  
 *         |   C C C   C  C    C C                |  
 |         |  CCC          C   C   C              |  
 |         .-------C--C-C--C----------------------.  
 |        /              C                       /   
 |       /                                      /    
 |      /                                      /     
 |     /                                      /      
 |    /                                      /       
 |   /                                      /        
 |  /                                      /         
 | /                                      /          
 |/                                      /           
 *--------------------------------------*            

Positions:
   0 C      9.227348    6.254606    5.365442
   1 C     11.192295    7.573850    5.670821
   2 C      9.054986   11.793430    5.419184
   3 C     10.614930    6.209758    5.585683
   4 C      8.785575    7.663084    5.260821
   5 C      8.623733   10.386193    5.393941
   6 C      9.940926    9.846261    5.542424
   7 C     10.084756    8.451711    5.505800
   8 C     12.099157    6.473149    5.864224
   9 C     10.349976   11.198503    5.098719
  10 C      6.753598   12.063343    4.775453
  11 C      8.385507    5.107607    5.254659
  12 C      6.127332   10.752775    4.587524
  13 C      4.964024   10.111174    4.775769
  14 C      4.051115    9.314709    5.154402
  15 C      7.494307   10.540115    4.551729
  16 C      3.570345    8.149496    5.552219
  17 C      3.554396    6.927723    5.950367
  18 C      7.407148    7.905152    4.553917
  19 C      7.464969    4.156042    6.152697
  20 C     11.121215    5.188021    6.339299
  21 C      6.136632    4.221578    6.305871
  22 C      4.948283    4.798620    6.331171
  23 C      4.073609    5.740923    6.196556

Unit cell:
           periodic     x           y           z      points  spacing
  1. axis:    yes   16.000000    0.000000    0.000000    80     0.2000
  2. axis:    yes    0.000000   16.000000    0.000000    80     0.2000
  3. axis:    yes    0.000000    0.000000   10.000000    48     0.2083

Effective grid spacing dv^(1/3) = 0.2027

                     log10-error:    total        iterations:
           time      wfs    density  energy       fermi  poisson
iter:   1  10:23:05          +inf  -167.521797    3      5      
iter:   2  10:23:05         -1.78  -167.353935    3      2      
iter:   3  10:23:06         -1.94  -167.253935    3      2      
iter:   4  10:23:06         -2.18  -167.246608    2      2      
iter:   5  10:23:07         -2.32  -167.239440    2      2      
iter:   6  10:23:07         -2.47  -167.233081    3      2      
iter:   7  10:23:08         -2.67  -167.233133    2      2      
iter:   8  10:23:08         -2.87  -167.232859    2      2      
iter:   9  10:23:09         -3.05  -167.231671    2      1      
iter:  10  10:23:09         -3.20  -167.232433    2      1      
iter:  11  10:23:10         -3.38  -167.233582    2      1      
iter:  12  10:23:10         -3.52  -167.232982    2      1      
iter:  13  10:23:11         -3.66  -167.233597    2      1      
iter:  14  10:23:11         -3.77  -167.233576    1      1      
iter:  15  10:23:12         -3.85  -167.233405    2      1      
iter:  16  10:23:12         -4.15  -167.233388    2      1      

Converged after 16 iterations.

Dipole moment: (-0.465837, -0.346471, 0.080277) |e|*Ang

Energy contributions relative to reference atoms: (reference = -24663.074771)

Kinetic:        +89.500766
Potential:      -98.561962
External:        +0.000000
XC:            -160.899707
Entropy (-ST):   -0.270437
Local:           +2.862733
--------------------------
Free energy:   -167.368607
Extrapolated:  -167.233388

Fermi level: -4.33318

 Band  Eigenvalues  Occupancy
    0    -24.68565    2.00000
    1    -23.32655    2.00000
    2    -21.96967    2.00000
    3    -21.17483    2.00000
    4    -20.70033    2.00000
    5    -20.19300    2.00000
    6    -19.80425    2.00000
    7    -19.31530    2.00000
    8    -18.31935    2.00000
    9    -17.74796    2.00000
   10    -17.44251    2.00000
   11    -16.90976    2.00000
   12    -16.64107    2.00000
   13    -16.26990    2.00000
   14    -15.57301    2.00000
   15    -14.66682    2.00000
   16    -14.51672    2.00000
   17    -13.61460    2.00000
   18    -13.45849    2.00000
   19    -12.75310    2.00000
   20    -12.50858    2.00000
   21    -12.17749    2.00000
   22    -11.61281    2.00000
   23    -11.18375    2.00000
   24    -10.72337    2.00000
   25    -10.27084    2.00000
   26    -10.06019    2.00000
   27     -9.45480    2.00000
   28     -9.43537    2.00000
   29     -9.34537    2.00000
   30     -8.94650    2.00000
   31     -8.77298    2.00000
   32     -8.55058    2.00000
   33     -8.35530    2.00000
   34     -8.05525    2.00000
   35     -7.64784    2.00000
   36     -7.40798    2.00000
   37     -7.17798    2.00000
   38     -6.99209    2.00000
   39     -6.74828    2.00000
   40     -6.55863    2.00000
   41     -6.05025    2.00000
   42     -5.97880    2.00000
   43     -5.65292    2.00000
   44     -5.53124    1.99999
   45     -4.92661    1.99472
   46     -4.79845    1.98111
   47     -4.44113    1.49280
   48     -4.21283    0.46170
   49     -3.97422    0.05373
   50     -3.83351    0.01343
   51     -3.66438    0.00249
   52     -3.21848    0.00003
   53     -3.11267    0.00001
   54     -2.74163    0.00000
   55     -2.48199    0.00000
   56     -1.98099    0.00000
   57     -1.62921    0.00000
   58     -1.50221    0.00000
   59     -1.36932    0.00000
   60     -0.32231    0.00000
   61     -0.09851    0.00000
   62      0.10078    0.00000
   63      0.44188    0.00000
   64      0.56967    0.00000
   65      1.71769    0.00000
   66      1.80840    0.00000
   67      1.91110    0.00000
   68      2.61150    0.00000
   69      2.91785    0.00000
   70      3.27428    0.00000
   71      4.42757    0.00000
   72      4.72425    0.00000
   73      4.97419    0.00000
   74      4.99541    0.00000
   75      5.64451    0.00000
   76      6.32226    0.00000
   77      6.61878    0.00000
   78      7.09563    0.00000
   79      7.32600    0.00000
   80      7.60770    0.00000
   81      7.75025    0.00000
   82      8.07186    0.00000
   83      8.25612    0.00000
   84      8.31044    0.00000
   85      8.46991    0.00000
   86      8.70552    0.00000
   87      8.82126    0.00000
   88      8.85412    0.00000
   89      9.00987    0.00000
   90      9.16002    0.00000
   91      9.32079    0.00000
   92      9.36550    0.00000
   93      9.46619    0.00000
   94      9.59680    0.00000
   95      9.63351    0.00000
   96      9.84073    0.00000
   97     10.02962    0.00000


Forces in eV/Ang:
  0 C    -2.56965   -0.80966   -0.72947
  1 C     0.61134    0.35692    0.65783
  2 C     1.31858    1.48383    2.83996
  3 C    -3.12324   -1.78583   -0.44944
  4 C    -2.76507    0.15598   -2.75533
  5 C     0.58225    1.68625   -1.12831
  6 C     0.05964   -0.15491   -0.56971
  7 C     0.66732   -0.50063    0.47855
  8 C     0.60564    1.00524   -0.02575
  9 C    -1.16490   -1.21306   -0.50584
 10 C     0.65186   -1.80456   -1.68584
 11 C    -3.92658   -2.95438    3.63529
 12 C    -0.11107    1.63388    0.14992
 13 C    -1.28879   -1.01610    0.49123
 14 C     0.19260    0.23737   -0.20161
 15 C    -0.94190    0.20090    0.12849
 16 C    -0.09264   -0.70358    0.22168
 17 C    -0.17140    0.25105   -0.11263
 18 C     4.28450   -0.21172    2.41066
 19 C     2.12447    4.44139   -3.60841
 20 C     2.96908   -0.29905    1.08751
 21 C     1.69533    0.55047   -0.55895
 22 C    -0.02355   -0.23758    0.19430
 23 C     0.39667   -0.31784    0.04756

System changes: positions 

Initializing position-dependent things.

Density initialized from wave functions
           .--------------------------------------.  
          /|                                      |  
         / |                                      |  
        /  |                                      |  
       /   |                                      |  
      /    |                                      |  
     /     |                                      |  
    /      |                                      |  
   /       |                  C                   |  
  /        |             C   C C C                |  
 *         |   C C C   C  C    C C                |  
 |         |  CCC          C   C   C              |  
 |         .-------C--C-CC-C----------------------.  
 |        /                                      /   
 |       /                                      /    
 |      /                                      /     
 |     /                                      /      
 |    /                                      /       
 |   /                                      /        
 |  /                                      /         
 | /                                      /          
 |/                                      /           
 *--------------------------------------*            

Positions:
   0 C      9.210297    6.248353    5.360495
   1 C     11.195231    7.574655    5.675134
   2 C      9.063806   11.803163    5.437513
   3 C     10.597019    6.198318    5.583838
   4 C      8.769325    7.664187    5.243650
   5 C      8.627613   10.396743    5.386693
   6 C      9.941007    9.844645    5.538652
   7 C     10.088082    8.448806    5.508724
   8 C     12.101665    6.479134    5.863647
   9 C     10.342638   11.191216    5.095490
  10 C      6.758093   12.052278    4.764643
  11 C      8.361203    5.089346    5.278782
  12 C      6.125603   10.762351    4.588449
  13 C      4.956465   10.105191    4.778725
  14 C      4.051746    9.315491    5.153387
  15 C      7.488582   10.541735    4.552746
  16 C      3.569995    8.147235    5.552922
  17 C      3.553752    6.926317    5.950494
  18 C      7.434110    7.903917    4.569063
  19 C      7.478678    4.185143    6.128923
  20 C     11.139685    5.187775    6.345320
  21 C      6.145714    4.225839    6.302461
  22 C      4.950363    4.795734    6.332476
  23 C      4.075145    5.740504    6.196567

Unit cell:
           periodic     x           y           z      points  spacing
  1. axis:    yes   16.000000    0.000000    0.000000    80     0.2000
  2. axis:    yes    0.000000   16.000000    0.000000    80     0.2000
  3. axis:    yes    0.000000    0.000000   10.000000    48     0.2083

Effective grid spacing dv^(1/3) = 0.2027

                     log10-error:    total        iterations:
           time      wfs    density  energy       fermi  poisson
iter:   1  10:23:14          +inf  -168.601124    3      5      
iter:   2  10:23:14         -1.84  -168.462484    2      2      
iter:   3  10:23:15         -2.00  -168.370397    2      2      
iter:   4  10:23:15         -2.26  -168.369092    2      2      
iter:   5  10:23:16         -2.41  -168.358994    2      1      
iter:   6  10:23:16         -2.51  -168.356814    3      2      
iter:   7  10:23:17         -2.72  -168.361177    2      2      
iter:   8  10:23:17         -2.70  -168.355298    2      2      
iter:   9  10:23:18         -3.05  -168.355107    2      1      
iter:  10  10:23:18         -3.18  -168.354859    2      1      
iter:  11  10:23:19         -3.37  -168.355311    2      1      
iter:  12  10:23:19         -3.56  -168.356241    2      1      
iter:  13  10:23:20         -3.70  -168.357611    2      1      
iter:  14  10:23:20         -3.82  -168.356992    2      1      
iter:  15  10:23:21         -3.90  -168.356977    2      1      
iter:  16  10:23:21         -4.09  -168.357210    2      1      

Converged after 16 iterations.

Dipole moment: (-0.483327, -0.407788, 0.084839) |e|*Ang

Energy contributions relative to reference atoms: (reference = -24663.074771)

Kinetic:        +88.812505
Potential:      -98.397770
External:        +0.000000
XC:            -161.521655
Entropy (-ST):   -0.251455
Local:           +2.875438
--------------------------
Free energy:   -168.482937
Extrapolated:  -168.357210

Fermi level: -4.33103

 Band  Eigenvalues  Occupancy
    0    -24.47415    2.00000
    1    -23.35157    2.00000
    2    -22.03716    2.00000
    3    -21.10391    2.00000
    4    -20.71336    2.00000
    5    -20.22841    2.00000
    6    -19.77565    2.00000
    7    -19.35064    2.00000
    8    -18.36556    2.00000
    9    -17.70545    2.00000
   10    -17.45863    2.00000
   11    -17.02212    2.00000
   12    -16.72440    2.00000
   13    -16.24583    2.00000
   14    -15.54549    2.00000
   15    -14.70316    2.00000
   16    -14.50410    2.00000
   17    -13.62667    2.00000
   18    -13.44512    2.00000
   19    -12.74429    2.00000
   20    -12.69898    2.00000
   21    -12.19006    2.00000
   22    -11.63978    2.00000
   23    -11.10965    2.00000
   24    -10.72121    2.00000
   25    -10.27053    2.00000
   26    -10.04090    2.00000
   27     -9.44936    2.00000
   28     -9.43526    2.00000
   29     -9.35418    2.00000
   30     -8.95069    2.00000
   31     -8.78268    2.00000
   32     -8.58547    2.00000
   33     -8.38740    2.00000
   34     -8.06310    2.00000
   35     -7.66625    2.00000
   36     -7.41089    2.00000
   37     -7.20355    2.00000
   38     -7.02501    2.00000
   39     -6.70654    2.00000
   40     -6.49196    2.00000
   41     -6.07432    2.00000
   42     -5.99413    2.00000
   43     -5.67685    2.00000
   44     -5.59347    1.99999
   45     -4.91965    1.99446
   46     -4.81133    1.98372
   47     -4.45589    1.55412
   48     -4.19447    0.40667
   49     -3.95800    0.04685
   50     -3.82855    0.01306
   51     -3.58119    0.00111
   52     -3.15227    0.00002
   53     -2.98606    0.00000
   54     -2.64163    0.00000
   55     -2.43670    0.00000
   56     -1.93423    0.00000
   57     -1.53128    0.00000
   58     -1.43113    0.00000
   59     -1.30399    0.00000
   60     -0.30819    0.00000
   61     -0.06948    0.00000
   62      0.10317    0.00000
   63      0.45103    0.00000
   64      0.61337    0.00000
   65      1.76769    0.00000
   66      1.78313    0.00000
   67      2.06479    0.00000
   68      2.60874    0.00000
   69      2.95596    0.00000
   70      3.33351    0.00000
   71      4.61500    0.00000
   72      4.75420    0.00000
   73      5.26399    0.00000
   74      5.43989    0.00000
   75      5.61795    0.00000
   76      6.34750    0.00000
   77      6.71208    0.00000
   78      7.08740    0.00000
   79      7.23426    0.00000
   80      7.59506    0.00000
   81      7.71736    0.00000
   82      8.10177    0.00000
   83      8.24385    0.00000
   84      8.33330    0.00000
   85      8.50033    0.00000
   86      8.72120    0.00000
   87      8.82994    0.00000
   88      8.87161    0.00000
   89      9.04599    0.00000
   90      9.16300    0.00000
   91      9.32401    0.00000
   92      9.41678    0.00000
   93      9.48355    0.00000
   94      9.64407    0.00000
   95      9.67457    0.00000
   96      9.86089    0.00000
   97     10.04052    0.00000


Forces in eV/Ang:
  0 C    -2.43491   -1.04536   -0.77827
  1 C     0.23613    0.02223    0.64168
  2 C     1.41798    1.40485    2.79402
  3 C    -2.60203   -1.70992   -0.18583
  4 C    -2.03081    0.09683   -2.36569
  5 C     0.59451    1.58558   -1.09366
  6 C    -0.06247   -0.28436   -0.59811
  7 C     0.41505   -0.45121    0.41984
  8 C     0.24368    0.80569   -0.11685
  9 C    -1.06700   -1.00788   -0.49719
 10 C     0.78325   -1.59589   -1.68321
 11 C    -3.37403   -2.52048    3.71144
 12 C    -0.84474    1.05973    0.15793
 13 C    -0.29118   -0.24197    0.19357
 14 C    -0.40168   -0.39012    0.07013
 15 C    -0.75328    0.33318    0.20068
 16 C    -0.05794   -0.52246    0.15833
 17 C    -0.13601    0.12986   -0.06900
 18 C     3.77729   -0.12315    2.13845
 19 C     1.84709    4.32479   -3.58399
 20 C     2.71171    0.15543    0.81187
 21 C     1.25395    0.64366   -0.50774
 22 C     0.39159   -0.40235    0.19098
 23 C     0.35996   -0.27741    0.03680

System changes: positions 

Initializing position-dependent things.

Density initialized from wave functions
           .--------------------------------------.  
          /|                                      |  
         / |                                      |  
        /  |                                      |  
       /   |                                      |  
      /    |                                      |  
     /     |                                      |  
    /      |                                      |  
   /       |                   C                  |  
  /        |             C   C C C                |  
 *         |   C C C   C  C    C C                |  
 |         |  CCC          C   C   C              |  
 |         .-------C--C-C--C----------------------.  
 |        /                                      /   
 |       /                                      /    
 |      /                                      /     
 |     /                                      /      
 |    /                                      /       
 |   /                                      /        
 |  /                                      /         
 | /                                      /          
 |/                                      /           
 *--------------------------------------*            

Positions:
   0 C      9.194816    6.240619    5.354950
   1 C     11.195368    7.574254    5.679338
   2 C      9.074008   11.812277    5.456362
   3 C     10.579072    6.187619    5.582564
   4 C      8.758543    7.664317    5.229145
   5 C      8.631528   10.407434    5.379539
   6 C      9.940028    9.842432    5.534400
   7 C     10.090173    8.445480    5.511343
   8 C     12.102741    6.484152    5.862637
   9 C     10.335869   11.185306    5.092164
  10 C      6.764438   12.042135    4.753257
  11 C      8.340011    5.073604    5.304724
  12 C      6.119991   10.768273    4.589171
  13 C      4.953841   10.103674    4.779935
  14 C      4.048756    9.312987    5.153891
  15 C      7.483594   10.544991    4.554279
  16 C      3.569332    8.143278    5.554112
  17 C      3.552684    6.927271    5.950092
  18 C      7.457753    7.903515    4.582519
  19 C      7.490808    4.214289    6.104359
  20 C     11.157690    5.189014    6.350660
  21 C      6.153125    4.230167    6.299139
  22 C      4.953083    4.793441    6.333740
  23 C      4.078265    5.737623    6.196958

Unit cell:
           periodic     x           y           z      points  spacing
  1. axis:    yes   16.000000    0.000000    0.000000    80     0.2000
  2. axis:    yes    0.000000   16.000000    0.000000    80     0.2000
  3. axis:    yes    0.000000    0.000000   10.000000    48     0.2083

Effective grid spacing dv^(1/3) = 0.2027

                     log10-error:    total        iterations:
           time      wfs    density  energy       fermi  poisson
iter:   1  10:23:23          +inf  -169.530983    3      5      
iter:   2  10:23:24         -1.88  -169.404578    2      2      
iter:   3  10:23:24         -2.04  -169.317526    2      2      
iter:   4  10:23:25         -2.30  -169.315141    2      2      
iter:   5  10:23:25         -2.48  -169.307440    2      1      
iter:   6  10:23:26         -2.57  -169.306319    2      2      
iter:   7  10:23:26         -2.78  -169.311609    2      2      
iter:   8  10:23:27         -2.70  -169.304923    2      2      
iter:   9  10:23:27         -3.12  -169.304860    2      1      
iter:  10  10:23:28         -3.25  -169.304844    2      1      
iter:  11  10:23:28         -3.44  -169.305208    2      1      
iter:  12  10:23:29         -3.58  -169.306346    2      1      
iter:  13  10:23:29         -3.79  -169.307077    2      1      
iter:  14  10:23:30         -3.86  -169.307102    2      1      
iter:  15  10:23:30         -3.94  -169.306843    2      1      
iter:  16  10:23:31         -4.08  -169.306631    2      1      

Converged after 16 iterations.

Dipole moment: (-0.489729, -0.462898, 0.088553) |e|*Ang

Energy contributions relative to reference atoms: (reference = -24663.074771)

Kinetic:        +89.597855
Potential:      -99.322837
External:        +0.000000
XC:            -162.351773
Entropy (-ST):   -0.236283
Local:           +2.888265
--------------------------
Free energy:   -169.424773
Extrapolated:  -169.306631

Fermi level: -4.33270

 Band  Eigenvalues  Occupancy
    0    -24.30649    2.00000
    1    -23.37474    2.00000
    2    -22.09142    2.00000
    3    -21.06759    2.00000
    4    -20.72160    2.00000
    5    -20.26830    2.00000
    6    -19.77529    2.00000
    7    -19.36279    2.00000
    8    -18.44417    2.00000
    9    -17.71026    2.00000
   10    -17.47634    2.00000
   11    -17.11564    2.00000
   12    -16.77956    2.00000
   13    -16.24525    2.00000
   14    -15.52632    2.00000
   15    -14.74915    2.00000
   16    -14.49081    2.00000
   17    -13.63916    2.00000
   18    -13.42407    2.00000
   19    -12.89771    2.00000
   20    -12.69629    2.00000
   21    -12.21280    2.00000
   22    -11.65071    2.00000
   23    -11.06752    2.00000
   24    -10.71135    2.00000
   25    -10.27550    2.00000
   26    -10.02296    2.00000
   27     -9.45904    2.00000
   28     -9.42579    2.00000
   29     -9.36186    2.00000
   30     -8.95881    2.00000
   31     -8.80623    2.00000
   32     -8.61955    2.00000
   33     -8.43086    2.00000
   34     -8.07508    2.00000
   35     -7.69497    2.00000
   36     -7.42888    2.00000
   37     -7.21400    2.00000
   38     -7.04261    2.00000
   39     -6.65572    2.00000
   40     -6.43860    2.00000
   41     -6.11750    2.00000
   42     -6.01322    2.00000
   43     -5.70398    2.00000
   44     -5.61569    1.99999
   45     -4.91975    1.99437
   46     -4.82424    1.98544
   47     -4.47101    1.59900
   48     -4.18313    0.36614
   49     -3.95039    0.04279
   50     -3.81961    0.01175
   51     -3.50257    0.00050
   52     -3.09909    0.00001
   53     -2.83117    0.00000
   54     -2.54559    0.00000
   55     -2.40206    0.00000
   56     -1.90037    0.00000
   57     -1.44114    0.00000
   58     -1.36867    0.00000
   59     -1.21757    0.00000
   60     -0.32364    0.00000
   61     -0.04302    0.00000
   62      0.10879    0.00000
   63      0.48042    0.00000
   64      0.67053    0.00000
   65      1.70431    0.00000
   66      1.84684    0.00000
   67      2.24771    0.00000
   68      2.61574    0.00000
   69      3.00023    0.00000
   70      3.40758    0.00000
   71      4.66094    0.00000
   72      4.81840    0.00000
   73      5.45000    0.00000
   74      5.51065    0.00000
   75      5.91168    0.00000
   76      6.35088    0.00000
   77      6.83179    0.00000
   78      7.07927    0.00000
   79      7.16105    0.00000
   80      7.59585    0.00000
   81      7.69685    0.00000
   82      8.10819    0.00000
   83      8.26343    0.00000
   84      8.35488    0.00000
   85      8.57598    0.00000
   86      8.74186    0.00000
   87      8.84556    0.00000
   88      8.89800    0.00000
   89      9.11705    0.00000
   90      9.16509    0.00000
   91      9.32984    0.00000
   92      9.43023    0.00000
   93      9.52147    0.00000
   94      9.65836    0.00000
   95      9.76797    0.00000
   96      9.86805    0.00000
   97     10.03880    0.00000


Forces in eV/Ang:
  0 C    -2.30644   -1.13907   -0.81530
  1 C    -0.04567   -0.24621    0.61156
  2 C     1.48293    1.29322    2.69877
  3 C    -2.06636   -1.64284    0.04075
  4 C    -1.31647    0.01271   -1.97960
  5 C     0.56896    1.45059   -1.02578
  6 C    -0.17394   -0.35882   -0.60870
  7 C     0.22583   -0.38670    0.37530
  8 C    -0.04988    0.60720   -0.17480
  9 C    -0.93859   -0.84580   -0.48744
 10 C     0.90305   -1.46370   -1.63131
 11 C    -2.52585   -1.81041    3.38849
 12 C    -1.03228    0.74685    0.12470
 13 C    -0.30763   -0.24353    0.19685
 14 C    -0.38627   -0.40158    0.07327
 15 C    -0.68912    0.52087    0.24025
 16 C    -0.02170   -0.07717    0.00739
 17 C     0.01410   -0.61838    0.14211
 18 C     3.11244   -0.04887    1.78710
 19 C     1.22166    3.83502   -3.17672
 20 C     2.48915    0.53496    0.56637
 21 C     0.91238    0.70287   -0.46450
 22 C     0.86727   -0.64310    0.20148
 23 C     0.03893    0.19888   -0.05504

System changes: positions 

Initializing position-dependent things.

Density initialized from wave functions
           .--------------------------------------.  
          /|                                      |  
         / |                                      |  
        /  |                                      |  
       /   |                                      |  
      /    |                                      |  
     /     |                                      |  
    /      |                                      |  
   /       |                   C                  |  
  /        |             C   C C C                |  
 *         |   C C C   C  C    C C                |  
 |         |  CCC          C   C   C              |  
 |         .-------C--C-C--C----------------------.  
 |        /                                      /   
 |       /                                      /    
 |      /                                      /     
 |     /                                      /      
 |    /                                      /       
 |   /                                      /        
 |  /                                      /         
 | /                                      /          
 |/                                      /           
 *--------------------------------------*            

Positions:
   0 C      9.177235    6.231121    5.347738
   1 C     11.193498    7.572467    5.684214
   2 C      9.087367   11.822293    5.479117
   3 C     10.559775    6.174792    5.582226
   4 C      8.751501    7.663292    5.214592
   5 C      8.635971   10.419784    5.371291
   6 C      9.937810    9.839555    5.528996
   7 C     10.091834    8.441612    5.514354
   8 C     12.102443    6.488791    5.861204
   9 C     10.328652   11.179051    5.088017
  10 C      6.773662   12.029999    4.739412
  11 C      8.322426    5.061554    5.332486
  12 C      6.113231   10.773806    4.589609
  13 C      4.946894   10.099207    4.782470
  14 C      4.047257    9.312040    5.153596
  15 C      7.477295   10.551167    4.556409
  16 C      3.568583    8.141310    5.554536
  17 C      3.552759    6.921903    5.951429
  18 C      7.480422    7.903723    4.595782
  19 C      7.498297    4.244418    6.079136
  20 C     11.178871    5.192832    6.355845
  21 C      6.160842    4.235461    6.295183
  22 C      4.959571    4.789200    6.335436
  23 C      4.079169    5.738418    6.196575

Unit cell:
           periodic     x           y           z      points  spacing
  1. axis:    yes   16.000000    0.000000    0.000000    80     0.2000
  2. axis:    yes    0.000000   16.000000    0.000000    80     0.2000
  3. axis:    yes    0.000000    0.000000   10.000000    48     0.2083

Effective grid spacing dv^(1/3) = 0.2027

                     log10-error:    total        iterations:
           time      wfs    density  energy       fermi  poisson
iter:   1  10:23:32          +inf  -170.369659    3      5      
iter:   2  10:23:33         -1.88  -170.250083    2      2      
iter:   3  10:23:33         -2.04  -170.161176    2      2      
iter:   4  10:23:34         -2.29  -170.158096    2      2      
iter:   5  10:23:34         -2.47  -170.152085    2      1      
iter:   6  10:23:35         -2.54  -170.149920    2      2      
iter:   7  10:23:35         -2.76  -170.157982    2      2      
iter:   8  10:23:36         -2.62  -170.148913    2      2      
iter:   9  10:23:36         -3.17  -170.149565    2      1      
iter:  10  10:23:37         -3.29  -170.149721    2      1      
iter:  11  10:23:37         -3.49  -170.150374    2      1      
iter:  12  10:23:38         -3.53  -170.150812    2      1      
iter:  13  10:23:38         -3.77  -170.151535    2      1      
iter:  14  10:23:39         -3.85  -170.151200    2      1      
iter:  15  10:23:39         -3.91  -170.150875    2      1      
iter:  16  10:23:40         -4.19  -170.150910    2      1      

Converged after 16 iterations.

Dipole moment: (-0.491581, -0.511889, 0.087184) |e|*Ang

Energy contributions relative to reference atoms: (reference = -24663.074771)

Kinetic:        +92.455446
Potential:     -101.818630
External:        +0.000000
XC:            -163.579666
Entropy (-ST):   -0.224555
Local:           +2.904217
--------------------------
Free energy:   -170.263187
Extrapolated:  -170.150910

Fermi level: -4.33737

 Band  Eigenvalues  Occupancy
    0    -24.16108    2.00000
    1    -23.40527    2.00000
    2    -22.16519    2.00000
    3    -21.06564    2.00000
    4    -20.73055    2.00000
    5    -20.32861    2.00000
    6    -19.80571    2.00000
    7    -19.39579    2.00000
    8    -18.51303    2.00000
    9    -17.75861    2.00000
   10    -17.49510    2.00000
   11    -17.18525    2.00000
   12    -16.81513    2.00000
   13    -16.24486    2.00000
   14    -15.51328    2.00000
   15    -14.80498    2.00000
   16    -14.48718    2.00000
   17    -13.66394    2.00000
   18    -13.39695    2.00000
   19    -13.05867    2.00000
   20    -12.65423    2.00000
   21    -12.24453    2.00000
   22    -11.65668    2.00000
   23    -11.05161    2.00000
   24    -10.69636    2.00000
   25    -10.28765    2.00000
   26    -10.01145    2.00000
   27     -9.47065    2.00000
   28     -9.42311    2.00000
   29     -9.37054    2.00000
   30     -8.97750    2.00000
   31     -8.84988    2.00000
   32     -8.66284    2.00000
   33     -8.48878    2.00000
   34     -8.09828    2.00000
   35     -7.74344    2.00000
   36     -7.45596    2.00000
   37     -7.24342    2.00000
   38     -7.05431    2.00000
   39     -6.60297    2.00000
   40     -6.38355    2.00000
   41     -6.14867    2.00000
   42     -6.04364    2.00000
   43     -5.74095    2.00000
   44     -5.60997    1.99999
   45     -4.92951    1.99465
   46     -4.83965    1.98692
   47     -4.48529    1.62891
   48     -4.17910    0.34083
   49     -3.94043    0.03707
   50     -3.82162    0.01145
   51     -3.40892    0.00019
   52     -3.06344    0.00001
   53     -2.67439    0.00000
   54     -2.44318    0.00000
   55     -2.34988    0.00000
   56     -1.81934    0.00000
   57     -1.34873    0.00000
   58     -1.29975    0.00000
   59     -1.10887    0.00000
   60     -0.32594    0.00000
   61     -0.01641    0.00000
   62      0.11716    0.00000
   63      0.51629    0.00000
   64      0.74818    0.00000
   65      1.63450    0.00000
   66      1.92120    0.00000
   67      2.48714    0.00000
   68      2.65787    0.00000
   69      3.05289    0.00000
   70      3.52381    0.00000
   71      4.67411    0.00000
   72      4.88381    0.00000
   73      5.39307    0.00000
   74      5.69643    0.00000
   75      6.16255    0.00000
   76      6.34402    0.00000
   77      6.94808    0.00000
   78      7.04876    0.00000
   79      7.14289    0.00000
   80      7.63001    0.00000
   81      7.67889    0.00000
   82      8.07518    0.00000
   83      8.28342    0.00000
   84      8.40932    0.00000
   85      8.65737    0.00000
   86      8.75885    0.00000
   87      8.84847    0.00000
   88      8.91269    0.00000
   89      9.12172    0.00000
   90      9.22018    0.00000
   91      9.33377    0.00000
   92      9.43269    0.00000
   93      9.57558    0.00000
   94      9.66911    0.00000
   95      9.82812    0.00000
   96      9.87745    0.00000
   97     10.03394    0.00000


Forces in eV/Ang:
  0 C    -2.01637   -1.11902   -0.80107
  1 C    -0.30007   -0.46781    0.55190
  2 C     1.51607    1.15259    2.58902
  3 C    -1.57838   -1.52945    0.22723
  4 C    -0.54645   -0.09866   -1.49426
  5 C     0.52465    1.35061   -0.96916
  6 C    -0.28663   -0.40495   -0.59884
  7 C     0.05030   -0.32545    0.32427
  8 C    -0.31185    0.39755   -0.21695
  9 C    -0.78014   -0.65126   -0.47432
 10 C     0.98835   -1.32376   -1.57430
 11 C    -1.42518   -0.81886    2.65839
 12 C    -1.41108    0.34596    0.11253
 13 C     0.33384    0.30708   -0.03611
 14 C    -0.84712   -0.90594    0.29473
 15 C    -0.54445    0.69103    0.28537
 16 C    -0.00718   -0.07983    0.00102
 17 C    -0.01238   -0.40482    0.09855
 18 C     2.34120    0.05992    1.36024
 19 C     0.43355    2.89336   -2.41433
 20 C     2.26565    0.80884    0.34080
 21 C     0.41503    0.71841   -0.37915
 22 C     0.93167   -0.52562    0.16143
 23 C     0.21505   -0.08959   -0.00669

System changes: positions 

Initializing position-dependent things.

Density initialized from wave functions
           .--------------------------------------.  
          /|                                      |  
         / |                                      |  
        /  |                                      |  
       /   |                                      |  
      /    |                                      |  
     /     |                                      |  
    /      |                                      |  
   /       |                   C                  |  
  /        |             C   C C C                |  
 *         |   C C C   C  C    C C                |  
 |         |  CCC          C   CC  C              |  
 |         .-------C--C-C--C----------------------.  
 |        /                                      /   
 |       /                                      /    
 |      /                                      /     
 |     /                                      /      
 |    /                                      /       
 |   /                                      /        
 |  /                                      /         
 | /                                      /          
 |/                                      /           
 *--------------------------------------*            

Positions:
   0 C      9.155583    6.219095    5.337870
   1 C     11.189253    7.568780    5.690445
   2 C      9.106556   11.835161    5.510671
   3 C     10.535406    6.157666    5.582683
   4 C      8.748219    7.660510    5.198436
   5 C      8.641668   10.436893    5.359974
   6 C      9.933681    9.835505    5.521500
   7 C     10.093166    8.436516    5.518278
   8 C     12.100473    6.493682    5.859068
   9 C     10.319959   11.171751    5.082182
  10 C      6.787473   12.013390    4.720200
  11 C      8.309448    5.055769    5.361715
  12 C      6.101827   10.779067    4.590040
  13 C      4.941782   10.097477    4.783964
  14 C      4.040821    9.306032    5.155249
  15 C      7.469363   10.561713    4.559737
  16 C      3.567405    8.136194    5.555812
  17 C      3.551832    6.920218    5.951877
  18 C      7.505088    7.905145    4.610387
  19 C      7.499822    4.275019    6.053421
  20 C     11.207757    5.199287    6.361842
  21 C      6.167195    4.242683    6.290455
  22 C      4.966507    4.786509    6.337237
  23 C      4.084419    5.733351    6.197113

Unit cell:
           periodic     x           y           z      points  spacing
  1. axis:    yes   16.000000    0.000000    0.000000    80     0.2000
  2. axis:    yes    0.000000   16.000000    0.000000    80     0.2000
  3. axis:    yes    0.000000    0.000000   10.000000    48     0.2083

Effective grid spacing dv^(1/3) = 0.2027

                     log10-error:    total        iterations:
           time      wfs    density  energy       fermi  poisson
iter:   1  10:23:42          +inf  -171.143307    3      5      
iter:   2  10:23:42         -1.86  -171.022635    2      2      
iter:   3  10:23:43         -2.02  -170.930189    2      2      
iter:   4  10:23:43         -2.27  -170.927448    3      2      
iter:   5  10:23:44         -2.45  -170.920786    2      1      
iter:   6  10:23:44         -2.52  -170.917703    2      2      
iter:   7  10:23:45         -2.75  -170.924428    2      2      
iter:   8  10:23:45         -2.68  -170.917126    2      2      
iter:   9  10:23:46         -3.13  -170.918550    2      1      
iter:  10  10:23:46         -3.26  -170.917852    2      1      
iter:  11  10:23:47         -3.49  -170.918210    2      1      
iter:  12  10:23:47         -3.47  -170.920018    1      1      
iter:  13  10:23:48         -3.82  -170.920264    2      1      
iter:  14  10:23:48         -3.89  -170.920001    2      1      
iter:  15  10:23:49         -3.98  -170.919970    2      1      
iter:  16  10:23:49         -4.05  -170.919408    2      1      

Converged after 16 iterations.

Dipole moment: (-0.490427, -0.567035, 0.082292) |e|*Ang

Energy contributions relative to reference atoms: (reference = -24663.074771)

Kinetic:        +97.251661
Potential:     -105.789159
External:        +0.000000
XC:            -165.207629
Entropy (-ST):   -0.213700
Local:           +2.932569
--------------------------
Free energy:   -171.026258
Extrapolated:  -170.919408

Fermi level: -4.34425

 Band  Eigenvalues  Occupancy
    0    -24.01388    2.00000
    1    -23.44756    2.00000
    2    -22.27423    2.00000
    3    -21.10772    2.00000
    4    -20.74913    2.00000
    5    -20.40646    2.00000
    6    -19.85321    2.00000
    7    -19.41668    2.00000
    8    -18.61034    2.00000
    9    -17.84500    2.00000
   10    -17.53120    2.00000
   11    -17.20801    2.00000
   12    -16.84120    2.00000
   13    -16.26818    2.00000
   14    -15.52410    2.00000
   15    -14.86494    2.00000
   16    -14.50186    2.00000
   17    -13.70760    2.00000
   18    -13.36471    2.00000
   19    -13.19972    2.00000
   20    -12.61066    2.00000
   21    -12.27861    2.00000
   22    -11.66330    2.00000
   23    -11.06384    2.00000
   24    -10.67452    2.00000
   25    -10.30992    2.00000
   26    -10.01019    2.00000
   27     -9.49020    2.00000
   28     -9.42664    2.00000
   29     -9.39009    2.00000
   30     -9.01318    2.00000
   31     -8.91432    2.00000
   32     -8.71541    2.00000
   33     -8.56566    2.00000
   34     -8.13328    2.00000
   35     -7.77611    2.00000
   36     -7.50222    2.00000
   37     -7.27843    2.00000
   38     -7.05701    2.00000
   39     -6.54810    2.00000
   40     -6.34148    2.00000
   41     -6.15085    2.00000
   42     -6.08095    2.00000
   43     -5.80131    2.00000
   44     -5.56985    1.99999
   45     -4.96534    1.99599
   46     -4.85962    1.98851
   47     -4.49920    1.64967
   48     -4.18062    0.32592
   49     -3.92067    0.02852
   50     -3.82752    0.01134
   51     -3.28903    0.00005
   52     -3.04356    0.00000
   53     -2.55923    0.00000
   54     -2.36125    0.00000
   55     -2.26359    0.00000
   56     -1.70897    0.00000
   57     -1.27872    0.00000
   58     -1.16823    0.00000
   59     -0.97804    0.00000
   60     -0.33202    0.00000
   61      0.00749    0.00000
   62      0.13659    0.00000
   63      0.57287    0.00000
   64      0.84214    0.00000
   65      1.55827    0.00000
   66      2.01845    0.00000
   67      2.70662    0.00000
   68      2.85389    0.00000
   69      3.11313    0.00000
   70      3.71511    0.00000
   71      4.70341    0.00000
   72      4.94250    0.00000
   73      5.33216    0.00000
   74      5.83825    0.00000
   75      6.32335    0.00000
   76      6.36216    0.00000
   77      6.98598    0.00000
   78      7.09374    0.00000
   79      7.16741    0.00000
   80      7.62808    0.00000
   81      7.70564    0.00000
   82      8.05491    0.00000
   83      8.28681    0.00000
   84      8.47086    0.00000
   85      8.71159    0.00000
   86      8.76037    0.00000
   87      8.86226    0.00000
   88      8.93175    0.00000
   89      9.13056    0.00000
   90      9.27277    0.00000
   91      9.33464    0.00000
   92      9.42948    0.00000
   93      9.63056    0.00000
   94      9.66406    0.00000
   95      9.82887    0.00000
   96      9.90786    0.00000
   97     10.02194    0.00000


Forces in eV/Ang:
  0 C    -1.46321   -0.90537   -0.75159
  1 C    -0.57062   -0.66089    0.45887
  2 C     1.51105    0.94828    2.38946
  3 C    -0.85615   -1.38036    0.52934
  4 C     0.32425   -0.18359   -0.94092
  5 C     0.46030    1.10640   -0.84120
  6 C    -0.42554   -0.42548   -0.59135
  7 C    -0.14983   -0.23694    0.25013
  8 C    -0.56522    0.14432   -0.26249
  9 C    -0.56591   -0.41963   -0.43531
 10 C     1.07403   -1.13270   -1.48501
 11 C    -0.10290    0.39262    1.51277
 12 C    -1.51210    0.07804    0.06323
 13 C     0.12337    0.17192    0.00746
 14 C    -0.61595   -0.66365    0.19042
 15 C    -0.36310    0.87661    0.31254
 16 C    -0.03008    0.13092   -0.06626
 17 C     0.15573   -1.09776    0.28474
 18 C     1.30409    0.19196    0.85035
 19 C    -0.71862    1.51927   -1.29163
 20 C     1.96142    1.08376    0.10697
 21 C     0.07349    0.61256   -0.27340
 22 C     1.04697   -0.58270    0.14627
 23 C    -0.10939    0.39616   -0.09342

System changes: positions 

Initializing position-dependent things.

Density initialized from wave functions
           .--------------------------------------.  
          /|                                      |  
         / |                                      |  
        /  |                                      |  
       /   |                                      |  
      /    |                                      |  
     /     |                                      |  
    /      |                                      |  
   /       |                   C                  |  
  /        |             C   C C C                |  
 *         |   C C C   C  C    C C                |  
 |         |  CCC          C  C C  C              |  
 |         .-------C--C-C--C----------------------.  
 |        /                                      /   
 |       /                                      /    
 |      /                                      /     
 |     /                                      /      
 |    /                                      /       
 |   /                                      /        
 |  /                                      /         
 | /                                      /          
 |/                                      /           
 *--------------------------------------*            

Positions:
   0 C      9.137431    6.209314    5.328056
   1 C     11.183685    7.564343    5.696356
   2 C      9.126638   11.847473    5.543000
   3 C     10.514606    6.140076    5.585492
   4 C      8.749404    7.657265    5.184457
   5 C      8.647297   10.453215    5.348788
   6 C      9.928472    9.831431    5.513595
   7 C     10.093671    8.431770    5.522005
   8 C     12.097328    6.497346    5.856644
   9 C     10.312093   11.165199    5.076262
  10 C      6.802322   11.996658    4.700150
  11 C      8.304785    5.058466    5.382112
  12 C      6.089430   10.783998    4.590250
  13 C      4.933326   10.093219    4.786459
  14 C      4.037397    9.303239    5.155409
  15 C      7.462440   10.573765    4.563342
  16 C      3.565771    8.131259    5.557058
  17 C      3.552310    6.913073    5.953678
  18 C      7.524360    7.907572    4.622785
  19 C      7.491960    4.295630    6.035935
  20 C     11.236806    5.207351    6.367072
  21 C      6.172988    4.248878    6.286202
  22 C      4.973157    4.783555    6.339052
  23 C      4.086942    5.732630    6.196896

Unit cell:
           periodic     x           y           z      points  spacing
  1. axis:    yes   16.000000    0.000000    0.000000    80     0.2000
  2. axis:    yes    0.000000   16.000000    0.000000    80     0.2000
  3. axis:    yes    0.000000    0.000000   10.000000    48     0.2083

Effective grid spacing dv^(1/3) = 0.2027

                     log10-error:    total        iterations:
           time      wfs    density  energy       fermi  poisson
iter:   1  10:23:51          +inf  -171.557160    3      5      
iter:   2  10:23:51         -2.00  -171.499582    2      2      
iter:   3  10:23:52         -2.13  -171.452832    2      2      
iter:   4  10:23:52         -2.39  -171.451908    2      2      
iter:   5  10:23:53         -2.58  -171.448206    2      1      
iter:   6  10:23:53         -2.63  -171.446331    2      2      
iter:   7  10:23:54         -2.87  -171.450829    2      2      
iter:   8  10:23:54         -2.86  -171.446848    2      2      
iter:   9  10:23:55         -3.27  -171.447348    2      1      
iter:  10  10:23:55         -3.38  -171.447239    2      1      
iter:  11  10:23:56         -3.53  -171.446716    2      1      
iter:  12  10:23:56         -3.66  -171.448032    2      1      
iter:  13  10:23:57         -3.83  -171.449384    2      1      
iter:  14  10:23:57         -3.96  -171.448659    2      1      
iter:  15  10:23:58         -4.08  -171.448232    2      1      

Converged after 15 iterations.

Dipole moment: (-0.497278, -0.606903, 0.072928) |e|*Ang

Energy contributions relative to reference atoms: (reference = -24663.074771)

Kinetic:       +102.037069
Potential:     -109.628220
External:        +0.000000
XC:            -166.685232
Entropy (-ST):   -0.206926
Local:           +2.931614
--------------------------
Free energy:   -171.551695
Extrapolated:  -171.448232

Fermi level: -4.35153

 Band  Eigenvalues  Occupancy
    0    -23.91460    2.00000
    1    -23.48839    2.00000
    2    -22.38705    2.00000
    3    -21.17213    2.00000
    4    -20.77523    2.00000
    5    -20.46696    2.00000
    6    -19.89938    2.00000
    7    -19.46416    2.00000
    8    -18.66193    2.00000
    9    -17.93114    2.00000
   10    -17.57282    2.00000
   11    -17.19558    2.00000
   12    -16.85135    2.00000
   13    -16.28527    2.00000
   14    -15.55764    2.00000
   15    -14.92276    2.00000
   16    -14.53217    2.00000
   17    -13.76186    2.00000
   18    -13.34092    2.00000
   19    -13.28970    2.00000
   20    -12.60349    2.00000
   21    -12.28100    2.00000
   22    -11.66511    2.00000
   23    -11.08970    2.00000
   24    -10.65530    2.00000
   25    -10.33165    2.00000
   26    -10.01872    2.00000
   27     -9.51553    2.00000
   28     -9.43919    2.00000
   29     -9.40467    2.00000
   30     -9.05635    2.00000
   31     -8.97340    2.00000
   32     -8.75459    2.00000
   33     -8.62640    2.00000
   34     -8.17186    2.00000
   35     -7.80642    2.00000
   36     -7.54134    2.00000
   37     -7.34010    2.00000
   38     -7.05672    2.00000
   39     -6.50947    2.00000
   40     -6.33094    2.00000
   41     -6.14370    2.00000
   42     -6.06791    2.00000
   43     -5.85774    2.00000
   44     -5.52349    1.99998
   45     -5.00943    1.99723
   46     -4.87901    1.98981
   47     -4.50937    1.65798
   48     -4.18680    0.32296
   49     -3.89889    0.02141
   50     -3.82815    0.01061
   51     -3.18729    0.00002
   52     -3.03520    0.00000
   53     -2.50532    0.00000
   54     -2.31125    0.00000
   55     -2.19705    0.00000
   56     -1.57754    0.00000
   57     -1.24483    0.00000
   58     -1.03072    0.00000
   59     -0.88809    0.00000
   60     -0.31612    0.00000
   61      0.01942    0.00000
   62      0.16370    0.00000
   63      0.61539    0.00000
   64      0.92118    0.00000
   65      1.51707    0.00000
   66      2.10746    0.00000
   67      2.81355    0.00000
   68      3.15250    0.00000
   69      3.19030    0.00000
   70      3.93835    0.00000
   71      4.73846    0.00000
   72      4.95844    0.00000
   73      5.29916    0.00000
   74      5.91422    0.00000
   75      6.30855    0.00000
   76      6.44959    0.00000
   77      6.97462    0.00000
   78      7.17751    0.00000
   79      7.21828    0.00000
   80      7.60843    0.00000
   81      7.76107    0.00000
   82      8.02040    0.00000
   83      8.28842    0.00000
   84      8.51634    0.00000
   85      8.71184    0.00000
   86      8.76546    0.00000
   87      8.86948    0.00000
   88      8.94567    0.00000
   89      9.13704    0.00000
   90      9.29021    0.00000
   91      9.32168    0.00000
   92      9.44691    0.00000
   93      9.63453    0.00000
   94      9.66864    0.00000
   95      9.82591    0.00000
   96      9.93463    0.00000
   97     10.00847    0.00000


Forces in eV/Ang:
  0 C    -0.85856   -0.63377   -0.65717
  1 C    -0.76147   -0.76962    0.36730
  2 C     1.46975    0.70414    2.12619
  3 C    -0.20937   -1.17329    0.73875
  4 C     1.02009   -0.22712   -0.48832
  5 C     0.43969    0.90064   -0.66377
  6 C    -0.52345   -0.41284   -0.57486
  7 C    -0.30398   -0.15453    0.16217
  8 C    -0.70115   -0.03651   -0.30536
  9 C    -0.36084   -0.21154   -0.38766
 10 C     1.03753   -0.89749   -1.38130
 11 C     0.48051    0.90900    0.77323
 12 C    -1.58133   -0.18939    0.05392
 13 C     0.55335    0.58473   -0.16999
 14 C    -0.96906   -1.08477    0.36051
 15 C    -0.27321    1.00303    0.33202
 16 C    -0.00623    0.14173   -0.06553
 17 C     0.08533   -0.78316    0.19443
 18 C     0.42238    0.29883    0.41156
 19 C    -1.00974    0.65214   -0.67092
 20 C     1.63796    1.21983   -0.08783
 21 C    -0.44593    0.51507   -0.13379
 22 C     0.77831   -0.36851    0.09648
 23 C     0.09410    0.04749   -0.01635

System changes: positions 

Initializing position-dependent things.

Density initialized from wave functions
           .--------------------------------------.  
          /|                                      |  
         / |                                      |  
        /  |                                      |  
       /   |                                      |  
      /    |                                      |  
     /     |                                      |  
    /      |                                      |  
   /       |                   C                  |  
  /        |             C   C C C                |  
 *         |   C C C   C  C    C C                |  
 |         |  CCC       C  C  C C  C              |  
 |         .-------C--C-C--C----------------------.  
 |        /                                      /   
 |       /                                      /    
 |      /                                      /     
 |     /                                      /      
 |    /                                      /       
 |   /                                      /        
 |  /                                      /         
 | /                                      /          
 |/                                      /           
 *--------------------------------------*            

Positions:
   0 C      9.124032    6.202402    5.318657
   1 C     11.176742    7.559284    5.701862
   2 C      9.147617   11.858430    5.575246
   3 C     10.498044    6.123025    5.590250
   4 C      8.755581    7.653733    5.172669
   5 C      8.653325   10.468867    5.338594
   6 C      9.922182    9.827477    5.505253
   7 C     10.093211    8.427454    5.525203
   8 C     12.093536    6.500060    5.853722
   9 C     10.305429   11.159716    5.070375
  10 C      6.817346   11.980671    4.679489
  11 C      8.302388    5.063824    5.397152
  12 C      6.077158   10.788151    4.590463
  13 C      4.926925   10.091553    4.787848
  14 C      4.030930    9.296670    5.156930
  15 C      7.455339   10.587566    4.567254
  16 C      3.564277    8.125754    5.558549
  17 C      3.551812    6.909493    5.954375
  18 C      7.537722    7.911036    4.632628
  19 C      7.483117    4.310400    6.022182
  20 C     11.265386    5.216328    6.371365
  21 C      6.174672    4.254303    6.283039
  22 C      4.976021    4.783040    6.340489
  23 C      4.092134    5.727709    6.197614

Unit cell:
           periodic     x           y           z      points  spacing
  1. axis:    yes   16.000000    0.000000    0.000000    80     0.2000
  2. axis:    yes    0.000000   16.000000    0.000000    80     0.2000
  3. axis:    yes    0.000000    0.000000   10.000000    48     0.2083

Effective grid spacing dv^(1/3) = 0.2027

                     log10-error:    total        iterations:
           time      wfs    density  energy       fermi  poisson
iter:   1  10:24:00          +inf  -171.903349    3      5      
iter:   2  10:24:00         -2.13  -171.875454    2      2      
iter:   3  10:24:01         -2.25  -171.851023    2      2      
iter:   4  10:24:01         -2.49  -171.850895    2      2      
iter:   5  10:24:02         -2.68  -171.846153    2      1      
iter:   6  10:24:02         -2.75  -171.847479    2      2      
iter:   7  10:24:03         -3.00  -171.846556    2      1      
iter:   8  10:24:03         -3.09  -171.848434    2      2      
iter:   9  10:24:04         -3.41  -171.848827    2      1      
iter:  10  10:24:04         -3.51  -171.848438    2      1      
iter:  11  10:24:05         -3.61  -171.847853    2      1      
iter:  12  10:24:05         -3.88  -171.849344    2      1      
iter:  13  10:24:06         -3.98  -171.849410    2      1      
iter:  14  10:24:06         -4.07  -171.849200    2      1      

Converged after 14 iterations.

Dipole moment: (-0.505855, -0.641048, 0.063513) |e|*Ang

Energy contributions relative to reference atoms: (reference = -24663.074771)

Kinetic:       +106.074528
Potential:     -112.841845
External:        +0.000000
XC:            -167.922370
Entropy (-ST):   -0.202132
Local:           +2.941554
--------------------------
Free energy:   -171.950266
Extrapolated:  -171.849200

Fermi level: -4.35786

 Band  Eigenvalues  Occupancy
    0    -23.86042    2.00000
    1    -23.53090    2.00000
    2    -22.51466    2.00000
    3    -21.23980    2.00000
    4    -20.80739    2.00000
    5    -20.51029    2.00000
    6    -19.94161    2.00000
    7    -19.48972    2.00000
    8    -18.71055    2.00000
    9    -17.99500    2.00000
   10    -17.60673    2.00000
   11    -17.17656    2.00000
   12    -16.86185    2.00000
   13    -16.30580    2.00000
   14    -15.58988    2.00000
   15    -14.97049    2.00000
   16    -14.56851    2.00000
   17    -13.81438    2.00000
   18    -13.35524    2.00000
   19    -13.32242    2.00000
   20    -12.63760    2.00000
   21    -12.25397    2.00000
   22    -11.66736    2.00000
   23    -11.11954    2.00000
   24    -10.64477    2.00000
   25    -10.35634    2.00000
   26    -10.03526    2.00000
   27     -9.54296    2.00000
   28     -9.46272    2.00000
   29     -9.40837    2.00000
   30     -9.10282    2.00000
   31     -9.02034    2.00000
   32     -8.78290    2.00000
   33     -8.67554    2.00000
   34     -8.21536    2.00000
   35     -7.81775    2.00000
   36     -7.58352    2.00000
   37     -7.39805    2.00000
   38     -7.06681    2.00000
   39     -6.49280    2.00000
   40     -6.34188    2.00000
   41     -6.15614    2.00000
   42     -6.01347    2.00000
   43     -5.89842    2.00000
   44     -5.47837    1.99997
   45     -5.04712    1.99797
   46     -4.90011    1.99121
   47     -4.51712    1.66196
   48     -4.19312    0.32293
   49     -3.88063    0.01678
   50     -3.81983    0.00917
   51     -3.13739    0.00001
   52     -3.00175    0.00000
   53     -2.47031    0.00000
   54     -2.27872    0.00000
   55     -2.15381    0.00000
   56     -1.49079    0.00000
   57     -1.22575    0.00000
   58     -0.90418    0.00000
   59     -0.82274    0.00000
   60     -0.29513    0.00000
   61      0.02297    0.00000
   62      0.20201    0.00000
   63      0.64059    0.00000
   64      0.96630    0.00000
   65      1.50923    0.00000
   66      2.18007    0.00000
   67      2.91061    0.00000
   68      3.20451    0.00000
   69      3.48704    0.00000
   70      4.16933    0.00000
   71      4.78172    0.00000
   72      4.93324    0.00000
   73      5.29246    0.00000
   74      5.94674    0.00000
   75      6.27930    0.00000
   76      6.48227    0.00000
   77      6.97334    0.00000
   78      7.22704    0.00000
   79      7.31310    0.00000
   80      7.58401    0.00000
   81      7.80089    0.00000
   82      8.01815    0.00000
   83      8.27200    0.00000
   84      8.54116    0.00000
   85      8.67593    0.00000
   86      8.79993    0.00000
   87      8.87959    0.00000
   88      8.95523    0.00000
   89      9.15119    0.00000
   90      9.28624    0.00000
   91      9.30192    0.00000
   92      9.46140    0.00000
   93      9.61145    0.00000
   94      9.68755    0.00000
   95      9.82006    0.00000
   96      9.95489    0.00000
   97      9.99206    0.00000


Forces in eV/Ang:
  0 C    -0.34530   -0.42423   -0.57246
  1 C    -0.85151   -0.81614    0.28287
  2 C     1.39392    0.42837    1.88565
  3 C     0.29176   -0.98075    0.89098
  4 C     1.30613   -0.22291   -0.21891
  5 C     0.30953    0.74663   -0.51360
  6 C    -0.56826   -0.37569   -0.55325
  7 C    -0.41350   -0.09951    0.07914
  8 C    -0.75217   -0.15930   -0.33944
  9 C    -0.16652   -0.03603   -0.35071
 10 C     0.90751   -0.54648   -1.29134
 11 C     0.76559    1.12045    0.29198
 12 C    -1.60418   -0.35053    0.04239
 13 C     0.39498    0.49279   -0.13202
 14 C    -0.76070   -0.82949    0.25678
 15 C    -0.01112    0.93025    0.33869
 16 C    -0.03562    0.17781   -0.06919
 17 C     0.16025   -1.10939    0.27251
 18 C    -0.10292    0.38045    0.15578
 19 C    -1.19822    0.10222   -0.27115
 20 C     1.35501    1.22687   -0.17786
 21 C    -0.66708    0.37277   -0.04028
 22 C     0.77763   -0.47780    0.10582
 23 C    -0.20322    0.44375   -0.07382

System changes: positions 

Initializing position-dependent things.

Density initialized from wave functions
           .--------------------------------------.  
          /|                                      |  
         / |                                      |  
        /  |                                      |  
       /   |                                      |  
      /    |                                      |  
[...]

Fermi level: -4.55150

 Band  Eigenvalues  Occupancy
    0    -23.82445    2.00000
    1    -23.50264    2.00000
    2    -22.88041    2.00000
    3    -21.22272    2.00000
    4    -20.86160    2.00000
    5    -20.45416    2.00000
    6    -20.07931    2.00000
    7    -19.48206    2.00000
    8    -18.70073    2.00000
    9    -18.31579    2.00000
   10    -17.74066    2.00000
   11    -17.42747    2.00000
   12    -17.05535    2.00000
   13    -16.57061    2.00000
   14    -15.56023    2.00000
   15    -14.71288    2.00000
   16    -14.46957    2.00000
   17    -13.82609    2.00000
   18    -13.53636    2.00000
   19    -13.24601    2.00000
   20    -13.10638    2.00000
   21    -12.25391    2.00000
   22    -11.76577    2.00000
   23    -11.31811    2.00000
   24    -10.59905    2.00000
   25    -10.12398    2.00000
   26    -10.07192    2.00000
   27     -9.87179    2.00000
   28     -9.56342    2.00000
   29     -9.47408    2.00000
   30     -9.28057    2.00000
   31     -9.20382    2.00000
   32     -8.94762    2.00000
   33     -8.73465    2.00000
   34     -8.54999    2.00000
   35     -8.15865    2.00000
   36     -7.96138    2.00000
   37     -7.57749    2.00000
   38     -7.18780    2.00000
   39     -6.55873    2.00000
   40     -6.47875    2.00000
   41     -6.32855    2.00000
   42     -6.14042    2.00000
   43     -5.87620    2.00000
   44     -5.54996    1.99991
   45     -5.38125    1.99950
   46     -5.23142    1.99777
   47     -4.72518    1.70057
   48     -4.37682    0.29690
   49     -3.95859    0.00531
   50     -3.47542    0.00004
   51     -3.05708    0.00000
   52     -2.79450    0.00000
   53     -2.41014    0.00000
   54     -1.99157    0.00000
   55     -1.63142    0.00000
   56     -1.35467    0.00000
   57     -1.14796    0.00000
   58     -0.87824    0.00000
   59     -0.73071    0.00000
   60     -0.49892    0.00000
   61      0.08673    0.00000
   62      0.18068    0.00000
   63      0.97906    0.00000
   64      1.46551    0.00000
   65      1.69505    0.00000
   66      2.72835    0.00000
   67      3.22050    0.00000
   68      3.52483    0.00000
   69      4.07172    0.00000
   70      4.32232    0.00000
   71      4.72389    0.00000
   72      4.99463    0.00000
   73      5.44054    0.00000
   74      5.82698    0.00000
   75      6.11252    0.00000
   76      6.18610    0.00000
   77      6.72283    0.00000
   78      6.91572    0.00000
   79      7.26132    0.00000
   80      7.49241    0.00000
   81      7.82547    0.00000
   82      7.89529    0.00000
   83      8.05775    0.00000
   84      8.30521    0.00000
   85      8.58160    0.00000
   86      8.69172    0.00000
   87      8.78543    0.00000
   88      8.89442    0.00000
   89      9.04341    0.00000
   90      9.14801    0.00000
   91      9.25850    0.00000
   92      9.39994    0.00000
   93      9.44757    0.00000
   94      9.48629    0.00000
   95      9.61039    0.00000
   96      9.70773    0.00000
   97      9.83371    0.00000


Forces in eV/Ang:
  0 C    -0.00800   -0.01595   -0.03833
  1 C     0.01000   -0.02692   -0.01029
  2 C    -0.04542   -0.02112    0.07111
  3 C    -0.08490   -0.00110    0.02168
  4 C     0.05039    0.01243   -0.00189
  5 C     0.01276    0.04540   -0.01285
  6 C     0.02546   -0.01018    0.04553
  7 C     0.01060   -0.00037   -0.05295
  8 C    -0.01048    0.11376    0.02089
  9 C    -0.03721    0.05900   -0.00838
 10 C    -0.00176    0.01005   -0.02626
 11 C    -0.01654   -0.06255   -0.03965
 12 C     0.03393    0.02505   -0.02250
 13 C     0.02847   -0.08712    0.00533
 14 C    -0.01640   -0.01648   -0.02634
 15 C     0.00006   -0.00010    0.01416
 16 C    -0.04667   -0.03162   -0.00478
 17 C     0.01435    0.03770    0.01855
 18 C     0.00062   -0.02045   -0.00792
 19 C    -0.02884    0.00515   -0.00330
 20 C     0.06874   -0.00556   -0.01779
 21 C     0.01916    0.02169    0.04587
 22 C    -0.02017    0.07989    0.01533
 23 C    -0.01272   -0.05089    0.01584

System changes: positions 

Initializing position-dependent things.

Density initialized from wave functions
           .--------------------------------------.  
          /|                                      |  
         / |                                      |  
        /  |                                      |  
       /   |                                      |  
      /    |                                      |  
     /     |                                      |  
    /      |                   C                  |  
   /       |                                      |  
  /        |              C  C   C                |  
 *         |   C C C  C  C     C C                |  
 |         |  C            C   C  C               |  
 |         .---C--C--C--CC-C------C---------------.  
 |        /                                      /   
 |       /                                      /    
 |      /                                      /     
 |     /                                      /      
 |    /                                      /       
 |   /                                      /        
 |  /                                      /         
 | /                                      /          
 |/                                      /           
 *--------------------------------------*            

Positions:
   0 C      9.304219    5.927000    5.631362
   1 C     11.231971    8.082679    5.822853
   2 C      9.549273   11.428203    6.216440
   3 C     10.688765    5.690718    5.797269
   4 C      8.971868    7.329558    5.123544
   5 C      8.535472   10.761941    5.352973
   6 C      9.601180    9.822963    5.214496
   7 C      9.946508    8.436736    5.419096
   8 C     11.674999    6.826238    5.874101
   9 C     10.486017   11.017696    5.208675
  10 C      6.641095   11.953660    3.718985
  11 C      8.350204    4.998734    5.960948
  12 C      5.963884   10.960381    4.563541
  13 C      4.945882   10.221242    5.054718
  14 C      4.180318    9.251682    5.380639
  15 C      7.368388   11.185285    4.655387
  16 C      3.559213    8.160876    5.785744
  17 C      3.432089    6.882608    5.915510
  18 C      7.971784    7.700609    4.302087
  19 C      7.163991    4.523595    6.050053
  20 C     12.057864    5.453953    5.822867
  21 C      5.881458    4.278162    6.224498
  22 C      4.671014    4.743928    6.128516
  23 C      3.721768    5.636408    6.210687

Unit cell:
           periodic     x           y           z      points  spacing
  1. axis:    yes   16.000000    0.000000    0.000000    80     0.2000
  2. axis:    yes    0.000000   16.000000    0.000000    80     0.2000
  3. axis:    yes    0.000000    0.000000   10.000000    48     0.2083

Effective grid spacing dv^(1/3) = 0.2027

                     log10-error:    total        iterations:
           time      wfs    density  energy       fermi  poisson
iter:   1  10:33:26          +inf  -176.066426    2      5      
iter:   2  10:33:26         -2.45  -176.060802    2      1      
iter:   3  10:33:27         -2.61  -176.057110    2      1      
iter:   4  10:33:27         -2.80  -176.056985    2      2      
iter:   5  10:33:28         -2.94  -176.055908    2      1      
iter:   6  10:33:28         -2.91  -176.055776    2      1      
iter:   7  10:33:29         -3.30  -176.056989    2      1      
iter:   8  10:33:29         -3.16  -176.056425    2      1      
iter:   9  10:33:30         -3.75  -176.056399    2      1      
iter:  10  10:33:30         -3.80  -176.056469    2      1      
iter:  11  10:33:31         -3.87  -176.056369    2      1      
iter:  12  10:33:31         -3.95  -176.056417    2      1      
iter:  13  10:33:31         -4.01  -176.056434    2      1      

Converged after 13 iterations.

Dipole moment: (-0.589200, -0.572826, 0.380314) |e|*Ang

Energy contributions relative to reference atoms: (reference = -24663.074771)

Kinetic:       +105.369333
Potential:     -114.967333
External:        +0.000000
XC:            -169.318720
Entropy (-ST):   -0.177159
Local:           +2.948865
--------------------------
Free energy:   -176.145014
Extrapolated:  -176.056434

Fermi level: -4.55764

 Band  Eigenvalues  Occupancy
    0    -23.84051    2.00000
    1    -23.49437    2.00000
    2    -22.86985    2.00000
    3    -21.24027    2.00000
    4    -20.86572    2.00000
    5    -20.45348    2.00000
    6    -20.07984    2.00000
    7    -19.47735    2.00000
    8    -18.70289    2.00000
    9    -18.32744    2.00000
   10    -17.73285    2.00000
   11    -17.42442    2.00000
   12    -17.07136    2.00000
   13    -16.56479    2.00000
   14    -15.55519    2.00000
   15    -14.71735    2.00000
   16    -14.46083    2.00000
   17    -13.81888    2.00000
   18    -13.52871    2.00000
   19    -13.23356    2.00000
   20    -13.10691    2.00000
   21    -12.25629    2.00000
   22    -11.79715    2.00000
   23    -11.32487    2.00000
   24    -10.60201    2.00000
   25    -10.12019    2.00000
   26    -10.06298    2.00000
   27     -9.88835    2.00000
   28     -9.55603    2.00000
   29     -9.47028    2.00000
   30     -9.26150    2.00000
   31     -9.20143    2.00000
   32     -8.95239    2.00000
   33     -8.72940    2.00000
   34     -8.53945    2.00000
   35     -8.17249    2.00000
   36     -7.97758    2.00000
   37     -7.57504    2.00000
   38     -7.19580    2.00000
   39     -6.55710    2.00000
   40     -6.48097    2.00000
   41     -6.32265    2.00000
   42     -6.13886    2.00000
   43     -5.88252    2.00000
   44     -5.55754    1.99991
   45     -5.37437    1.99943
   46     -5.22948    1.99759
   47     -4.72836    1.69294
   48     -4.38621    0.30522
   49     -3.95601    0.00487
   50     -3.49403    0.00005
   51     -3.05949    0.00000
   52     -2.79591    0.00000
   53     -2.38344    0.00000
   54     -1.98182    0.00000
   55     -1.62229    0.00000
   56     -1.34638    0.00000
   57     -1.15982    0.00000
   58     -0.89331    0.00000
   59     -0.74001    0.00000
   60     -0.49405    0.00000
   61      0.09454    0.00000
   62      0.19492    0.00000
   63      1.00135    0.00000
   64      1.48596    0.00000
   65      1.73659    0.00000
   66      2.71033    0.00000
   67      3.21828    0.00000
   68      3.50607    0.00000
   69      4.03941    0.00000
   70      4.29689    0.00000
   71      4.69087    0.00000
   72      4.95130    0.00000
   73      5.43035    0.00000
   74      5.80187    0.00000
   75      6.11631    0.00000
   76      6.15776    0.00000
   77      6.73664    0.00000
   78      6.91684    0.00000
   79      7.24074    0.00000
   80      7.46934    0.00000
   81      7.77325    0.00000
   82      7.91944    0.00000
   83      8.07020    0.00000
   84      8.30419    0.00000
   85      8.59173    0.00000
   86      8.68180    0.00000
   87      8.77643    0.00000
   88      8.89213    0.00000
   89      9.05184    0.00000
   90      9.16057    0.00000
   91      9.25931    0.00000
   92      9.40446    0.00000
   93      9.45091    0.00000
   94      9.49312    0.00000
   95      9.61954    0.00000
   96      9.69989    0.00000
   97      9.84743    0.00000


Forces in eV/Ang:
  0 C     0.03251   -0.01669   -0.00082
  1 C    -0.03414    0.05185    0.00924
  2 C    -0.04270    0.02912   -0.02181
  3 C     0.00428   -0.03168    0.01670
  4 C     0.04412   -0.06338    0.02754
  5 C    -0.04170   -0.07718    0.03901
  6 C     0.02897    0.05903   -0.00736
  7 C     0.08960    0.06097    0.03249
  8 C     0.01057   -0.02603    0.02142
  9 C    -0.00188    0.04415    0.01842
 10 C    -0.00256   -0.08056    0.04107
 11 C    -0.00958   -0.02535   -0.01287
 12 C    -0.04372   -0.03539    0.01907
 13 C     0.12203    0.00043   -0.04649
 14 C    -0.03389   -0.01292    0.00389
 15 C     0.01768    0.05165    0.00578
 16 C    -0.01872    0.03975   -0.02907
 17 C    -0.00001    0.01523    0.04655
 18 C    -0.13044    0.04444   -0.13897
 19 C    -0.00172   -0.00494   -0.01673
 20 C     0.00302   -0.00123   -0.02344
 21 C     0.01769    0.04013    0.05052
 22 C     0.08233    0.02116    0.03378
 23 C    -0.04920    0.01963   -0.02429

System changes: positions 

Initializing position-dependent things.

Density initialized from wave functions
           .--------------------------------------.  
          /|                                      |  
         / |                                      |  
        /  |                                      |  
       /   |                                      |  
      /    |                                      |  
     /     |                                      |  
    /      |                   C                  |  
   /       |                                      |  
  /        |              C  C   C                |  
 *         |   C C C  C  C     C C                |  
 |         |  C            C   C  C               |  
 |         .---C--C--C--CC-C------C---------------.  
 |        /                                      /   
 |       /                                      /    
 |      /                                      /     
 |     /                                      /      
 |    /                                      /       
 |   /                                      /        
 |  /                                      /         
 | /                                      /          
 |/                                      /           
 *--------------------------------------*            

Positions:
   0 C      9.305175    5.927623    5.631447
   1 C     11.233729    8.079396    5.836195
   2 C      9.542607   11.437434    6.209501
   3 C     10.688817    5.686802    5.793976
   4 C      8.975751    7.330065    5.122061
   5 C      8.531063   10.753844    5.355357
   6 C      9.603721    9.822772    5.219763
   7 C      9.951151    8.437333    5.428707
   8 C     11.675303    6.821234    5.876508
   9 C     10.481359   11.022613    5.207318
  10 C      6.641509   11.948583    3.720071
  11 C      8.349224    5.002403    5.964139
  12 C      5.960073   10.960002    4.564827
  13 C      4.940003   10.227180    5.056090
  14 C      4.173313    9.257530    5.381876
  15 C      7.366631   11.178389    4.653921
  16 C      3.555843    8.164752    5.784809
  17 C      3.431444    6.885700    5.915546
  18 C      7.983232    7.703331    4.289294
  19 C      7.165637    4.522414    6.055073
  20 C     12.057372    5.449631    5.810302
  21 C      5.882741    4.278864    6.230194
  22 C      4.673420    4.745187    6.130300
  23 C      3.724970    5.640344    6.207725

Unit cell:
           periodic     x           y           z      points  spacing
  1. axis:    yes   16.000000    0.000000    0.000000    80     0.2000
  2. axis:    yes    0.000000   16.000000    0.000000    80     0.2000
  3. axis:    yes    0.000000    0.000000   10.000000    48     0.2083

Effective grid spacing dv^(1/3) = 0.2027

                     log10-error:    total        iterations:
           time      wfs    density  energy       fermi  poisson
iter:   1  10:33:33          +inf  -176.059544    2      5      
iter:   2  10:33:34         -2.73  -176.059164    2      1      
iter:   3  10:33:34         -2.91  -176.059658    2      1      
iter:   4  10:33:35         -3.09  -176.059648    2      1      
iter:   5  10:33:35         -3.25  -176.060547    2      1      
iter:   6  10:33:36         -3.23  -176.059453    2      1      
iter:   7  10:33:36         -3.67  -176.059186    2      1      
iter:   8  10:33:36         -3.40  -176.059401    2      1      
iter:   9  10:33:37         -4.06  -176.059336    1      1      

Converged after 9 iterations.

Dipole moment: (-0.593761, -0.573272, 0.386587) |e|*Ang

Energy contributions relative to reference atoms: (reference = -24663.074771)

Kinetic:       +105.340536
Potential:     -114.951595
External:        +0.000000
XC:            -169.311870
Entropy (-ST):   -0.176264
Local:           +2.951725
--------------------------
Free energy:   -176.147468
Extrapolated:  -176.059336

Fermi level: -4.55557

 Band  Eigenvalues  Occupancy
    0    -23.83488    2.00000
    1    -23.49607    2.00000
    2    -22.87926    2.00000
    3    -21.22967    2.00000
    4    -20.86342    2.00000
    5    -20.45345    2.00000
    6    -20.07954    2.00000
    7    -19.47971    2.00000
    8    -18.70179    2.00000
    9    -18.31982    2.00000
   10    -17.73589    2.00000
   11    -17.42562    2.00000
   12    -17.06625    2.00000
   13    -16.56788    2.00000
   14    -15.55731    2.00000
   15    -14.71643    2.00000
   16    -14.46575    2.00000
   17    -13.82155    2.00000
   18    -13.52980    2.00000
   19    -13.23683    2.00000
   20    -13.10574    2.00000
   21    -12.25601    2.00000
   22    -11.78541    2.00000
   23    -11.32369    2.00000
   24    -10.60025    2.00000
   25    -10.12269    2.00000
   26    -10.06859    2.00000
   27     -9.87987    2.00000
   28     -9.55950    2.00000
   29     -9.47196    2.00000
   30     -9.27190    2.00000
   31     -9.20317    2.00000
   32     -8.95098    2.00000
   33     -8.73204    2.00000
   34     -8.54530    2.00000
   35     -8.16475    2.00000
   36     -7.96995    2.00000
   37     -7.57526    2.00000
   38     -7.19232    2.00000
   39     -6.55833    2.00000
   40     -6.47986    2.00000
   41     -6.32590    2.00000
   42     -6.13958    2.00000
   43     -5.87870    2.00000
   44     -5.55435    1.99991
   45     -5.37768    1.99946
   46     -5.23049    1.99766
   47     -4.72729    1.69552
   48     -4.38303    0.30235
   49     -3.95788    0.00506
   50     -3.48394    0.00004
   51     -3.05915    0.00000
   52     -2.79539    0.00000
   53     -2.39463    0.00000
   54     -1.98538    0.00000
   55     -1.62506    0.00000
   56     -1.35363    0.00000
   57     -1.15330    0.00000
   58     -0.88524    0.00000
   59     -0.73539    0.00000
   60     -0.49686    0.00000
   61      0.08905    0.00000
   62      0.18762    0.00000
   63      0.98645    0.00000
   64      1.47619    0.00000
   65      1.71494    0.00000
   66      2.72176    0.00000
   67      3.22700    0.00000
   68      3.51374    0.00000
   69      4.05518    0.00000
   70      4.30701    0.00000
   71      4.70406    0.00000
   72      4.96938    0.00000
   73      5.43319    0.00000
   74      5.81692    0.00000
   75      6.11305    0.00000
   76      6.17386    0.00000
   77      6.72813    0.00000
   78      6.91658    0.00000
   79      7.24984    0.00000
   80      7.47879    0.00000
   81      7.79458    0.00000
   82      7.90475    0.00000
   83      8.06671    0.00000
   84      8.30203    0.00000
   85      8.58563    0.00000
   86      8.68730    0.00000
   87      8.77918    0.00000
   88      8.89281    0.00000
   89      9.04712    0.00000
   90      9.15442    0.00000
   91      9.26109    0.00000
   92      9.40247    0.00000
   93      9.45039    0.00000
   94      9.49362    0.00000
   95      9.61346    0.00000
   96      9.69958    0.00000
   97      9.83941    0.00000


Forces in eV/Ang:
  0 C    -0.00024   -0.01798   -0.00798
  1 C    -0.01941    0.04309    0.02484
  2 C    -0.03770    0.02479    0.02685
  3 C    -0.01548   -0.02448    0.01635
  4 C     0.00693   -0.01124    0.00956
  5 C    -0.02858   -0.00606   -0.01768
  6 C     0.03049    0.02539    0.01673
  7 C     0.04688    0.03009   -0.01210
  8 C     0.01064    0.02628    0.02685
  9 C    -0.02211    0.04790   -0.01346
 10 C    -0.00463   -0.02650   -0.00872
 11 C    -0.01026   -0.02435   -0.01990
 12 C    -0.02324   -0.01315    0.00838
 13 C     0.06036   -0.04464   -0.01547
 14 C    -0.01990   -0.01936   -0.00938
 15 C     0.01398    0.00650    0.01935
 16 C    -0.02551    0.02896   -0.01927
 17 C     0.00864   -0.00119    0.03027
 18 C    -0.01024    0.02155   -0.09167
 19 C    -0.00010   -0.00206   -0.02016
 20 C     0.03520   -0.01831   -0.05520
 21 C     0.01132    0.02800    0.03931
 22 C     0.02392    0.05524    0.02526
 23 C    -0.02300   -0.00949   -0.01162

