
  ___ ___ ___ _ _ _  
 |   |   |_  | | | | 
 | | | | | . | | | | 
 |__ |  _|___|_____|  1.3.0b1
 |___|_|             

User:   esb@s65n11.grendel.cscaa.dk
Date:   Thu Nov  9 11:33:19 2017
Arch:   x86_64
Pid:    77261
Python: 2.7.13
gpaw:   /home/esb/DFT/gpaw_git/gpaw
_gpaw:  /home/esb/DFT/gpaw_git/build/bin.linux-x86_64-2.7/gpaw-python
ase:    /home/esb/DFT/ase_git/ase (version 3.15.0b1)
numpy:  /comm/swstack/core/python/2.7.13/lib/python2.7/site-packages/numpy (version 1.13.3)
scipy:  /comm/swstack/core/python/2.7.13/lib/python2.7/site-packages/scipy (version 0.19.1)
units:  Angstrom and eV
cores:  16
Extra parameters: {'blacs': True}

Input parameters:
  basis: dzp
  gpts: [80 80 48]
  kpts: [1 1 1]
  maxiter: 99
  mixer: {backend: pulay,
          beta: 0.05,
          method: separate,
          nmaxold: 5,
          weight: 75}
  mode: lcao
  nbands: -50
  occupations: {name: fermi-dirac,
                width: 0.1}
  poissonsolver: {eps: 1e-07,
                  name: fd,
                  nn: 3,
                  relax: GS}
  xc: PBE

System changes: positions, numbers, cell, pbc, initial_charges, initial_magmoms 

Initialize ...

C-setup:
  name: Carbon
  id: 4aa54d4b901d75f77cc0ea3eec22967b
  Z: 6
  valence: 4
  core: 2
  charge: 0.0
  file: /home/esb/DFT/gpaw-setups-0.8.7929/C.PBE.gz
  cutoffs: 0.64(comp), 1.14(filt), 1.14(core), lmax=2
  valence states:
                energy  radius
    2s(2.00)   -13.751   0.635
    2p(2.00)    -5.284   0.635
    *s          13.461   0.635
    *p          21.927   0.635
    *d           0.000   0.635

  LCAO basis set for C:
    Name: dzp
    File: /home/esb/DFT/gpaw-setups-0.8.7929/C.dzp.basis.gz
    Number of radial functions: 5
    Number of spherical harmonics: 13
      l=0, rc=5.5469 Bohr: 2s-sz confined orbital
      l=1, rc=6.6719 Bohr: 2p-sz confined orbital
      l=0, rc=3.0312 Bohr: 2s-dz split-valence wave
      l=1, rc=3.7500 Bohr: 2p-dz split-valence wave
      l=2, rc=6.6719 Bohr: d-type Gaussian polarization

Reference energy: -24663.074771

Spin-paired calculation

Occupation numbers:
  Fermi-Dirac: width=0.1000 eV

Convergence criteria:
  Maximum total energy change: 0.0005 eV / electron
  Maximum integral of absolute density change: 0.0001 electrons
  Maximum integral of absolute eigenstate change: 4e-08 eV^2
  Maximum number of iterations: 99

Symmetries present (total): 1

  ( 1  0  0)
  ( 0  1  0)
  ( 0  0  1)

1 k-point (Gamma)
1 k-point in the irreducible part of the Brillouin zone
       k-points in crystal coordinates                weights
   0:     0.00000000    0.00000000    0.00000000          1/1

Wave functions: LCAO
  Diagonalizer: Serial LAPACK
  Atomic Correction: dense with blas
  Datatype: float
  Eigensolver: None 

LCAO using direct dense diagonalizer 

Densities:
  Coarse grid: 80*80*48 grid
  Fine grid: 160*160*96 grid
  Total Charge: 0.000000 

Density mixing:
  Method: separate
  Backend: pulay
  Linear mixing parameter: 0.05
  Mixing with 5 old densities
  Damping of long wave oscillations: 75 

Hamiltonian:
  XC and Coulomb potentials evaluated on a 160*160*96 grid
  Using the PBE Exchange-Correlation functional
  Interpolation: tri-quintic (5. degree polynomial)
  Poisson solver: Gauss-Seidel solver with 6 multi-grid levels
    Coarsest grid: 5 x 5 x 3 points
    Stencil: 6*3+1=19 point O(h^6) finite-difference Laplacian
    Max iterations: 1000
    Tolerance: 1.000000e-07 

Memory estimate:
  Process memory now: 77.56 MiB
  Calculator: 15.59 MiB
    Density: 6.13 MiB
      Arrays: 3.81 MiB
      Localized functions: 0.86 MiB
      Mixer: 1.46 MiB
    Hamiltonian: 5.40 MiB
      Arrays: 2.49 MiB
      XC: 0.00 MiB
      Poisson: 2.85 MiB
      vbar: 0.07 MiB
    Wavefunctions: 4.05 MiB
      C [qnM]: 0.23 MiB
      S, T [2 x qmm]: 1.49 MiB
      P [aqMi]: 0.01 MiB
      TCI: 0.00 MiB
      BasisFunctions: 2.33 MiB
      Eigensolver: 0.00 MiB

Total number of cores used: 16
Domain decomposition: 2 x 4 x 2

Number of atoms: 24
Number of atomic orbitals: 312
Number of bands in calculation: 98
Bands to converge: occupied states only
Number of valence electrons: 96

... initialized

Initializing position-dependent things.

Density initialized from atomic densities
           .--------------------------------------.  
          /|                                      |  
         / |                                      |  
        /  |                                      |  
       /   |                                      |  
      /    |                                      |  
     /     |                                      |  
    /      |             C   C                    |  
   /       |           C       C                  |  
  /        |    C  C    C                         |  
 *         |        C     C   C                   |  
 |         |  C    C            C                 |  
 |         .-C-C------C--C-----C------------------.  
 |        /                 C                    /   
 |       /     C C  C     C                     /    
 |      /              C                       /     
 |     /                                      /      
 |    /                                      /       
 |   /                                      /        
 |  /                                      /         
 | /                                      /          
 |/                                      /           
 *--------------------------------------*            

Positions:
   0 C     10.692401    5.970584    4.880153
   1 C      9.255071    3.886307    4.346313
   2 C      9.564880    5.142666    4.880196
   3 C     10.811222    7.104521    5.404637
   4 C      8.159939    3.277575    4.418648
   5 C      9.844170    7.819532    6.118883
   6 C      8.409757    5.753245    5.621567
   7 C      6.989294    3.696174    5.058286
   8 C      8.549781    7.066304    6.239489
   9 C      7.146232    5.035173    5.719325
  10 C      9.799762    9.063655    6.756290
  11 C      8.840903    9.566706    7.392013
  12 C      3.430618    6.367236    5.224453
  13 C      4.721990    4.126056    4.903132
  14 C      4.538842    5.494375    5.231172
  15 C      5.740551    3.387568    4.956784
  16 C      3.535561    7.625926    5.527187
  17 C      3.944378    8.872441    5.859287
  18 C      5.881275    6.011394    5.643247
  19 C      5.317840    8.640212    6.091316
  20 C      6.038032    7.372145    5.963123
  21 C      7.309711   10.459733    7.004496
  22 C      6.676280    9.281223    6.551234
  23 C      7.279238    7.958209    6.384313

Unit cell:
           periodic     x           y           z      points  spacing
  1. axis:    yes   16.000000    0.000000    0.000000    80     0.2000
  2. axis:    yes    0.000000   16.000000    0.000000    80     0.2000
  3. axis:    yes    0.000000    0.000000   10.000000    48     0.2083

Effective grid spacing dv^(1/3) = 0.2027

                     log10-error:    total        iterations:
           time      wfs    density  energy       fermi  poisson
iter:   1  11:33:21          +inf  -186.403132    3      6      
iter:   2  11:33:21         -0.88  -185.528946    4      3      
iter:   3  11:33:22         -0.92  -183.104579    35     4      
iter:   4  11:33:23         -1.20  -183.224319    3      2      
iter:   5  11:33:23         -1.20  -181.864029    28     3      
iter:   6  11:33:24         -1.39  -182.143693    4      3      
iter:   7  11:33:25         -1.53  -182.214444    3      3      
iter:   8  11:33:25         -1.57  -181.959470    4      3      
iter:   9  11:33:26         -1.69  -182.006269    3      2      
iter:  10  11:33:27         -1.71  -181.898080    3      3      
iter:  11  11:33:27         -1.67  -181.981759    4      3      
iter:  12  11:33:28         -1.61  -181.746143    32     3      
iter:  13  11:33:29         -2.10  -181.728629    3      2      
iter:  14  11:33:29         -2.18  -181.709838    4      2      
iter:  15  11:33:30         -2.29  -181.696969    2      2      
iter:  16  11:33:31         -2.47  -181.701230    3      2      
iter:  17  11:33:31         -2.35  -181.691156    3      2      
iter:  18  11:33:32         -2.69  -181.683903    3      1      
iter:  19  11:33:32         -2.93  -181.689127    3      2      
iter:  20  11:33:33         -3.08  -181.688496    3      1      
iter:  21  11:33:34         -3.23  -181.689038    2      1      
iter:  22  11:33:34         -3.31  -181.696450    3      1      
iter:  23  11:33:35         -3.44  -181.690617    2      1      
iter:  24  11:33:35         -3.61  -181.691172    2      1      
iter:  25  11:33:36         -3.70  -181.692064    2      1      
iter:  26  11:33:37         -3.85  -181.691674    2      1      
iter:  27  11:33:37         -4.10  -181.689842    2      1      

Converged after 27 iterations.

Dipole moment: (0.320856, -1.035132, -0.260361) |e|*Ang

Energy contributions relative to reference atoms: (reference = -24663.074771)

Kinetic:       +115.027185
Potential:     -123.084896
External:        +0.000000
XC:            -176.495509
Entropy (-ST):   -0.238638
Local:           +2.982698
--------------------------
Free energy:   -181.809161
Extrapolated:  -181.689842

Fermi level: -4.60205

 Band  Eigenvalues  Occupancy
    0    -23.01094    2.00000
    1    -22.41668    2.00000
    2    -22.00461    2.00000
    3    -21.00466    2.00000
    4    -20.67161    2.00000
    5    -20.02785    2.00000
    6    -19.65429    2.00000
    7    -19.28054    2.00000
    8    -18.49582    2.00000
    9    -18.00391    2.00000
   10    -17.90243    2.00000
   11    -17.12917    2.00000
   12    -16.40811    2.00000
   13    -15.87149    2.00000
   14    -15.73364    2.00000
   15    -15.08822    2.00000
   16    -13.87555    2.00000
   17    -13.53226    2.00000
   18    -13.30255    2.00000
   19    -12.79697    2.00000
   20    -12.49743    2.00000
   21    -12.15044    2.00000
   22    -12.00129    2.00000
   23    -11.40788    2.00000
   24    -11.24614    2.00000
   25    -10.86614    2.00000
   26    -10.71655    2.00000
   27    -10.16836    2.00000
   28     -9.82679    2.00000
   29     -9.80700    2.00000
   30     -9.72906    2.00000
   31     -9.04441    2.00000
   32     -8.70906    2.00000
   33     -8.46937    2.00000
   34     -8.46371    2.00000
   35     -7.94567    2.00000
   36     -7.26526    2.00000
   37     -7.10044    2.00000
   38     -6.92915    2.00000
   39     -6.83449    2.00000
   40     -6.72138    2.00000
   41     -6.58273    2.00000
   42     -6.40715    2.00000
   43     -6.31808    2.00000
   44     -6.06083    2.00000
   45     -5.43956    1.99954
   46     -4.82797    1.81087
   47     -4.80398    1.76561
   48     -4.47074    0.42395
   49     -3.49448    0.00003
   50     -3.10679    0.00000
   51     -2.94262    0.00000
   52     -2.92894    0.00000
   53     -2.67118    0.00000
   54     -2.46086    0.00000
   55     -1.93632    0.00000
   56     -1.45180    0.00000
   57     -1.00416    0.00000
   58     -0.63469    0.00000
   59     -0.43542    0.00000
   60      0.00282    0.00000
   61      0.91765    0.00000
   62      1.68005    0.00000
   63      2.74902    0.00000
   64      3.12826    0.00000
   65      3.27507    0.00000
   66      3.53488    0.00000
   67      3.85398    0.00000
   68      4.16351    0.00000
   69      4.49297    0.00000
   70      4.94795    0.00000
   71      5.33084    0.00000
   72      5.79761    0.00000
   73      6.08594    0.00000
   74      6.55080    0.00000
   75      6.89767    0.00000
   76      7.17088    0.00000
   77      7.26322    0.00000
   78      7.63044    0.00000
   79      7.84624    0.00000
   80      8.00748    0.00000
   81      8.47166    0.00000
   82      8.60323    0.00000
   83      8.82469    0.00000
   84      8.94347    0.00000
   85      8.98810    0.00000
   86      9.01739    0.00000
   87      9.20512    0.00000
   88      9.32488    0.00000
   89      9.41658    0.00000
   90      9.50964    0.00000
   91      9.55400    0.00000
   92      9.62353    0.00000
   93      9.86420    0.00000
   94      9.89793    0.00000
   95     10.05938    0.00000
   96     10.16051    0.00000
   97     10.36562    0.00000


Forces in eV/Ang:
  0 C     0.18128   -0.24532   -0.13904
  1 C     0.51885    0.13795    0.13333
  2 C    -0.07036   -0.14240    0.12917
  3 C    -0.02290    0.28576    0.09631
  4 C     0.06048   -0.40203    0.37013
  5 C    -0.43271   -0.37232    0.77424
  6 C    -0.24256   -0.20566    0.72266
  7 C     5.50140    1.82560    0.73410
  8 C    -1.31886    2.30622   -1.33737
  9 C    -1.42345    2.58373   -2.07856
 10 C     0.89376   -0.35160   -0.05194
 11 C    -3.80006    4.21099   -0.52243
 12 C     0.04356    0.12737   -0.07371
 13 C    -0.69631   -0.27108    0.41625
 14 C     0.21825   -0.19882    0.09156
 15 C    -6.60052   -1.39043   -0.89428
 16 C    -0.13473    0.07200   -0.18203
 17 C     0.14304   -0.16400    0.15811
 18 C     0.88125   -2.01892    0.56107
 19 C     0.23640    0.08335   -0.26502
 20 C     0.41662   -0.71470    0.37175
 21 C     2.72892   -1.91647    1.20178
 22 C     0.83486   -0.14847    0.34579
 23 C     2.07748   -3.08199   -0.50919

System changes: positions 

Initializing position-dependent things.

Density initialized from wave functions
           .--------------------------------------.  
          /|                                      |  
         / |                                      |  
        /  |                                      |  
       /   |                                      |  
      /    |                                      |  
     /     |                                      |  
    /      |             C  C                     |  
   /       |           C       C                  |  
  /        |    C  C    C                         |  
 *         |        C     C   C                   |  
 |         |  C    C            C                 |  
 |         .-C-C------C--C-----C------------------.  
 |        /                 C                    /   
 |       /     C C  C     C                     /    
 |      /              C                       /     
 |     /                                      /      
 |    /                                      /       
 |   /                                      /        
 |  /                                      /         
 | /                                      /          
 |/                                      /           
 *--------------------------------------*            

Positions:
   0 C     10.693467    5.969141    4.879335
   1 C      9.258121    3.887118    4.347097
   2 C      9.564466    5.141829    4.880955
   3 C     10.811087    7.106201    5.405203
   4 C      8.160295    3.275211    4.420824
   5 C      9.841626    7.817344    6.123435
   6 C      8.408331    5.752036    5.625815
   7 C      7.021634    3.706906    5.062601
   8 C      8.542028    7.079861    6.231627
   9 C      7.137864    5.050361    5.707106
  10 C      9.805016    9.061588    6.755985
  11 C      8.818564    9.591461    7.388941
  12 C      3.430874    6.367985    5.224020
  13 C      4.717896    4.124462    4.905579
  14 C      4.540125    5.493206    5.231710
  15 C      5.701750    3.379395    4.951527
  16 C      3.534769    7.626349    5.526117
  17 C      3.945219    8.871477    5.860216
  18 C      5.886455    5.999525    5.646546
  19 C      5.319230    8.640702    6.089758
  20 C      6.040481    7.367944    5.965309
  21 C      7.325753   10.448467    7.011560
  22 C      6.681188    9.280351    6.553267
  23 C      7.291450    7.940092    6.381320

Unit cell:
           periodic     x           y           z      points  spacing
  1. axis:    yes   16.000000    0.000000    0.000000    80     0.2000
  2. axis:    yes    0.000000   16.000000    0.000000    80     0.2000
  3. axis:    yes    0.000000    0.000000   10.000000    48     0.2083

Effective grid spacing dv^(1/3) = 0.2027

                     log10-error:    total        iterations:
           time      wfs    density  energy       fermi  poisson
iter:   1  11:33:39          +inf  -182.518534    4      5      
iter:   2  11:33:40         -1.93  -182.483579    3      2      
iter:   3  11:33:41         -2.14  -182.465876    3      2      
iter:   4  11:33:41         -2.25  -182.447134    3      2      
iter:   5  11:33:42         -2.55  -182.443811    3      2      
iter:   6  11:33:43         -2.76  -182.443373    3      2      
iter:   7  11:33:43         -2.88  -182.444660    3      2      
iter:   8  11:33:44         -3.21  -182.444142    2      1      
iter:   9  11:33:44         -3.38  -182.443227    2      1      
iter:  10  11:33:45         -3.50  -182.442963    2      1      
iter:  11  11:33:46         -3.60  -182.442942    2      1      
iter:  12  11:33:46         -3.77  -182.442885    2      1      
iter:  13  11:33:47         -3.83  -182.442676    2      1      
iter:  14  11:33:47         -3.96  -182.442795    2      1      
iter:  15  11:33:48         -4.17  -182.443083    2      1      

Converged after 15 iterations.

Dipole moment: (0.387981, -1.014428, -0.239531) |e|*Ang

Energy contributions relative to reference atoms: (reference = -24663.074771)

Kinetic:       +109.892389
Potential:     -119.314354
External:        +0.000000
XC:            -175.870792
Entropy (-ST):   -0.240348
Local:           +2.969848
--------------------------
Free energy:   -182.563257
Extrapolated:  -182.443083

Fermi level: -4.55479

 Band  Eigenvalues  Occupancy
    0    -22.97936    2.00000
    1    -22.34412    2.00000
    2    -21.94481    2.00000
    3    -21.01457    2.00000
    4    -20.60750    2.00000
    5    -20.01323    2.00000
    6    -19.63532    2.00000
    7    -19.23750    2.00000
    8    -18.52638    2.00000
    9    -18.02482    2.00000
   10    -17.95036    2.00000
   11    -17.02733    2.00000
   12    -16.46099    2.00000
   13    -15.87628    2.00000
   14    -15.67665    2.00000
   15    -15.13236    2.00000
   16    -13.87814    2.00000
   17    -13.48975    2.00000
   18    -13.29151    2.00000
   19    -12.74261    2.00000
   20    -12.50452    2.00000
   21    -12.17061    2.00000
   22    -11.95776    2.00000
   23    -11.42015    2.00000
   24    -11.26886    2.00000
   25    -10.85395    2.00000
   26    -10.68548    2.00000
   27    -10.19818    2.00000
   28     -9.84591    2.00000
   29     -9.75749    2.00000
   30     -9.64268    2.00000
   31     -9.17945    2.00000
   32     -8.73847    2.00000
   33     -8.55248    2.00000
   34     -8.42858    2.00000
   35     -7.93794    2.00000
   36     -7.26590    2.00000
   37     -7.07232    2.00000
   38     -6.92122    2.00000
   39     -6.86094    2.00000
   40     -6.73197    2.00000
   41     -6.58156    2.00000
   42     -6.45474    2.00000
   43     -6.31591    2.00000
   44     -6.13095    2.00000
   45     -5.45090    1.99974
   46     -4.77369    1.79851
   47     -4.76040    1.77313
   48     -4.42485    0.42852
   49     -3.56203    0.00010
   50     -3.16131    0.00000
   51     -2.96475    0.00000
   52     -2.93795    0.00000
   53     -2.58523    0.00000
   54     -2.33322    0.00000
   55     -1.97856    0.00000
   56     -1.47118    0.00000
   57     -1.11981    0.00000
   58     -0.63946    0.00000
   59     -0.36283    0.00000
   60      0.05320    0.00000
   61      1.01909    0.00000
   62      1.70333    0.00000
   63      2.72822    0.00000
   64      3.19754    0.00000
   65      3.34829    0.00000
   66      3.56768    0.00000
   67      3.93720    0.00000
   68      4.17364    0.00000
   69      4.49450    0.00000
   70      5.03423    0.00000
   71      5.34678    0.00000
   72      5.86251    0.00000
   73      6.13209    0.00000
   74      6.55758    0.00000
   75      6.92239    0.00000
   76      7.16513    0.00000
   77      7.31434    0.00000
   78      7.40463    0.00000
   79      7.90563    0.00000
   80      7.98603    0.00000
   81      8.49419    0.00000
   82      8.52944    0.00000
   83      8.86120    0.00000
   84      8.93610    0.00000
   85      8.99496    0.00000
   86      9.03329    0.00000
   87      9.21455    0.00000
   88      9.28851    0.00000
   89      9.41771    0.00000
   90      9.53613    0.00000
   91      9.57804    0.00000
   92      9.60898    0.00000
   93      9.86230    0.00000
   94      9.94204    0.00000
   95     10.07320    0.00000
   96     10.17200    0.00000
   97     10.38152    0.00000


Forces in eV/Ang:
  0 C     0.20992    0.06842   -0.00478
  1 C     0.38680    0.06863    0.17492
  2 C    -0.10638   -0.13353    0.17037
  3 C    -0.06336   -0.00728   -0.00461
  4 C     0.71285   -0.40271    0.11271
  5 C    -0.36153   -0.21109    0.78183
  6 C    -0.21382    0.09115    0.62169
  7 C     0.55299    0.95956    0.61727
  8 C    -1.05720    1.67031   -1.36311
  9 C    -1.02627    2.07204   -2.01355
 10 C    -0.65612    0.72781    1.04270
 11 C    -2.39777    3.16119   -1.74450
 12 C     0.13210    0.00315   -0.07781
 13 C    -1.95648    0.76720    0.30222
 14 C     0.11224   -0.00666    0.16213
 15 C    -1.03191   -1.66710   -0.47126
 16 C    -0.06668    0.10105   -0.14379
 17 C     0.15048   -0.11940    0.13974
 18 C     0.51577   -1.47332    0.47895
 19 C     0.42169   -0.05234   -0.17413
 20 C     0.46222   -0.81334    0.35544
 21 C     2.86128   -1.90315    1.24360
 22 C     0.95686   -0.58724    0.29060
 23 C     1.43800   -2.30824   -0.46991

System changes: positions 

Initializing position-dependent things.

Density initialized from wave functions
           .--------------------------------------.  
          /|                                      |  
         / |                                      |  
        /  |                                      |  
       /   |                                      |  
      /    |                                      |  
     /     |                                      |  
    /      |             C  C                     |  
   /       |           C       C                  |  
  /        |    C  C    C                         |  
 *         |        C     C   C                   |  
 |         |  C    C            C                 |  
 |         .-C--C-----C--C-----C------------------.  
 |        /                 C                    /   
 |       /     C C  C     C                     /    
 |      /              C                       /     
 |     /                                      /      
 |    /                                      /       
 |   /                                      /        
 |  /                                      /         
 | /                                      /          
 |/                                      /           
 *--------------------------------------*            

Positions:
   0 C     10.695365    5.969610    4.879226
   1 C      9.261709    3.887777    4.348669
   2 C      9.563515    5.140609    4.882486
   3 C     10.810530    7.106279    5.405211
   4 C      8.166466    3.271544    4.421977
   5 C      9.838299    7.815342    6.130551
   6 C      8.406370    5.752720    5.631527
   7 C      7.029106    3.716071    5.068280
   8 C      8.532271    7.095386    6.219225
   9 C      7.128322    5.069483    5.688736
  10 C      9.799803    9.067685    6.764942
  11 C      8.796037    9.620767    7.373655
  12 C      3.432033    6.368074    5.223313
  13 C      4.700698    4.130938    4.908387
  14 C      4.541199    5.493051    5.233152
  15 C      5.689611    3.364348    4.947027
  16 C      3.534128    7.627255    5.524789
  17 C      3.946586    8.870367    5.861498
  18 C      5.891332    5.985839    5.650948
  19 C      5.322979    8.640292    6.088128
  20 C      6.044668    7.360585    5.968554
  21 C      7.351746   10.431128    7.022866
  22 C      6.689842    9.275218    6.555940
  23 C      7.304861    7.918689    6.377021

Unit cell:
           periodic     x           y           z      points  spacing
  1. axis:    yes   16.000000    0.000000    0.000000    80     0.2000
  2. axis:    yes    0.000000   16.000000    0.000000    80     0.2000
  3. axis:    yes    0.000000    0.000000   10.000000    48     0.2083

Effective grid spacing dv^(1/3) = 0.2027

                     log10-error:    total        iterations:
           time      wfs    density  energy       fermi  poisson
iter:   1  11:33:50          +inf  -183.267778    4      5      
iter:   2  11:33:51         -1.72  -183.123797    4      2      
iter:   3  11:33:51         -2.10  -183.097798    3      2      
iter:   4  11:33:52         -2.20  -183.060314    3      2      
iter:   5  11:33:53         -2.55  -183.058441    2      2      
iter:   6  11:33:53         -2.67  -183.058345    3      2      
iter:   7  11:33:54         -2.88  -183.055880    3      2      
iter:   8  11:33:55         -3.19  -183.055802    2      1      
iter:   9  11:33:55         -3.35  -183.056145    2      1      
iter:  10  11:33:56         -3.41  -183.055986    2      1      
iter:  11  11:33:56         -3.61  -183.056178    2      1      
iter:  12  11:33:57         -3.69  -183.056149    2      1      
iter:  13  11:33:58         -3.87  -183.056043    2      1      
iter:  14  11:33:58         -4.01  -183.056133    2      1      

Converged after 14 iterations.

Dipole moment: (0.431064, -0.962896, -0.203087) |e|*Ang

Energy contributions relative to reference atoms: (reference = -24663.074771)

Kinetic:       +105.661123
Potential:     -116.084840
External:        +0.000000
XC:            -175.480834
Entropy (-ST):   -0.248823
Local:           +2.972830
--------------------------
Free energy:   -183.180544
Extrapolated:  -183.056133

Fermi level: -4.52643

 Band  Eigenvalues  Occupancy
    0    -22.96611    2.00000
    1    -22.26961    2.00000
    2    -21.90950    2.00000
    3    -20.98670    2.00000
    4    -20.57577    2.00000
    5    -20.01850    2.00000
    6    -19.59804    2.00000
    7    -19.22978    2.00000
    8    -18.51564    2.00000
    9    -18.15104    2.00000
   10    -17.90695    2.00000
   11    -16.98434    2.00000
   12    -16.51339    2.00000
   13    -15.85853    2.00000
   14    -15.62665    2.00000
   15    -15.16976    2.00000
   16    -13.87443    2.00000
   17    -13.47966    2.00000
   18    -13.26672    2.00000
   19    -12.71243    2.00000
   20    -12.53173    2.00000
   21    -12.14916    2.00000
   22    -11.90039    2.00000
   23    -11.44150    2.00000
   24    -11.27666    2.00000
   25    -10.87364    2.00000
   26    -10.68848    2.00000
   27    -10.25689    2.00000
   28     -9.84045    2.00000
   29     -9.72406    2.00000
   30     -9.56421    2.00000
   31     -9.32890    2.00000
   32     -8.78540    2.00000
   33     -8.58770    2.00000
   34     -8.40407    2.00000
   35     -7.94544    2.00000
   36     -7.23421    2.00000
   37     -7.05180    2.00000
   38     -6.92228    2.00000
   39     -6.86550    2.00000
   40     -6.74174    2.00000
   41     -6.54395    2.00000
   42     -6.44371    2.00000
   43     -6.35866    2.00000
   44     -6.20203    2.00000
   45     -5.41126    1.99971
   46     -4.73950    1.78771
   47     -4.72513    1.75885
   48     -4.40377    0.45356
   49     -3.58659    0.00017
   50     -3.18162    0.00000
   51     -2.96127    0.00000
   52     -2.93754    0.00000
   53     -2.68862    0.00000
   54     -2.25116    0.00000
   55     -1.97401    0.00000
   56     -1.50690    0.00000
   57     -1.16615    0.00000
   58     -0.57966    0.00000
   59     -0.27957    0.00000
   60      0.10841    0.00000
   61      1.07452    0.00000
   62      1.77247    0.00000
   63      2.72934    0.00000
   64      3.19485    0.00000
   65      3.48912    0.00000
   66      3.58646    0.00000
   67      4.08336    0.00000
   68      4.15921    0.00000
   69      4.58666    0.00000
   70      5.14096    0.00000
   71      5.33886    0.00000
   72      5.96386    0.00000
   73      6.21732    0.00000
   74      6.60055    0.00000
   75      6.89328    0.00000
   76      7.14482    0.00000
   77      7.30419    0.00000
   78      7.36492    0.00000
   79      7.91745    0.00000
   80      8.00353    0.00000
   81      8.43747    0.00000
   82      8.56384    0.00000
   83      8.88982    0.00000
   84      8.93912    0.00000
   85      9.01569    0.00000
   86      9.06060    0.00000
   87      9.23131    0.00000
   88      9.29769    0.00000
   89      9.43052    0.00000
   90      9.53958    0.00000
   91      9.56090    0.00000
   92      9.61518    0.00000
   93      9.88224    0.00000
   94      9.97586    0.00000
   95     10.10894    0.00000
   96     10.19774    0.00000
   97     10.41752    0.00000


Forces in eV/Ang:
  0 C     0.10064    0.02293    0.00499
  1 C     0.35048    0.04890    0.17123
  2 C    -0.07024    0.04094    0.28901
  3 C    -0.16115    0.12609    0.14961
  4 C     0.46371   -0.32234    0.28163
  5 C    -0.23407    0.19243    0.82876
  6 C    -0.09907    0.28465    0.38218
  7 C    -0.51621    0.53179    0.25817
  8 C    -0.55600    0.96064   -1.31780
  9 C    -0.67995    1.52328   -1.85082
 10 C    -1.08948    0.79761    1.20580
 11 C    -2.09233    2.66059   -2.20880
 12 C     0.12465    0.14944   -0.04364
 13 C    -0.66924   -0.33955    0.25152
 14 C    -0.02393    0.11910    0.22245
 15 C    -0.97632   -0.60211   -0.36848
 16 C    -0.03514   -0.00851   -0.14957
 17 C     0.26968   -0.06515    0.14039
 18 C     0.23614   -0.87465    0.42210
 19 C     0.51824   -0.20170   -0.05894
 20 C     0.41622   -0.81172    0.32993
 21 C     2.95398   -2.00654    1.17253
 22 C     1.04532   -0.85034    0.29783
 23 C     0.65460   -1.41463   -0.43273

System changes: positions 

Initializing position-dependent things.

Density initialized from wave functions
           .--------------------------------------.  
          /|                                      |  
         / |                                      |  
        /  |                                      |  
       /   |                                      |  
      /    |                                      |  
     /     |                                      |  
    /      |             C  C                     |  
   /       |           C       C                  |  
  /        |    C  C    C                         |  
 *         |        C     C   C                   |  
 |         |  C    C            C                 |  
 |         .-C--C-----C--C-----C------------------.  
 |        /                 C                    /   
 |       /     C C  C     C                     /    
 |      /              C                       /     
 |     /                                      /      
 |    /                                      /       
 |   /                                      /        
 |  /                                      /         
 | /                                      /          
 |/                                      /           
 *--------------------------------------*            

Positions:
   0 C     10.696431    5.969615    4.879149
   1 C      9.265245    3.888330    4.350292
   2 C      9.562828    5.140806    4.885113
   3 C     10.809115    7.107601    5.406573
   4 C      8.170661    3.268344    4.424731
   5 C      9.835839    7.816624    6.138497
   6 C      8.405264    5.755006    5.635564
   7 C      7.029491    3.722409    5.071265
   8 C      8.526133    7.105977    6.206471
   9 C      7.121040    5.085228    5.670629
  10 C      9.791071    9.074395    6.775479
  11 C      8.774305    9.647900    7.353868
  12 C      3.433170    6.369464    5.222858
  13 C      4.693903    4.127983    4.910968
  14 C      4.541207    5.493901    5.235174
  15 C      5.675389    3.357608    4.942997
  16 C      3.533696    7.627268    5.523318
  17 C      3.949054    8.869641    5.862868
  18 C      5.894228    5.976276    5.655156
  19 C      5.327721    8.638623    6.087356
  20 C      6.048699    7.352828    5.971782
  21 C      7.380061   10.411851    7.034231
  22 C      6.699737    9.267666    6.558856
  23 C      7.312580    7.903396    6.372768

Unit cell:
           periodic     x           y           z      points  spacing
  1. axis:    yes   16.000000    0.000000    0.000000    80     0.2000
  2. axis:    yes    0.000000   16.000000    0.000000    80     0.2000
  3. axis:    yes    0.000000    0.000000   10.000000    48     0.2083

Effective grid spacing dv^(1/3) = 0.2027

                     log10-error:    total        iterations:
           time      wfs    density  energy       fermi  poisson
iter:   1  11:34:00          +inf  -183.787790    4      5      
iter:   2  11:34:01         -1.72  -183.610703    4      2      
iter:   3  11:34:02         -2.17  -183.591773    3      2      
iter:   4  11:34:02         -2.27  -183.564405    3      2      
iter:   5  11:34:03         -2.63  -183.562512    3      2      
iter:   6  11:34:04         -2.72  -183.562026    3      2      
iter:   7  11:34:04         -2.96  -183.560027    3      2      
iter:   8  11:34:05         -3.22  -183.560159    3      1      
iter:   9  11:34:05         -3.46  -183.560310    2      1      
iter:  10  11:34:06         -3.54  -183.560070    2      1      
iter:  11  11:34:07         -3.72  -183.560547    2      1      
iter:  12  11:34:07         -3.68  -183.560567    2      1      
iter:  13  11:34:08         -3.92  -183.560324    2      1      
iter:  14  11:34:08         -3.95  -183.560256    2      1      
iter:  15  11:34:09         -4.26  -183.560479    2      1      

Converged after 15 iterations.

Dipole moment: (0.455251, -0.914940, -0.167622) |e|*Ang

Energy contributions relative to reference atoms: (reference = -24663.074771)

Kinetic:       +104.488070
Potential:     -115.208813
External:        +0.000000
XC:            -175.701528
Entropy (-ST):   -0.247698
Local:           +2.985641
--------------------------
Free energy:   -183.684328
Extrapolated:  -183.560479

Fermi level: -4.49509

 Band  Eigenvalues  Occupancy
    0    -22.97284    2.00000
    1    -22.22442    2.00000
    2    -21.89014    2.00000
    3    -20.95519    2.00000
    4    -20.56366    2.00000
    5    -20.04193    2.00000
    6    -19.57902    2.00000
    7    -19.22142    2.00000
    8    -18.53688    2.00000
    9    -18.26863    2.00000
   10    -17.88644    2.00000
   11    -16.94892    2.00000
   12    -16.56145    2.00000
   13    -15.84588    2.00000
   14    -15.60012    2.00000
   15    -15.21231    2.00000
   16    -13.86732    2.00000
   17    -13.47294    2.00000
   18    -13.26390    2.00000
   19    -12.69595    2.00000
   20    -12.56278    2.00000
   21    -12.12003    2.00000
   22    -11.86196    2.00000
   23    -11.47322    2.00000
   24    -11.26516    2.00000
   25    -10.91576    2.00000
   26    -10.70882    2.00000
   27    -10.31379    2.00000
   28     -9.82631    2.00000
   29     -9.71325    2.00000
   30     -9.53255    2.00000
   31     -9.44517    2.00000
   32     -8.82824    2.00000
   33     -8.58356    2.00000
   34     -8.39316    2.00000
   35     -7.97085    2.00000
   36     -7.21569    2.00000
   37     -7.05316    2.00000
   38     -6.92646    2.00000
   39     -6.86968    2.00000
   40     -6.73613    2.00000
   41     -6.55764    2.00000
   42     -6.46207    2.00000
   43     -6.40310    2.00000
   44     -6.24977    2.00000
   45     -5.38887    1.99974
   46     -4.70961    1.79043
   47     -4.69415    1.75961
   48     -4.37141    0.44998
   49     -3.59239    0.00024
   50     -3.18898    0.00000
   51     -2.96732    0.00000
   52     -2.91866    0.00000
   53     -2.68297    0.00000
   54     -2.19709    0.00000
   55     -1.95624    0.00000
   56     -1.53393    0.00000
   57     -1.17910    0.00000
   58     -0.51424    0.00000
   59     -0.23681    0.00000
   60      0.21788    0.00000
   61      1.16115    0.00000
   62      1.86007    0.00000
   63      2.74243    0.00000
   64      3.19163    0.00000
   65      3.55320    0.00000
   66      3.65705    0.00000
   67      4.14202    0.00000
   68      4.18931    0.00000
   69      4.68863    0.00000
   70      5.25860    0.00000
   71      5.34418    0.00000
   72      6.04228    0.00000
   73      6.31183    0.00000
   74      6.68076    0.00000
   75      6.88637    0.00000
   76      7.13040    0.00000
   77      7.26233    0.00000
   78      7.32847    0.00000
   79      7.91242    0.00000
   80      8.02783    0.00000
   81      8.39589    0.00000
   82      8.60400    0.00000
   83      8.90730    0.00000
   84      8.95821    0.00000
   85      9.03883    0.00000
   86      9.08321    0.00000
   87      9.25376    0.00000
   88      9.33149    0.00000
   89      9.44447    0.00000
   90      9.52737    0.00000
   91      9.58013    0.00000
   92      9.63730    0.00000
   93      9.88771    0.00000
   94      9.99413    0.00000
   95     10.13731    0.00000
   96     10.21198    0.00000
   97     10.43335    0.00000


Forces in eV/Ang:
  0 C     0.07853    0.16595    0.07497
  1 C     0.22587    0.00867    0.20019
  2 C    -0.06531    0.08447    0.34040
  3 C    -0.23560    0.12168    0.21665
  4 C     0.24062   -0.17515    0.42000
  5 C    -0.17542    0.45077    0.82960
  6 C    -0.04259    0.33839    0.14571
  7 C    -0.95002    0.25200   -0.03478
  8 C    -0.15816    0.48232   -1.18791
  9 C    -0.42470    1.03245   -1.63119
 10 C    -1.14024    0.74815    1.13722
 11 C    -2.00855    2.33261   -2.33994
 12 C     0.12296    0.08209   -0.05099
 13 C    -0.87557   -0.03588    0.26751
 14 C    -0.05873   -0.03409    0.20988
 15 C    -0.01847   -0.59727   -0.26844
 16 C     0.03209    0.08870   -0.09988
 17 C     0.35289   -0.06473    0.12342
 18 C    -0.02761   -0.49885    0.31822
 19 C     0.49312   -0.32450    0.03578
 20 C     0.30222   -0.68868    0.29435
 21 C     3.02313   -1.99260    1.14026
 22 C     1.04169   -0.92711    0.31858
 23 C     0.20799   -0.85920   -0.43168

System changes: positions 

Initializing position-dependent things.

Density initialized from wave functions
           .--------------------------------------.  
          /|                                      |  
         / |                                      |  
        /  |                                      |  
       /   |                                      |  
      /    |                                      |  
     /     |                                      |  
    /      |              C C                     |  
   /       |           C       C                  |  
  /        |    C  C    C                         |  
 *         |        C     C   C                   |  
 |         |  C    C            C                 |  
 |         .-C--C-----C--C-----C------------------.  
 |        /                 C                    /   
 |       /     C C  C     C                     /    
 |      /              C                       /     
 |     /                                      /      
 |    /                                      /       
 |   /                                      /        
 |  /                                      /         
 | /                                      /          
 |/                                      /           
 *--------------------------------------*            

Positions:
   0 C     10.697345    5.970895    4.879690
   1 C      9.267716    3.888546    4.352236
   2 C      9.562177    5.141351    4.888253
   3 C     10.806970    7.109062    5.408661
   4 C      8.172306    3.266532    4.429110
   5 C      9.833782    7.820269    6.146662
   6 C      8.404621    5.757575    5.637484
   7 C      7.029843    3.726954    5.071594
   8 C      8.523448    7.112830    6.194671
   9 C      7.115679    5.097067    5.654106
  10 C      9.783003    9.079918    6.784679
  11 C      8.751509    9.673563    7.333332
  12 C      3.434260    6.370201    5.222295
  13 C      4.684941    4.127972    4.913915
  14 C      4.541016    5.492955    5.237037
  15 C      5.666375    3.350278    4.939496
  16 C      3.533881    7.628338    5.522294
  17 C      3.952388    8.868829    5.864118
  18 C      5.894916    5.969551    5.658509
  19 C      5.332146    8.635817    6.087407
  20 C      6.051658    7.346190    5.974766
  21 C      7.409809   10.392179    7.045621
  22 C      6.709751    9.259580    6.562115
  23 C      7.316850    7.892282    6.368342

Unit cell:
           periodic     x           y           z      points  spacing
  1. axis:    yes   16.000000    0.000000    0.000000    80     0.2000
  2. axis:    yes    0.000000   16.000000    0.000000    80     0.2000
  3. axis:    yes    0.000000    0.000000   10.000000    48     0.2083

Effective grid spacing dv^(1/3) = 0.2027

                     log10-error:    total        iterations:
           time      wfs    density  energy       fermi  poisson
iter:   1  11:34:11          +inf  -184.229146    33     5      
iter:   2  11:34:12         -1.74  -184.039636    4      2      
iter:   3  11:34:13         -2.21  -184.022316    3      2      
iter:   4  11:34:13         -2.32  -184.000619    3      2      
iter:   5  11:34:14         -2.65  -183.998109    3      2      
iter:   6  11:34:14         -2.74  -183.994885    3      2      
iter:   7  11:34:15         -2.99  -183.997746    3      2      
iter:   8  11:34:16         -3.13  -183.996626    3      1      
iter:   9  11:34:16         -3.33  -183.995768    2      1      
iter:  10  11:34:17         -3.46  -183.995276    2      1      
iter:  11  11:34:18         -3.65  -183.994823    3      1      
iter:  12  11:34:18         -3.64  -183.995164    2      1      
iter:  13  11:34:19         -3.88  -183.995318    2      1      
iter:  14  11:34:19         -3.93  -183.995284    2      1      
iter:  15  11:34:20         -4.06  -183.995576    2      1      

Converged after 15 iterations.

Dipole moment: (0.464902, -0.864609, -0.133374) |e|*Ang

Energy contributions relative to reference atoms: (reference = -24663.074771)

Kinetic:       +103.995321
Potential:     -114.830884
External:        +0.000000
XC:            -176.030988
Entropy (-ST):   -0.237727
Local:           +2.989838
--------------------------
Free energy:   -184.114440
Extrapolated:  -183.995576

Fermi level: -4.46564

 Band  Eigenvalues  Occupancy
    0    -22.98864    2.00000
    1    -22.20432    2.00000
    2    -21.87614    2.00000
    3    -20.93502    2.00000
    4    -20.55452    2.00000
    5    -20.08051    2.00000
    6    -19.55442    2.00000
    7    -19.23521    2.00000
    8    -18.58737    2.00000
    9    -18.34545    2.00000
   10    -17.86752    2.00000
   11    -16.92010    2.00000
   12    -16.60827    2.00000
   13    -15.83227    2.00000
   14    -15.56999    2.00000
   15    -15.25216    2.00000
   16    -13.87201    2.00000
   17    -13.47467    2.00000
   18    -13.26682    2.00000
   19    -12.68454    2.00000
   20    -12.61811    2.00000
   21    -12.09653    2.00000
   22    -11.83597    2.00000
   23    -11.50762    2.00000
   24    -11.25312    2.00000
   25    -10.97447    2.00000
   26    -10.73538    2.00000
   27    -10.35862    2.00000
   28     -9.81655    2.00000
   29     -9.71219    2.00000
   30     -9.57257    2.00000
   31     -9.49634    2.00000
   32     -8.86053    2.00000
   33     -8.57511    2.00000
   34     -8.38162    2.00000
   35     -8.00969    2.00000
   36     -7.19675    2.00000
   37     -7.06217    2.00000
   38     -6.93857    2.00000
   39     -6.86815    2.00000
   40     -6.72492    2.00000
   41     -6.56214    2.00000
   42     -6.47118    2.00000
   43     -6.43240    2.00000
   44     -6.27152    2.00000
   45     -5.36597    1.99975
   46     -4.68363    1.79687
   47     -4.67626    1.78302
   48     -4.33315    0.42004
   49     -3.58900    0.00031
   50     -3.17458    0.00000
   51     -2.99415    0.00000
   52     -2.89436    0.00000
   53     -2.71126    0.00000
   54     -2.18042    0.00000
   55     -1.91953    0.00000
   56     -1.55780    0.00000
   57     -1.18628    0.00000
   58     -0.47466    0.00000
   59     -0.21907    0.00000
   60      0.33119    0.00000
   61      1.24317    0.00000
   62      1.93611    0.00000
   63      2.77074    0.00000
   64      3.19716    0.00000
   65      3.56939    0.00000
   66      3.72645    0.00000
   67      4.13399    0.00000
   68      4.25066    0.00000
   69      4.75191    0.00000
   70      5.29254    0.00000
   71      5.44434    0.00000
   72      6.08556    0.00000
   73      6.39787    0.00000
   74      6.72288    0.00000
   75      6.96841    0.00000
   76      7.13885    0.00000
   77      7.23231    0.00000
   78      7.40049    0.00000
   79      7.93105    0.00000
   80      8.04882    0.00000
   81      8.36032    0.00000
   82      8.64364    0.00000
   83      8.92877    0.00000
   84      8.97865    0.00000
   85      9.06586    0.00000
   86      9.10677    0.00000
   87      9.27282    0.00000
   88      9.38046    0.00000
   89      9.45666    0.00000
   90      9.52565    0.00000
   91      9.61557    0.00000
   92      9.66110    0.00000
   93      9.88606    0.00000
   94     10.01181    0.00000
   95     10.15933    0.00000
   96     10.22680    0.00000
   97     10.42886    0.00000


Forces in eV/Ang:
  0 C     0.06686    0.23631    0.10441
  1 C     0.10110   -0.01381    0.23094
  2 C    -0.04699    0.08288    0.35002
  3 C    -0.27276    0.15886    0.27477
  4 C     0.24753   -0.08558    0.44151
  5 C    -0.16220    0.59949    0.81213
  6 C    -0.00515    0.31599   -0.03450
  7 C    -1.30656    0.08592   -0.19392
  8 C     0.06724    0.22432   -1.03657
  9 C    -0.21301    0.69540   -1.44958
 10 C    -1.20153    0.81672    1.16640
 11 C    -1.61529    1.80387   -2.45420
 12 C     0.10663    0.12932   -0.03424
 13 C    -0.54047   -0.27823    0.25933
 14 C    -0.13851   -0.00575    0.22511
 15 C     0.17365   -0.30349   -0.24009
 16 C     0.07386    0.02948   -0.09492
 17 C     0.41393   -0.01998    0.11614
 18 C    -0.18182   -0.24617    0.23002
 19 C     0.44298   -0.37222    0.13468
 20 C     0.16294   -0.56862    0.22240
 21 C     2.73547   -1.91060    0.95856
 22 C     0.96845   -0.94681    0.32302
 23 C    -0.01997   -0.47190   -0.41618

System changes: positions 

Initializing position-dependent things.

Density initialized from wave functions
           .--------------------------------------.  
          /|                                      |  
         / |                                      |  
        /  |                                      |  
       /   |                                      |  
      /    |                                      |  
     /     |                                      |  
    /      |              C C                     |  
   /       |           C       C                  |  
  /        |    C  C    C                         |  
 *         |        C     C   C                   |  
 |         |  C    C            C                 |  
 |         .-C-C------C--C-----C------------------.  
 |        /                 C                    /   
 |       /     C C  C     C                     /    
 |      /              C                       /     
 |     /                                      /      
 |    /                                      /       
 |   /                                      /        
 |  /                                      /         
 | /                                      /          
 |/                                      /           
 *--------------------------------------*            

Positions:
   0 C     10.698419    5.973219    4.880613
   1 C      9.269026    3.888565    4.354876
   2 C      9.561629    5.141642    4.891763
   3 C     10.804215    7.111117    5.411590
   4 C      8.174837    3.265412    4.434083
   5 C      9.831327    7.825631    6.155756
   6 C      8.404163    5.759825    5.637812
   7 C      7.028071    3.730953    5.070633
   8 C      8.522268    7.118816    6.182983
   9 C      7.111599    5.107445    5.637105
  10 C      9.773780    9.087042    6.795368
  11 C      8.729997    9.697000    7.309085
  12 C      3.435287    6.371589    5.221838
  13 C      4.677798    4.125723    4.917271
  14 C      4.539936    5.492220    5.239311
  15 C      5.656688    3.344385    4.935528
  16 C      3.534546    7.628789    5.521130
  17 C      3.956812    8.868434    5.865478
  18 C      5.894319    5.963936    5.661351
  19 C      5.336397    8.632298    6.088561
  20 C      6.053305    7.340097    5.977277
  21 C      7.439818   10.370793    7.056334
  22 C      6.720117    9.250531    6.565909
  23 C      7.320358    7.882815    6.363395

Unit cell:
           periodic     x           y           z      points  spacing
  1. axis:    yes   16.000000    0.000000    0.000000    80     0.2000
  2. axis:    yes    0.000000   16.000000    0.000000    80     0.2000
  3. axis:    yes    0.000000    0.000000   10.000000    48     0.2083

Effective grid spacing dv^(1/3) = 0.2027

                     log10-error:    total        iterations:
           time      wfs    density  energy       fermi  poisson
iter:   1  11:34:22          +inf  -184.667422    32     5      
iter:   2  11:34:23         -1.71  -184.427742    4      2      
iter:   3  11:34:23         -2.19  -184.406591    3      2      
iter:   4  11:34:24         -2.33  -184.387189    3      2      
iter:   5  11:34:25         -2.61  -184.383761    3      2      
iter:   6  11:34:25         -2.75  -184.378872    3      2      
iter:   7  11:34:26         -2.96  -184.380232    3      1      
iter:   8  11:34:27         -3.07  -184.381777    3      2      
iter:   9  11:34:27         -3.30  -184.381097    2      1      
iter:  10  11:34:28         -3.40  -184.380246    2      1      
iter:  11  11:34:28         -3.74  -184.381085    2      1      
iter:  12  11:34:29         -3.87  -184.380453    2      1      
iter:  13  11:34:30         -4.06  -184.380744    2      1      

Converged after 13 iterations.

Dipole moment: (0.462991, -0.825675, -0.107550) |e|*Ang

Energy contributions relative to reference atoms: (reference = -24663.074771)

Kinetic:       +105.230302
Potential:     -115.821979
External:        +0.000000
XC:            -176.678859
Entropy (-ST):   -0.221888
Local:           +3.000736
--------------------------
Free energy:   -184.491687
Extrapolated:  -184.380744

Fermi level: -4.43473

 Band  Eigenvalues  Occupancy
    0    -23.00911    2.00000
    1    -22.19642    2.00000
    2    -21.86886    2.00000
    3    -20.92116    2.00000
    4    -20.55709    2.00000
    5    -20.13856    2.00000
    6    -19.53654    2.00000
    7    -19.27027    2.00000
    8    -18.66003    2.00000
    9    -18.39477    2.00000
   10    -17.85799    2.00000
   11    -16.90194    2.00000
   12    -16.64992    2.00000
   13    -15.82336    2.00000
   14    -15.55277    2.00000
   15    -15.29356    2.00000
   16    -13.87789    2.00000
   17    -13.48484    2.00000
   18    -13.27420    2.00000
   19    -12.68802    2.00000
   20    -12.67013    2.00000
   21    -12.07832    2.00000
   22    -11.82074    2.00000
   23    -11.54372    2.00000
   24    -11.24122    2.00000
   25    -11.03270    2.00000
   26    -10.76174    2.00000
   27    -10.39211    2.00000
   28     -9.81394    2.00000
   29     -9.72082    2.00000
   30     -9.64761    2.00000
   31     -9.49480    2.00000
   32     -8.87834    2.00000
   33     -8.56717    2.00000
   34     -8.37963    2.00000
   35     -8.06098    2.00000
   36     -7.18335    2.00000
   37     -7.08766    2.00000
   38     -6.97036    2.00000
   39     -6.86681    2.00000
   40     -6.71618    2.00000
   41     -6.57270    2.00000
   42     -6.48539    2.00000
   43     -6.45864    2.00000
   44     -6.29107    2.00000
   45     -5.35078    1.99979
   46     -4.66613    1.82006
   47     -4.65661    1.80385
   48     -4.28840    0.37593
   49     -3.57386    0.00036
   50     -3.14897    0.00001
   51     -3.02102    0.00000
   52     -2.86515    0.00000
   53     -2.71881    0.00000
   54     -2.17353    0.00000
   55     -1.88004    0.00000
   56     -1.54542    0.00000
   57     -1.17496    0.00000
   58     -0.43975    0.00000
   59     -0.20563    0.00000
   60      0.46488    0.00000
   61      1.35722    0.00000
   62      2.00384    0.00000
   63      2.81216    0.00000
   64      3.21571    0.00000
   65      3.58185    0.00000
   66      3.77758    0.00000
   67      4.12410    0.00000
   68      4.28508    0.00000
   69      4.78877    0.00000
   70      5.28025    0.00000
   71      5.56263    0.00000
   72      6.10975    0.00000
   73      6.46500    0.00000
   74      6.70677    0.00000
   75      7.03164    0.00000
   76      7.15961    0.00000
   77      7.22577    0.00000
   78      7.56558    0.00000
   79      7.98425    0.00000
   80      8.05242    0.00000
   81      8.34743    0.00000
   82      8.68594    0.00000
   83      8.94586    0.00000
   84      8.99516    0.00000
   85      9.09559    0.00000
   86      9.13288    0.00000
   87      9.28160    0.00000
   88      9.43264    0.00000
   89      9.46682    0.00000
   90      9.52750    0.00000
   91      9.66414    0.00000
   92      9.71801    0.00000
   93      9.87280    0.00000
   94     10.02946    0.00000
   95     10.17741    0.00000
   96     10.23625    0.00000
   97     10.42577    0.00000


Forces in eV/Ang:
  0 C     0.03513    0.27065    0.13242
  1 C     0.12819    0.03831    0.25194
  2 C    -0.00256    0.09828    0.35303
  3 C    -0.29901    0.21771    0.34366
  4 C     0.06382   -0.07779    0.48048
  5 C    -0.14542    0.75061    0.76669
  6 C     0.03110    0.29948   -0.19190
  7 C    -1.48769   -0.04587   -0.34924
  8 C     0.21040    0.00091   -0.88573
  9 C    -0.08528    0.39070   -1.26477
 10 C    -0.99164    0.67430    0.99653
 11 C    -1.08077    1.29617   -2.20563
 12 C     0.09392    0.09682   -0.03467
 13 C    -0.50472   -0.24282    0.25014
 14 C    -0.18837   -0.05213    0.21850
 15 C     0.52046   -0.17537   -0.17870
 16 C     0.13351    0.09495   -0.05610
 17 C     0.40997   -0.01846    0.09362
 18 C    -0.29985   -0.05417    0.14514
 19 C     0.40851   -0.40248    0.22341
 20 C     0.08324   -0.49027    0.17239
 21 C     2.15638   -1.55889    0.77371
 22 C     0.86733   -0.95341    0.30356
 23 C    -0.17548   -0.16685   -0.41354

System changes: positions 

Initializing position-dependent things.

Density initialized from wave functions
           .--------------------------------------.  
          /|                                      |  
         / |                                      |  
        /  |                                      |  
       /   |                                      |  
      /    |                                      |  
     /     |                                      |  
    /      |              C C                     |  
   /       |           C      C                   |  
  /        |    C  C    C                         |  
 *         |        C     C   C                   |  
 |         |  C    C            C                 |  
 |         .-C-C------C--C-----C------------------.  
 |        /                 C                    /   
 |       /     C C  C     C                     /    
 |      /              C                       /     
 |     /                                      /      
 |    /                                      /       
 |   /                                      /        
 |  /                                      /         
 | /                                      /          
 |/                                      /           
 *--------------------------------------*            

Positions:
   0 C     10.699309    5.976417    4.882101
   1 C      9.271553    3.889557    4.358505
   2 C      9.561635    5.142221    4.896215
   3 C     10.800423    7.114687    5.416299
   4 C      8.175307    3.263741    4.440863
   5 C      9.828364    7.834394    6.166658
   6 C      8.404042    5.762390    5.636252
   7 C      7.024062    3.734558    5.067502
   8 C      8.522197    7.123865    6.170105
   9 C      7.107790    5.116914    5.617819
  10 C      9.765663    9.093722    6.806250
  11 C      8.710613    9.719866    7.282601
  12 C      3.436416    6.372862    5.221233
  13 C      4.669152    4.123260    4.921397
  14 C      4.537901    5.490702    5.242106
  15 C      5.648178    3.338583    4.931275
  16 C      3.536219    7.630397    5.520202
  17 C      3.962184    8.867882    5.866879
  18 C      5.892234    5.958998    5.663873
  19 C      5.341384    8.627552    6.091214
  20 C      6.054484    7.333227    5.979825
  21 C      7.468913   10.349144    7.067296
  22 C      6.731818    9.238989    6.570397
  23 C      7.323264    7.874355    6.357088

Unit cell:
           periodic     x           y           z      points  spacing
  1. axis:    yes   16.000000    0.000000    0.000000    80     0.2000
  2. axis:    yes    0.000000   16.000000    0.000000    80     0.2000
  3. axis:    yes    0.000000    0.000000   10.000000    48     0.2083

Effective grid spacing dv^(1/3) = 0.2027

                     log10-error:    total        iterations:
           time      wfs    density  energy       fermi  poisson
iter:   1  11:34:32          +inf  -184.934366    4      5      
iter:   2  11:34:32         -1.75  -184.734018    3      2      
iter:   3  11:34:33         -2.19  -184.710374    3      2      
iter:   4  11:34:34         -2.36  -184.695497    3      2      
iter:   5  11:34:34         -2.59  -184.692268    3      2      
iter:   6  11:34:35         -2.74  -184.687631    3      2      
iter:   7  11:34:36         -2.94  -184.687693    2      1      
iter:   8  11:34:36         -3.01  -184.690060    2      2      
iter:   9  11:34:37         -3.35  -184.689530    2      1      
iter:  10  11:34:37         -3.45  -184.688911    2      1      
iter:  11  11:34:38         -3.79  -184.689476    2      1      
iter:  12  11:34:39         -3.82  -184.690202    2      1      
iter:  13  11:34:39         -3.89  -184.688974    2      1      
iter:  14  11:34:40         -3.82  -184.689625    2      1      
iter:  15  11:34:40         -4.27  -184.689625    2      1      

Converged after 15 iterations.

Dipole moment: (0.447817, -0.788634, -0.086386) |e|*Ang

Energy contributions relative to reference atoms: (reference = -24663.074771)

Kinetic:       +107.379824
Potential:     -117.520022
External:        +0.000000
XC:            -177.454573
Entropy (-ST):   -0.202420
Local:           +3.006356
--------------------------
Free energy:   -184.790835
Extrapolated:  -184.689625

Fermi level: -4.40732

 Band  Eigenvalues  Occupancy
    0    -23.04193    2.00000
    1    -22.20345    2.00000
    2    -21.86926    2.00000
    3    -20.91121    2.00000
    4    -20.57922    2.00000
    5    -20.21697    2.00000
    6    -19.52036    2.00000
    7    -19.33004    2.00000
    8    -18.72618    2.00000
    9    -18.42777    2.00000
   10    -17.85380    2.00000
   11    -16.89104    2.00000
   12    -16.69035    2.00000
   13    -15.81752    2.00000
   14    -15.53336    2.00000
   15    -15.34503    2.00000
   16    -13.88901    2.00000
   17    -13.51601    2.00000
   18    -13.29162    2.00000
   19    -12.74929    2.00000
   20    -12.67420    2.00000
   21    -12.06252    2.00000
   22    -11.82151    2.00000
   23    -11.57888    2.00000
   24    -11.23548    2.00000
   25    -11.08110    2.00000
   26    -10.79355    2.00000
   27    -10.42361    2.00000
   28     -9.82554    2.00000
   29     -9.74492    2.00000
   30     -9.70456    2.00000
   31     -9.49966    2.00000
   32     -8.89725    2.00000
   33     -8.56145    2.00000
   34     -8.39225    2.00000
   35     -8.11985    2.00000
   36     -7.17564    2.00000
   37     -7.12339    2.00000
   38     -7.01579    2.00000
   39     -6.84945    2.00000
   40     -6.70256    2.00000
   41     -6.57232    2.00000
   42     -6.49954    2.00000
   43     -6.48022    2.00000
   44     -6.30425    2.00000
   45     -5.34033    1.99982
   46     -4.66286    1.85587
   47     -4.63725    1.81765
   48     -4.24377    0.32618
   49     -3.57028    0.00046
   50     -3.12005    0.00001
   51     -3.05467    0.00000
   52     -2.85278    0.00000
   53     -2.72521    0.00000
   54     -2.17846    0.00000
   55     -1.83603    0.00000
   56     -1.51305    0.00000
   57     -1.15636    0.00000
   58     -0.42809    0.00000
   59     -0.18657    0.00000
   60      0.58426    0.00000
   61      1.50732    0.00000
   62      2.06057    0.00000
   63      2.86072    0.00000
   64      3.24661    0.00000
   65      3.58812    0.00000
   66      3.80498    0.00000
   67      4.11369    0.00000
   68      4.31064    0.00000
   69      4.81424    0.00000
   70      5.25165    0.00000
   71      5.64330    0.00000
   72      6.11678    0.00000
   73      6.50866    0.00000
   74      6.68965    0.00000
   75      7.02330    0.00000
   76      7.18629    0.00000
   77      7.25764    0.00000
   78      7.71238    0.00000
   79      8.04294    0.00000
   80      8.09880    0.00000
   81      8.35214    0.00000
   82      8.73732    0.00000
   83      8.95771    0.00000
   84      9.01304    0.00000
   85      9.11977    0.00000
   86      9.17062    0.00000
   87      9.28555    0.00000
   88      9.46319    0.00000
   89      9.47983    0.00000
   90      9.53224    0.00000
   91      9.69078    0.00000
   92      9.84770    0.00000
   93      9.85062    0.00000
   94     10.05529    0.00000
   95     10.19442    0.00000
   96     10.24216    0.00000
   97     10.42444    0.00000


Forces in eV/Ang:
  0 C     0.03607    0.38972    0.20423
  1 C    -0.08608   -0.07973    0.28113
  2 C     0.04355    0.11767    0.34413
  3 C    -0.31312    0.19008    0.37261
  4 C     0.18746    0.04174    0.47085
  5 C    -0.14962    0.75514    0.61908
  6 C     0.02592    0.26271   -0.33002
  7 C    -1.55860   -0.12352   -0.45853
  8 C     0.29252   -0.13939   -0.69698
  9 C     0.02457    0.16776   -1.04033
 10 C    -0.70609    0.60626    0.82451
 11 C    -0.03047    0.60674   -1.78405
 12 C     0.05559    0.13038   -0.02133
 13 C    -0.34367   -0.32441    0.23116
 14 C    -0.24175   -0.06388    0.21121
 15 C     0.63464    0.00260   -0.11593
 16 C     0.17394    0.05180   -0.04552
 17 C     0.41902    0.02126    0.08975
 18 C    -0.35887    0.07273    0.04898
 19 C     0.37108   -0.41927    0.30324
 20 C     0.00358   -0.40364    0.14321
 21 C     0.97282   -0.99910    0.47126
 22 C     0.72684   -0.86819    0.23906
 23 C    -0.23634    0.03887   -0.41000

System changes: positions 

Initializing position-dependent things.

Density initialized from wave functions
           .--------------------------------------.  
          /|                                      |  
         / |                                      |  
        /  |                                      |  
       /   |                                      |  
      /    |                                      |  
     /     |                                      |  
    /      |              C C                     |  
   /       |           C      C                   |  
  /        |    C  C    C                         |  
 *         |        C     C   C                   |  
 |         |  C    C            C                 |  
 |         .-C-C------C--C-----C------------------.  
 |        /                 C                    /   
 |       /     C C  C     C                     /    
 |      /              C                       /     
 |     /                                      /      
 |    /                                      /       
 |   /                                      /        
 |  /                                      /         
 | /                                      /          
 |/                                      /           
 *--------------------------------------*            

Positions:
   0 C     10.700654    5.983231    4.885591
   1 C      9.271351    3.888663    4.364284
   2 C      9.562400    5.143557    4.902668
   3 C     10.794632    7.119189    5.423571
   4 C      8.178643    3.263418    4.450600
   5 C      9.823992    7.847051    6.180031
   6 C      8.403696    5.765793    5.631864
   7 C      7.015908    3.738461    5.061182
   8 C      8.523312    7.128928    6.154131
   9 C      7.103885    5.127424    5.593101
  10 C      9.758182    9.102667    6.819610
  11 C      8.700642    9.742048    7.250843
  12 C      3.437432    6.375353    5.220574
  13 C      4.659004    4.118305    4.927076
  14 C      4.534078    5.488348    5.246102
  15 C      5.638536    3.333053    4.926247
  16 C      3.539276    7.631931    5.518972
  17 C      3.970204    8.867754    5.868920
  18 C      5.888322    5.953779    5.666060
  19 C      5.348317    8.620266    6.096318
  20 C      6.055185    7.324310    5.983282
  21 C      7.491163   10.327018    7.078460
  22 C      6.746833    9.223394    6.575784
  23 C      7.326432    7.865198    6.347878

Unit cell:
           periodic     x           y           z      points  spacing
  1. axis:    yes   16.000000    0.000000    0.000000    80     0.2000
  2. axis:    yes    0.000000   16.000000    0.000000    80     0.2000
  3. axis:    yes    0.000000    0.000000   10.000000    48     0.2083

Effective grid spacing dv^(1/3) = 0.2027

                     log10-error:    total        iterations:
           time      wfs    density  energy       fermi  poisson
iter:   1  11:34:43          +inf  -185.099796    4      5      
iter:   2  11:34:43         -1.80  -184.949252    3      2      
iter:   3  11:34:44         -2.20  -184.925638    3      2      
iter:   4  11:34:44         -2.40  -184.914166    3      2      
iter:   5  11:34:45         -2.57  -184.910415    3      2      
iter:   6  11:34:46         -2.77  -184.907241    3      2      
iter:   7  11:34:46         -2.98  -184.905918    2      1      
iter:   8  11:34:47         -3.04  -184.908976    2      2      
iter:   9  11:34:48         -3.43  -184.909065    2      1      
iter:  10  11:34:48         -3.52  -184.908538    2      1      
iter:  11  11:34:49         -3.83  -184.909040    2      1      
iter:  12  11:34:50         -3.86  -184.910593    2      1      
iter:  13  11:34:50         -3.90  -184.908652    2      1      
iter:  14  11:34:51         -4.05  -184.908825    2      1      

Converged after 14 iterations.

Dipole moment: (0.428804, -0.761797, -0.073513) |e|*Ang

Energy contributions relative to reference atoms: (reference = -24663.074771)

Kinetic:       +111.661016
Potential:     -120.893318
External:        +0.000000
XC:            -178.590508
Entropy (-ST):   -0.188143
Local:           +3.008057
--------------------------
Free energy:   -185.002896
Extrapolated:  -184.908825

Fermi level: -4.38338

 Band  Eigenvalues  Occupancy
    0    -23.08568    2.00000
    1    -22.21865    2.00000
    2    -21.87992    2.00000
    3    -20.91058    2.00000
    4    -20.62605    2.00000
    5    -20.29510    2.00000
    6    -19.51771    2.00000
    7    -19.38385    2.00000
    8    -18.77345    2.00000
    9    -18.46629    2.00000
   10    -17.86047    2.00000
   11    -16.90829    2.00000
   12    -16.71673    2.00000
   13    -15.82175    2.00000
   14    -15.53161    2.00000
   15    -15.39373    2.00000
   16    -13.90252    2.00000
   17    -13.54352    2.00000
   18    -13.31533    2.00000
   19    -12.80083    2.00000
   20    -12.68029    2.00000
   21    -12.05466    2.00000
   22    -11.84726    2.00000
   23    -11.59662    2.00000
   24    -11.22778    2.00000
   25    -11.11099    2.00000
   26    -10.82956    2.00000
   27    -10.45691    2.00000
   28     -9.85036    2.00000
   29     -9.77862    2.00000
   30     -9.72850    2.00000
   31     -9.50776    2.00000
   32     -8.91237    2.00000
   33     -8.56507    2.00000
   34     -8.42335    2.00000
   35     -8.17148    2.00000
   36     -7.18502    2.00000
   37     -7.15744    2.00000
   38     -7.06269    2.00000
   39     -6.84492    2.00000
   40     -6.70342    2.00000
   41     -6.57586    2.00000
   42     -6.52775    2.00000
   43     -6.49813    2.00000
   44     -6.32574    2.00000
   45     -5.34306    1.99986
   46     -4.65692    1.87816
   47     -4.62026    1.82884
   48     -4.20704    0.29272
   49     -3.53196    0.00040
   50     -3.10563    0.00001
   51     -3.04385    0.00000
   52     -2.85958    0.00000
   53     -2.70910    0.00000
   54     -2.18155    0.00000
   55     -1.80166    0.00000
   56     -1.45819    0.00000
   57     -1.11335    0.00000
   58     -0.39969    0.00000
   59     -0.15385    0.00000
   60      0.68993    0.00000
   61      1.71875    0.00000
   62      2.13710    0.00000
   63      2.93448    0.00000
   64      3.31836    0.00000
   65      3.59466    0.00000
   66      3.82570    0.00000
   67      4.11414    0.00000
   68      4.35383    0.00000
   69      4.83856    0.00000
   70      5.21737    0.00000
   71      5.70320    0.00000
   72      6.13080    0.00000
   73      6.54700    0.00000
   74      6.66357    0.00000
   75      6.98399    0.00000
   76      7.20074    0.00000
   77      7.29398    0.00000
   78      7.77319    0.00000
   79      8.02387    0.00000
   80      8.19562    0.00000
   81      8.37397    0.00000
   82      8.76739    0.00000
   83      8.96080    0.00000
   84      9.03668    0.00000
   85      9.13649    0.00000
   86      9.21647    0.00000
   87      9.29317    0.00000
   88      9.46516    0.00000
   89      9.50091    0.00000
   90      9.53323    0.00000
   91      9.71634    0.00000
   92      9.83052    0.00000
   93      9.96357    0.00000
   94     10.09868    0.00000
   95     10.20464    0.00000
   96     10.25377    0.00000
   97     10.42661    0.00000


Forces in eV/Ang:
  0 C    -0.02255    0.26498    0.18596
  1 C     0.13369    0.11724    0.31511
  2 C     0.10357    0.10147    0.27801
  3 C    -0.30676    0.32268    0.48566
  4 C    -0.14820   -0.03972    0.52839
  5 C    -0.06137    0.62474    0.38819
  6 C     0.05402    0.21780   -0.47211
  7 C    -1.43840   -0.17738   -0.56299
  8 C     0.35568   -0.19424   -0.46981
  9 C     0.06856   -0.07810   -0.79873
 10 C    -0.05629    0.27553    0.51194
 11 C     1.07543   -0.01614   -1.13064
 12 C     0.02083    0.08617   -0.02248
 13 C    -0.31464   -0.25316    0.24048
 14 C    -0.28609   -0.12334    0.19435
 15 C     0.77603    0.06694   -0.07864
 16 C     0.22489    0.12455   -0.00632
 17 C     0.40159    0.02190    0.07589
 18 C    -0.39548    0.15568   -0.06420
 19 C     0.34695   -0.40611    0.38130
 20 C    -0.07763   -0.27678    0.12780
 21 C    -0.61370   -0.26288    0.13903
 22 C     0.43092   -0.71943    0.16201
 23 C    -0.24930    0.18605   -0.35916

System changes: positions 

Initializing position-dependent things.

Density initialized from wave functions
           .--------------------------------------.  
          /|                                      |  
         / |                                      |  
        /  |                                      |  
       /   |                                      |  
      /    |                                      |  
     /     |                                      |  
    /      |              C C                     |  
   /       |           C      C                   |  
  /        |    C  C    C                         |  
 *         |        C     C   C                   |  
 |         |  C    C            C                 |  
 |         .-C-C------C--C-----C------------------.  
 |        /                 C                    /   
 |       /     C C  C     C                     /    
 |      /              C                       /     
 |     /                                      /      
 |    /                                      /       
 |   /                                      /        
 |  /                                      /         
 | /                                      /          
 |/                                      /           
 *--------------------------------------*            

Positions:
   0 C     10.701324    5.990012    4.889917
   1 C      9.275389    3.891052    4.372682
   2 C      9.564375    5.145354    4.910505
   3 C     10.786770    7.127642    5.435494
   4 C      8.177245    3.261317    4.465003
   5 C      9.819896    7.862158    6.194472
   6 C      8.403832    5.770326    5.623610
   7 C      7.002671    3.742084    5.050655
   8 C      8.526324    7.134203    6.135676
   9 C      7.099482    5.137464    5.563082
  10 C      9.757207    9.110007    6.833788
  11 C      8.705398    9.762370    7.216720
  12 C      3.438342    6.378066    5.219665
  13 C      4.646234    4.112046    4.934902
  14 C      4.528055    5.484456    5.251406
  15 C      5.630771    3.327359    4.920275
  16 C      3.544219    7.635193    5.517915
  17 C      3.980978    8.867585    5.871517
  18 C      5.882134    5.948631    5.667286
  19 C      5.357875    8.610344    6.104502
  20 C      6.055129    7.313905    5.987955
  21 C      7.496252   10.308328    7.088702
  22 C      6.762712    9.203974    6.581832
  23 C      7.329405    7.855957    6.336304

Unit cell:
           periodic     x           y           z      points  spacing
  1. axis:    yes   16.000000    0.000000    0.000000    80     0.2000
  2. axis:    yes    0.000000   16.000000    0.000000    80     0.2000
  3. axis:    yes    0.000000    0.000000   10.000000    48     0.2083

Effective grid spacing dv^(1/3) = 0.2027

                     log10-error:    total        iterations:
           time      wfs    density  energy       fermi  poisson
iter:   1  11:34:53          +inf  -185.152975    3      5      
iter:   2  11:34:54         -2.00  -185.099949    3      2      
iter:   3  11:34:54         -2.30  -185.085061    3      2      
iter:   4  11:34:55         -2.49  -185.077935    3      2      
iter:   5  11:34:55         -2.67  -185.075993    3      2      
iter:   6  11:34:56         -2.81  -185.074206    3      2      
iter:   7  11:34:57         -3.03  -185.073021    2      1      
iter:   8  11:34:57         -3.12  -185.075660    2      2      
iter:   9  11:34:58         -3.49  -185.075639    2      1      
iter:  10  11:34:59         -3.58  -185.074956    2      1      
iter:  11  11:34:59         -3.82  -185.075587    2      1      
iter:  12  11:35:00         -3.90  -185.075310    2      1      
iter:  13  11:35:00         -4.00  -185.074883    2      1      

Converged after 13 iterations.

Dipole moment: (0.412673, -0.746229, -0.069593) |e|*Ang

Energy contributions relative to reference atoms: (reference = -24663.074771)

Kinetic:       +114.915722
Potential:     -123.484510
External:        +0.000000
XC:            -179.436504
Entropy (-ST):   -0.181891
Local:           +3.021353
--------------------------
Free energy:   -185.165829
Extrapolated:  -185.074883

Fermi level: -4.36912

 Band  Eigenvalues  Occupancy
    0    -23.13599    2.00000
    1    -22.23898    2.00000
    2    -21.90549    2.00000
    3    -20.91824    2.00000
    4    -20.67319    2.00000
    5    -20.33026    2.00000
    6    -19.52019    2.00000
    7    -19.42179    2.00000
    8    -18.77265    2.00000
    9    -18.50854    2.00000
   10    -17.88564    2.00000
   11    -16.93797    2.00000
   12    -16.72852    2.00000
   13    -15.84812    2.00000
   14    -15.52560    2.00000
   15    -15.43481    2.00000
   16    -13.90241    2.00000
   17    -13.57382    2.00000
   18    -13.34510    2.00000
   19    -12.83875    2.00000
   20    -12.70033    2.00000
   21    -12.05451    2.00000
   22    -11.89110    2.00000
   23    -11.60451    2.00000
   24    -11.22298    2.00000
   25    -11.13295    2.00000
   26    -10.86598    2.00000
   27    -10.48674    2.00000
   28     -9.87141    2.00000
   29     -9.80411    2.00000
   30     -9.74321    2.00000
   31     -9.52195    2.00000
   32     -8.92724    2.00000
   33     -8.58205    2.00000
   34     -8.45418    2.00000
   35     -8.18566    2.00000
   36     -7.21410    2.00000
   37     -7.16798    2.00000
   38     -7.08997    2.00000
   39     -6.80960    2.00000
   40     -6.70220    2.00000
   41     -6.57431    2.00000
   42     -6.55397    2.00000
   43     -6.49267    2.00000
   44     -6.33329    2.00000
   45     -5.36080    1.99990
   46     -4.65112    1.88750
   47     -4.60910    1.83363
   48     -4.18696    0.27848
   49     -3.53616    0.00048
   50     -3.11239    0.00001
   51     -3.02047    0.00000
   52     -2.89833    0.00000
   53     -2.70074    0.00000
   54     -2.18819    0.00000
   55     -1.77607    0.00000
   56     -1.43065    0.00000
   57     -1.08170    0.00000
   58     -0.37787    0.00000
   59     -0.11524    0.00000
   60      0.72595    0.00000
   61      1.89765    0.00000
   62      2.22167    0.00000
   63      3.01962    0.00000
   64      3.43047    0.00000
   65      3.59835    0.00000
   66      3.84383    0.00000
   67      4.12766    0.00000
   68      4.43092    0.00000
   69      4.85349    0.00000
   70      5.17052    0.00000
   71      5.75235    0.00000
   72      6.13302    0.00000
   73      6.58633    0.00000
   74      6.67590    0.00000
   75      6.99261    0.00000
   76      7.23163    0.00000
   77      7.34293    0.00000
   78      7.80202    0.00000
   79      7.99112    0.00000
   80      8.23822    0.00000
   81      8.37134    0.00000
   82      8.75531    0.00000
   83      8.95959    0.00000
   84      9.05789    0.00000
   85      9.14873    0.00000
   86      9.24100    0.00000
   87      9.32113    0.00000
   88      9.45745    0.00000
   89      9.51612    0.00000
   90      9.53900    0.00000
   91      9.72730    0.00000
   92      9.80837    0.00000
   93     10.02466    0.00000
   94     10.13775    0.00000
   95     10.20574    0.00000
   96     10.25742    0.00000
   97     10.44002    0.00000


Forces in eV/Ang:
  0 C     0.01803    0.50226    0.32614
  1 C    -0.35753   -0.23027    0.34098
  2 C     0.18745    0.14265    0.19596
  3 C    -0.25531    0.05020    0.38618
  4 C     0.29146    0.23220    0.42342
  5 C     0.07020    0.29161    0.05827
  6 C    -0.01720    0.17410   -0.55373
  7 C    -1.13669   -0.17527   -0.60647
  8 C     0.30886   -0.21031   -0.24297
  9 C     0.08757   -0.21011   -0.50532
 10 C     0.59074    0.04131    0.24603
 11 C     1.20766   -0.13142   -0.58814
 12 C    -0.02890    0.12703   -0.00344
 13 C    -0.07706   -0.35811    0.23653
 14 C    -0.32957   -0.16504    0.18650
 15 C     0.49129    0.22797   -0.07158
 16 C     0.25424    0.07751    0.00138
 17 C     0.38825    0.02843    0.05968
 18 C    -0.33542    0.16789   -0.19400
 19 C     0.23366   -0.36097    0.43360
 20 C    -0.12493   -0.15227    0.09795
 21 C    -1.40290    0.18053    0.02620
 22 C     0.09974   -0.49126    0.05795
 23 C    -0.18088    0.17132   -0.27574

System changes: positions 

Initializing position-dependent things.

Density initialized from wave functions
           .--------------------------------------.  
          /|                                      |  
         / |                                      |  
        /  |                                      |  
       /   |                                      |  
      /    |                                      |  
     /     |                                      |  
    /      |              C C                     |  
   /       |           C      C                   |  
  /        |    C  C                              |  
 *         |        C   C C   C                   |  
 |         |  C    C            C                 |  
 |         .-C-C------C--C-----C------------------.  
 |        /                 C                    /   
 |       /     C C  C     C                     /    
 |      /              C                       /     
 |     /                                      /      
[...]
External:        +0.000000
XC:            -180.567583
Entropy (-ST):   -0.192145
Local:           +2.994325
--------------------------
Free energy:   -185.905165
Extrapolated:  -185.809093

Fermi level: -4.38976

 Band  Eigenvalues  Occupancy
    0    -23.22217    2.00000
    1    -22.32860    2.00000
    2    -21.94970    2.00000
    3    -20.96750    2.00000
    4    -20.68808    2.00000
    5    -20.32463    2.00000
    6    -19.57585    2.00000
    7    -19.43559    2.00000
    8    -18.73392    2.00000
    9    -18.65778    2.00000
   10    -17.99478    2.00000
   11    -17.02113    2.00000
   12    -16.72796    2.00000
   13    -15.89364    2.00000
   14    -15.57749    2.00000
   15    -15.45510    2.00000
   16    -13.91185    2.00000
   17    -13.57839    2.00000
   18    -13.35189    2.00000
   19    -12.95490    2.00000
   20    -12.76974    2.00000
   21    -12.05429    2.00000
   22    -11.91494    2.00000
   23    -11.60407    2.00000
   24    -11.16306    2.00000
   25    -11.10331    2.00000
   26    -10.95448    2.00000
   27    -10.51018    2.00000
   28     -9.94355    2.00000
   29     -9.85096    2.00000
   30     -9.81499    2.00000
   31     -9.48742    2.00000
   32     -8.99663    2.00000
   33     -8.65023    2.00000
   34     -8.48002    2.00000
   35     -8.20252    2.00000
   36     -7.20004    2.00000
   37     -7.16577    2.00000
   38     -7.10347    2.00000
   39     -6.79631    2.00000
   40     -6.76624    2.00000
   41     -6.66385    2.00000
   42     -6.60126    2.00000
   43     -6.49087    2.00000
   44     -6.42989    2.00000
   45     -5.43114    1.99994
   46     -4.66912    1.88465
   47     -4.61580    1.81108
   48     -4.21793    0.30418
   49     -3.43530    0.00014
   50     -3.12082    0.00001
   51     -2.91598    0.00000
   52     -2.84409    0.00000
   53     -2.67381    0.00000
   54     -2.20011    0.00000
   55     -1.81986    0.00000
   56     -1.40975    0.00000
   57     -1.08303    0.00000
   58     -0.23953    0.00000
   59      0.02091    0.00000
   60      0.75823    0.00000
   61      2.16952    0.00000
   62      2.65030    0.00000
   63      3.25889    0.00000
   64      3.67117    0.00000
   65      3.79341    0.00000
   66      4.09083    0.00000
   67      4.16228    0.00000
   68      4.30885    0.00000
   69      5.08208    0.00000
   70      5.10930    0.00000
   71      5.78491    0.00000
   72      5.97163    0.00000
   73      6.44170    0.00000
   74      6.68178    0.00000
   75      6.70378    0.00000
   76      7.24889    0.00000
   77      7.42724    0.00000
   78      7.69462    0.00000
   79      7.80562    0.00000
   80      8.13878    0.00000
   81      8.27735    0.00000
   82      8.59733    0.00000
   83      8.97049    0.00000
   84      9.05802    0.00000
   85      9.07913    0.00000
   86      9.16527    0.00000
   87      9.32310    0.00000
   88      9.44082    0.00000
   89      9.47435    0.00000
   90      9.49158    0.00000
   91      9.55129    0.00000
   92      9.77545    0.00000
   93     10.17908    0.00000
   94     10.21400    0.00000
   95     10.23992    0.00000
   96     10.33384    0.00000
   97     10.43415    0.00000


Forces in eV/Ang:
  0 C     0.00706    0.02776    0.00770
  1 C     0.01306   -0.10262   -0.05314
  2 C     0.03897   -0.09353    0.03624
  3 C     0.02392    0.02668   -0.06319
  4 C    -0.02095   -0.01420    0.00435
  5 C     0.04466   -0.02164    0.10562
  6 C     0.03206    0.03767   -0.03644
  7 C    -0.02401   -0.04424   -0.02849
  8 C     0.07104    0.04951   -0.00935
  9 C    -0.02113   -0.00100   -0.03660
 10 C    -0.06687    0.01681    0.05338
 11 C    -0.02967    0.12057   -0.02981
 12 C    -0.00128    0.01198    0.02549
 13 C    -0.00247   -0.00406   -0.08089
 14 C    -0.04507   -0.03935    0.04556
 15 C     0.03718    0.00877   -0.00255
 16 C    -0.03485   -0.05239    0.05663
 17 C    -0.00170    0.01498   -0.08648
 18 C    -0.04891    0.00253    0.08799
 19 C    -0.03062   -0.02287    0.04019
 20 C     0.00921    0.03056   -0.01359
 21 C     0.00687    0.03478    0.02528
 22 C     0.05315   -0.03673    0.00626
 23 C     0.00746    0.07807    0.00379

System changes: positions 

Initializing position-dependent things.

Density initialized from wave functions
           .--------------------------------------.  
          /|                                      |  
         / |                                      |  
        /  |                                      |  
       /   |                                      |  
      /    |                                      |  
     /     |                                      |  
    /      |              C                       |  
   /       |           C    C  C                  |  
  /        |    C  C                              |  
 *         |  C     C   C C   C                   |  
 |         | C                  C                 |  
 |         .---C---C--C--C-----C------------------.  
 |        /                 C                    /   
 |       /     C C  C     C                     /    
 |      /              C                       /     
 |     /                                      /      
 |    /                                      /       
 |   /                                      /        
 |  /                                      /         
 | /                                      /          
 |/                                      /           
 *--------------------------------------*            

Positions:
   0 C     10.808838    5.807784    5.424739
   1 C      9.332530    3.767788    4.716930
   2 C      9.632645    5.060189    5.160464
   3 C     10.868513    6.997057    5.833968
   4 C      8.196404    3.246513    4.537899
   5 C      9.839457    7.925472    6.143556
   6 C      8.394644    5.847098    5.415471
   7 C      6.943339    3.838510    4.725363
   8 C      8.544060    7.223870    5.894169
   9 C      7.068303    5.246213    5.191690
  10 C      9.838509    9.254489    6.617876
  11 C      8.733238    9.891021    6.862207
  12 C      3.352223    6.361402    5.442954
  13 C      4.568154    4.148445    4.791546
  14 C      4.446862    5.503479    5.201899
  15 C      5.591261    3.443033    4.586841
  16 C      3.498510    7.570180    5.894557
  17 C      3.950043    8.746626    6.391623
  18 C      5.837355    6.008576    5.416829
  19 C      5.344685    8.522448    6.332778
  20 C      6.039106    7.313041    5.897710
  21 C      7.454890   10.295222    7.041849
  22 C      6.761505    9.151021    6.592695
  23 C      7.330958    7.890492    6.132619

Unit cell:
           periodic     x           y           z      points  spacing
  1. axis:    yes   16.000000    0.000000    0.000000    80     0.2000
  2. axis:    yes    0.000000   16.000000    0.000000    80     0.2000
  3. axis:    yes    0.000000    0.000000   10.000000    48     0.2083

Effective grid spacing dv^(1/3) = 0.2027

                     log10-error:    total        iterations:
           time      wfs    density  energy       fermi  poisson
iter:   1  11:39:45          +inf  -185.819970    3      5      
iter:   2  11:39:46         -2.75  -185.819174    2      1      
iter:   3  11:39:47         -2.83  -185.817864    2      1      
iter:   4  11:39:47         -3.10  -185.819297    2      1      
iter:   5  11:39:48         -3.36  -185.816843    2      1      
iter:   6  11:39:49         -3.44  -185.815431    2      1      
iter:   7  11:39:49         -3.57  -185.816056    2      1      
iter:   8  11:39:50         -3.84  -185.815134    2      1      
iter:   9  11:39:50         -4.01  -185.814739    2      1      

Converged after 9 iterations.

Dipole moment: (0.384090, -0.757952, -0.287571) |e|*Ang

Energy contributions relative to reference atoms: (reference = -24663.074771)

Kinetic:       +118.151080
Potential:     -126.576225
External:        +0.000000
XC:            -180.275835
Entropy (-ST):   -0.188460
Local:           +2.980470
--------------------------
Free energy:   -185.908969
Extrapolated:  -185.814739

Fermi level: -4.38810

 Band  Eigenvalues  Occupancy
    0    -23.21706    2.00000
    1    -22.31570    2.00000
    2    -21.94621    2.00000
    3    -20.96179    2.00000
    4    -20.68735    2.00000
    5    -20.31844    2.00000
    6    -19.57107    2.00000
    7    -19.43492    2.00000
    8    -18.73256    2.00000
    9    -18.65515    2.00000
   10    -17.99047    2.00000
   11    -17.02410    2.00000
   12    -16.71661    2.00000
   13    -15.89408    2.00000
   14    -15.57710    2.00000
   15    -15.46060    2.00000
   16    -13.89726    2.00000
   17    -13.57909    2.00000
   18    -13.34623    2.00000
   19    -12.95995    2.00000
   20    -12.76515    2.00000
   21    -12.05350    2.00000
   22    -11.92690    2.00000
   23    -11.60774    2.00000
   24    -11.15350    2.00000
   25    -11.09682    2.00000
   26    -10.95033    2.00000
   27    -10.51185    2.00000
   28     -9.93761    2.00000
   29     -9.84356    2.00000
   30     -9.81549    2.00000
   31     -9.49748    2.00000
   32     -8.98225    2.00000
   33     -8.64910    2.00000
   34     -8.48052    2.00000
   35     -8.19869    2.00000
   36     -7.19872    2.00000
   37     -7.16461    2.00000
   38     -7.11411    2.00000
   39     -6.79511    2.00000
   40     -6.76936    2.00000
   41     -6.66751    2.00000
   42     -6.59638    2.00000
   43     -6.48828    2.00000
   44     -6.43280    2.00000
   45     -5.43467    1.99994
   46     -4.67148    1.88895
   47     -4.61668    1.81540
   48     -4.21288    0.29555
   49     -3.43833    0.00015
   50     -3.12138    0.00001
   51     -2.91496    0.00000
   52     -2.84828    0.00000
   53     -2.67967    0.00000
   54     -2.21453    0.00000
   55     -1.83090    0.00000
   56     -1.41422    0.00000
   57     -1.08045    0.00000
   58     -0.25217    0.00000
   59      0.02332    0.00000
   60      0.74837    0.00000
   61      2.16632    0.00000
   62      2.64513    0.00000
   63      3.27877    0.00000
   64      3.67053    0.00000
   65      3.78013    0.00000
   66      4.06076    0.00000
   67      4.16429    0.00000
   68      4.28218    0.00000
   69      5.05911    0.00000
   70      5.08163    0.00000
   71      5.74871    0.00000
   72      5.94370    0.00000
   73      6.40765    0.00000
   74      6.65343    0.00000
   75      6.67053    0.00000
   76      7.24753    0.00000
   77      7.40727    0.00000
   78      7.68719    0.00000
   79      7.78163    0.00000
   80      8.11807    0.00000
   81      8.26893    0.00000
   82      8.58495    0.00000
   83      8.96968    0.00000
   84      9.03163    0.00000
   85      9.07050    0.00000
   86      9.16272    0.00000
   87      9.32452    0.00000
   88      9.44014    0.00000
   89      9.47241    0.00000
   90      9.48783    0.00000
   91      9.52989    0.00000
   92      9.76839    0.00000
   93     10.17746    0.00000
   94     10.21302    0.00000
   95     10.23189    0.00000
   96     10.31279    0.00000
   97     10.43300    0.00000


Forces in eV/Ang:
  0 C    -0.05919   -0.00117    0.00989
  1 C     0.02528    0.01835    0.03384
  2 C    -0.00958    0.00112   -0.01842
  3 C     0.01052    0.00176   -0.01181
  4 C    -0.00704   -0.00661   -0.00189
  5 C     0.06896    0.01916    0.01582
  6 C     0.04446   -0.04168   -0.03099
  7 C     0.06369    0.02808    0.01336
  8 C     0.00796   -0.04034   -0.00562
  9 C     0.05258    0.01309   -0.00103
 10 C    -0.03952   -0.01023    0.03362
 11 C    -0.01171    0.05302    0.04785
 12 C     0.00858   -0.01011    0.04794
 13 C    -0.03081    0.01106   -0.04791
 14 C    -0.03656   -0.02447    0.04214
 15 C    -0.05455    0.01275   -0.02938
 16 C     0.00055   -0.03584    0.04159
 17 C     0.06101   -0.03604   -0.08805
 18 C     0.00546   -0.02915    0.02694
 19 C    -0.02472    0.03474    0.01078
 20 C    -0.01071    0.00101    0.00630
 21 C     0.02456    0.03210   -0.01631
 22 C    -0.09196    0.04386    0.04170
 23 C     0.00897   -0.02261   -0.03823

System changes: positions 

Initializing position-dependent things.

Density initialized from wave functions
           .--------------------------------------.  
          /|                                      |  
         / |                                      |  
        /  |                                      |  
       /   |                                      |  
      /    |                                      |  
     /     |                                      |  
    /      |              C                       |  
   /       |           C    C  C                  |  
  /        |    C  C                              |  
 *         |  C     C   C C   C                   |  
 |         | C                  C                 |  
 |         .---C---C--C--C-----C------------------.  
 |        /                 C                    /   
 |       /     C C  C     C                     /    
 |      /              C                       /     
 |     /                                      /      
 |    /                                      /       
 |   /                                      /        
 |  /                                      /         
 | /                                      /          
 |/                                      /           
 *--------------------------------------*            

Positions:
   0 C     10.806916    5.812102    5.412871
   1 C      9.332627    3.767634    4.716609
   2 C      9.631439    5.061326    5.156957
   3 C     10.867200    7.000003    5.825048
   4 C      8.196483    3.245403    4.540888
   5 C      9.839798    7.923426    6.151368
   6 C      8.394267    5.846468    5.416312
   7 C      6.943952    3.837904    4.726915
   8 C      8.544142    7.221970    5.899394
   9 C      7.068234    5.245421    5.193502
  10 C      9.840146    9.250934    6.629582
  11 C      8.733037    9.889053    6.865987
  12 C      3.352049    6.358422    5.445526
  13 C      4.568295    4.148335    4.788929
  14 C      4.446234    5.501828    5.204266
  15 C      5.591759    3.443262    4.585524
  16 C      3.500215    7.567474    5.894595
  17 C      3.951804    8.747438    6.381994
  18 C      5.836822    6.007366    5.420372
  19 C      5.344271    8.523028    6.330901
  20 C      6.038954    7.312438    5.900365
  21 C      7.455503   10.300399    7.034101
  22 C      6.761873    9.152721    6.591205
  23 C      7.331085    7.889891    6.135476

Unit cell:
           periodic     x           y           z      points  spacing
  1. axis:    yes   16.000000    0.000000    0.000000    80     0.2000
  2. axis:    yes    0.000000   16.000000    0.000000    80     0.2000
  3. axis:    yes    0.000000    0.000000   10.000000    48     0.2083

Effective grid spacing dv^(1/3) = 0.2027

                     log10-error:    total        iterations:
           time      wfs    density  energy       fermi  poisson
iter:   1  11:39:53          +inf  -185.817125    2      5      
iter:   2  11:39:53         -2.94  -185.816484    2      1      
iter:   3  11:39:54         -3.12  -185.816543    2      1      
iter:   4  11:39:54         -3.25  -185.816574    2      1      
iter:   5  11:39:55         -3.42  -185.816831    2      1      
iter:   6  11:39:56         -3.58  -185.816664    2      1      
iter:   7  11:39:56         -3.52  -185.816760    2      1      
iter:   8  11:39:57         -3.39  -185.816885    2      1      
iter:   9  11:39:57         -3.96  -185.816799    2      1      
iter:  10  11:39:58         -4.16  -185.816843    2      1      

Converged after 10 iterations.

Dipole moment: (0.382324, -0.762790, -0.281921) |e|*Ang

Energy contributions relative to reference atoms: (reference = -24663.074771)

Kinetic:       +118.373539
Potential:     -126.776030
External:        +0.000000
XC:            -180.326579
Entropy (-ST):   -0.187913
Local:           +3.006184
--------------------------
Free energy:   -185.910799
Extrapolated:  -185.816843

Fermi level: -4.38807

 Band  Eigenvalues  Occupancy
    0    -23.21466    2.00000
    1    -22.31725    2.00000
    2    -21.94761    2.00000
    3    -20.96409    2.00000
    4    -20.69138    2.00000
    5    -20.32006    2.00000
    6    -19.57075    2.00000
    7    -19.43892    2.00000
    8    -18.73615    2.00000
    9    -18.65393    2.00000
   10    -17.99502    2.00000
   11    -17.02690    2.00000
   12    -16.71619    2.00000
   13    -15.89489    2.00000
   14    -15.57657    2.00000
   15    -15.45967    2.00000
   16    -13.89672    2.00000
   17    -13.58237    2.00000
   18    -13.34622    2.00000
   19    -12.95810    2.00000
   20    -12.76624    2.00000
   21    -12.05399    2.00000
   22    -11.92647    2.00000
   23    -11.60873    2.00000
   24    -11.15402    2.00000
   25    -11.09858    2.00000
   26    -10.94988    2.00000
   27    -10.51175    2.00000
   28     -9.93811    2.00000
   29     -9.84295    2.00000
   30     -9.81679    2.00000
   31     -9.49894    2.00000
   32     -8.98095    2.00000
   33     -8.65126    2.00000
   34     -8.48292    2.00000
   35     -8.19939    2.00000
   36     -7.19849    2.00000
   37     -7.16233    2.00000
   38     -7.11601    2.00000
   39     -6.79597    2.00000
   40     -6.77100    2.00000
   41     -6.66734    2.00000
   42     -6.59448    2.00000
   43     -6.48619    2.00000
   44     -6.43619    2.00000
   45     -5.43708    1.99994
   46     -4.67364    1.89123
   47     -4.61591    1.81416
   48     -4.21244    0.29451
   49     -3.43924    0.00015
   50     -3.12073    0.00001
   51     -2.91082    0.00000
   52     -2.84676    0.00000
   53     -2.68093    0.00000
   54     -2.21190    0.00000
   55     -1.82915    0.00000
   56     -1.41129    0.00000
   57     -1.07570    0.00000
   58     -0.25442    0.00000
   59      0.02452    0.00000
   60      0.75134    0.00000
   61      2.17003    0.00000
   62      2.64616    0.00000
   63      3.27863    0.00000
   64      3.67341    0.00000
   65      3.78326    0.00000
   66      4.05563    0.00000
   67      4.15779    0.00000
   68      4.27964    0.00000
   69      5.05491    0.00000
   70      5.07530    0.00000
   71      5.75266    0.00000
   72      5.94509    0.00000
   73      6.40962    0.00000
   74      6.66005    0.00000
   75      6.67567    0.00000
   76      7.24375    0.00000
   77      7.40854    0.00000
   78      7.68336    0.00000
   79      7.78487    0.00000
   80      8.11873    0.00000
   81      8.27046    0.00000
   82      8.58949    0.00000
   83      8.96966    0.00000
   84      9.03429    0.00000
   85      9.07062    0.00000
   86      9.16213    0.00000
   87      9.32579    0.00000
   88      9.43995    0.00000
   89      9.47261    0.00000
   90      9.48599    0.00000
   91      9.53344    0.00000
   92      9.76930    0.00000
   93     10.17809    0.00000
   94     10.21195    0.00000
   95     10.23300    0.00000
   96     10.31098    0.00000
   97     10.43296    0.00000


Forces in eV/Ang:
  0 C    -0.04011   -0.00068    0.00172
  1 C     0.02687    0.01769    0.03234
  2 C    -0.00007   -0.00595   -0.03467
  3 C     0.03870   -0.00803    0.02510
  4 C     0.00806   -0.01307   -0.00837
  5 C     0.04538    0.02081    0.00242
  6 C     0.03669   -0.02399   -0.01763
  7 C     0.03177    0.02845    0.00634
  8 C     0.01080   -0.01908   -0.00341
  9 C     0.03146    0.01802    0.00822
 10 C    -0.06615    0.00763    0.01786
 11 C     0.01637    0.04679    0.06096
 12 C    -0.02898   -0.02003    0.05267
 13 C    -0.03244    0.00949   -0.04798
 14 C     0.00622   -0.04574    0.03368
 15 C    -0.04649    0.01146   -0.03113
 16 C    -0.02167    0.00048    0.04307
 17 C    -0.02858   -0.00219   -0.05085
 18 C     0.01494   -0.02492    0.01473
 19 C     0.06381    0.02745    0.01811
 20 C     0.00331   -0.00931    0.00358
 21 C     0.02299   -0.01574   -0.07047
 22 C    -0.08104    0.02261    0.04523
 23 C     0.00737   -0.01968   -0.01744

