
  ___ ___ ___ _ _ _  
 |   |   |_  | | | | 
 | | | | | . | | | | 
 |__ |  _|___|_____|  1.3.0b1
 |___|_|             

User:   esb@s65n23.grendel.cscaa.dk
Date:   Thu Nov  9 09:32:28 2017
Arch:   x86_64
Pid:    65873
Python: 2.7.13
gpaw:   /home/esb/DFT/gpaw_git/gpaw
_gpaw:  /home/esb/DFT/gpaw_git/build/bin.linux-x86_64-2.7/gpaw-python
ase:    /home/esb/DFT/ase_git/ase (version 3.15.0b1)
numpy:  /comm/swstack/core/python/2.7.13/lib/python2.7/site-packages/numpy (version 1.13.3)
scipy:  /comm/swstack/core/python/2.7.13/lib/python2.7/site-packages/scipy (version 0.19.1)
units:  Angstrom and eV
cores:  16
Extra parameters: {'blacs': True}

Input parameters:
  basis: dzp
  gpts: [80 80 48]
  kpts: [1 1 1]
  maxiter: 99
  mixer: {backend: pulay,
          beta: 0.05,
          method: separate,
          nmaxold: 5,
          weight: 75}
  mode: lcao
  nbands: -50
  occupations: {name: fermi-dirac,
                width: 0.1}
  poissonsolver: {eps: 1e-07,
                  name: fd,
                  nn: 3,
                  relax: GS}
  xc: PBE

System changes: positions, numbers, cell, pbc, initial_charges, initial_magmoms 

Initialize ...

C-setup:
  name: Carbon
  id: 4aa54d4b901d75f77cc0ea3eec22967b
  Z: 6
  valence: 4
  core: 2
  charge: 0.0
  file: /home/esb/DFT/gpaw-setups-0.8.7929/C.PBE.gz
  cutoffs: 0.64(comp), 1.14(filt), 1.14(core), lmax=2
  valence states:
                energy  radius
    2s(2.00)   -13.751   0.635
    2p(2.00)    -5.284   0.635
    *s          13.461   0.635
    *p          21.927   0.635
    *d           0.000   0.635

  LCAO basis set for C:
    Name: dzp
    File: /home/esb/DFT/gpaw-setups-0.8.7929/C.dzp.basis.gz
    Number of radial functions: 5
    Number of spherical harmonics: 13
      l=0, rc=5.5469 Bohr: 2s-sz confined orbital
      l=1, rc=6.6719 Bohr: 2p-sz confined orbital
      l=0, rc=3.0312 Bohr: 2s-dz split-valence wave
      l=1, rc=3.7500 Bohr: 2p-dz split-valence wave
      l=2, rc=6.6719 Bohr: d-type Gaussian polarization

Reference energy: -24663.074771

Spin-paired calculation

Occupation numbers:
  Fermi-Dirac: width=0.1000 eV

Convergence criteria:
  Maximum total energy change: 0.0005 eV / electron
  Maximum integral of absolute density change: 0.0001 electrons
  Maximum integral of absolute eigenstate change: 4e-08 eV^2
  Maximum number of iterations: 99

Symmetries present (total): 1

  ( 1  0  0)
  ( 0  1  0)
  ( 0  0  1)

1 k-point (Gamma)
1 k-point in the irreducible part of the Brillouin zone
       k-points in crystal coordinates                weights
   0:     0.00000000    0.00000000    0.00000000          1/1

Wave functions: LCAO
  Diagonalizer: Serial LAPACK
  Atomic Correction: dense with blas
  Datatype: float
  Eigensolver: None 

LCAO using direct dense diagonalizer 

Densities:
  Coarse grid: 80*80*48 grid
  Fine grid: 160*160*96 grid
  Total Charge: 0.000000 

Density mixing:
  Method: separate
  Backend: pulay
  Linear mixing parameter: 0.05
  Mixing with 5 old densities
  Damping of long wave oscillations: 75 

Hamiltonian:
  XC and Coulomb potentials evaluated on a 160*160*96 grid
  Using the PBE Exchange-Correlation functional
  Interpolation: tri-quintic (5. degree polynomial)
  Poisson solver: Gauss-Seidel solver with 6 multi-grid levels
    Coarsest grid: 5 x 5 x 3 points
    Stencil: 6*3+1=19 point O(h^6) finite-difference Laplacian
    Max iterations: 1000
    Tolerance: 1.000000e-07 

Memory estimate:
  Process memory now: 77.57 MiB
  Calculator: 15.59 MiB
    Density: 6.13 MiB
      Arrays: 3.81 MiB
      Localized functions: 0.86 MiB
      Mixer: 1.46 MiB
    Hamiltonian: 5.40 MiB
      Arrays: 2.49 MiB
      XC: 0.00 MiB
      Poisson: 2.85 MiB
      vbar: 0.07 MiB
    Wavefunctions: 4.05 MiB
      C [qnM]: 0.23 MiB
      S, T [2 x qmm]: 1.49 MiB
      P [aqMi]: 0.01 MiB
      TCI: 0.00 MiB
      BasisFunctions: 2.33 MiB
      Eigensolver: 0.00 MiB

Total number of cores used: 16
Domain decomposition: 2 x 4 x 2

Number of atoms: 24
Number of atomic orbitals: 312
Number of bands in calculation: 98
Bands to converge: occupied states only
Number of valence electrons: 96

... initialized

Initializing position-dependent things.

Density initialized from atomic densities
           .--------------------------------------.  
          /|                                      |  
         / |                                      |  
        /  |                                      |  
       /   |                                      |  
      /    |                                      |  
     /     |                                      |  
    /      |                                      |  
   /       |    C                                 |  
  /        |    C         C   C  C                |  
 *         |     C     C           C              |  
 |         | C   C CC               C             |  
 |         .----C-----C-----------C---------------.  
 |        /    C  C     C   C                    /   
 |       /          C  C   C C                  /    
 |      /                                      /     
 |     /                                      /      
 |    /                                      /       
 |   /                                      /        
 |  /                                      /         
 | /                                      /          
 |/                                      /           
 *--------------------------------------*            

Positions:
   0 C     10.359173    4.563178    4.382357
   1 C      7.252239    6.043942    5.461289
   2 C      9.626277    3.499931    4.446701
   3 C      7.036266    3.069328    4.960335
   4 C      9.646979    5.747938    4.760416
   5 C      8.238096    3.703530    4.855152
   6 C      8.269004    5.191823    5.106994
   7 C      5.843413    3.635617    5.220171
   8 C      5.790969    6.395937    5.588713
   9 C      4.547479    5.694903    5.544622
  10 C      4.722877    4.250913    5.396976
  11 C      3.405582    6.559922    5.598811
  12 C      7.976175    9.619483    5.572758
  13 C      4.505634    8.260299    5.251921
  14 C      6.904215    8.980043    5.435828
  15 C      3.023826   11.955746    5.024513
  16 C     11.593640    9.011697    5.452197
  17 C      4.054090    9.554636    5.242533
  18 C      9.270143    9.999101    5.652306
  19 C      5.949814    7.948779    5.267782
  20 C     12.162129    7.903492    5.201614
  21 C     11.954197    6.603708    4.906998
  22 C     10.520340    9.802169    5.624984
  23 C      3.563675   10.747788    5.172919

Unit cell:
           periodic     x           y           z      points  spacing
  1. axis:    yes   16.000000    0.000000    0.000000    80     0.2000
  2. axis:    yes    0.000000   16.000000    0.000000    80     0.2000
  3. axis:    yes    0.000000    0.000000   10.000000    48     0.2083

Effective grid spacing dv^(1/3) = 0.2027

                     log10-error:    total        iterations:
           time      wfs    density  energy       fermi  poisson
iter:   1  09:32:30          +inf  -173.979795    3      6      
iter:   2  09:32:30         -0.90  -173.114501    3      3      
iter:   3  09:32:31         -0.94  -171.591145    4      3      
iter:   4  09:32:32         -1.03  -170.382933    35     4      
iter:   5  09:32:32         -1.26  -170.210730    3      3      
iter:   6  09:32:33         -1.39  -170.135063    4      3      
iter:   7  09:32:33         -1.63  -170.120952    3      3      
iter:   8  09:32:34         -1.75  -170.087208    3      2      
iter:   9  09:32:34         -1.86  -170.059851    3      2      
iter:  10  09:32:35         -2.01  -170.042305    3      3      
iter:  11  09:32:35         -2.22  -170.040364    2      2      
iter:  12  09:32:36         -2.29  -170.042973    3      2      
iter:  13  09:32:36         -2.85  -170.047287    2      1      
iter:  14  09:32:37         -2.93  -170.035915    2      1      
iter:  15  09:32:37         -3.10  -170.025845    2      1      
iter:  16  09:32:38         -3.20  -170.036468    2      1      
iter:  17  09:32:38         -3.34  -170.033789    2      1      
iter:  18  09:32:39         -3.42  -170.026022    2      1      
iter:  19  09:32:39         -3.58  -170.030147    2      1      
iter:  20  09:32:40         -3.62  -170.033555    2      1      
iter:  21  09:32:40         -3.77  -170.031951    2      1      
iter:  22  09:32:41         -3.89  -170.032889    2      1      
iter:  23  09:32:41         -4.10  -170.032204    2      1      

Converged after 23 iterations.

Dipole moment: (1.053636, -0.089242, 0.146168) |e|*Ang

Energy contributions relative to reference atoms: (reference = -24663.074771)

Kinetic:        +83.239657
Potential:      -98.080573
External:        +0.000000
XC:            -157.947641
Entropy (-ST):   -0.374152
Local:           +2.943430
--------------------------
Free energy:   -170.219280
Extrapolated:  -170.032204

Fermi level: -4.78177

 Band  Eigenvalues  Occupancy
    0    -22.11494    2.00000
    1    -21.64408    2.00000
    2    -21.21670    2.00000
    3    -20.63672    2.00000
    4    -20.19698    2.00000
    5    -19.79100    2.00000
    6    -19.47370    2.00000
    7    -19.03564    2.00000
    8    -18.64563    2.00000
    9    -17.96747    2.00000
   10    -17.51897    2.00000
   11    -17.21907    2.00000
   12    -16.41048    2.00000
   13    -16.16454    2.00000
   14    -15.71415    2.00000
   15    -14.90346    2.00000
   16    -14.70568    2.00000
   17    -14.17440    2.00000
   18    -13.88515    2.00000
   19    -13.11693    2.00000
   20    -12.64594    2.00000
   21    -11.89592    2.00000
   22    -11.77323    2.00000
   23    -10.68694    2.00000
   24    -10.05943    2.00000
   25     -9.91413    2.00000
   26     -9.79608    2.00000
   27     -9.50927    2.00000
   28     -9.41573    2.00000
   29     -8.83298    2.00000
   30     -8.75769    2.00000
   31     -8.49355    2.00000
   32     -8.39132    2.00000
   33     -8.06166    2.00000
   34     -7.94892    2.00000
   35     -7.52436    2.00000
   36     -7.30972    2.00000
   37     -7.26034    2.00000
   38     -6.95891    2.00000
   39     -6.70853    2.00000
   40     -6.31437    2.00000
   41     -6.10139    2.00000
   42     -6.02198    1.99999
   43     -5.65666    1.99968
   44     -5.54202    1.99900
   45     -5.17875    1.96294
   46     -5.10523    1.92423
   47     -4.81604    1.16971
   48     -4.74333    0.81014
   49     -4.51443    0.12913
   50     -4.18304    0.00501
   51     -3.79911    0.00011
   52     -3.72364    0.00005
   53     -3.32138    0.00000
   54     -3.12581    0.00000
   55     -2.52916    0.00000
   56     -2.06759    0.00000
   57     -1.83078    0.00000
   58     -1.09286    0.00000
   59     -0.81859    0.00000
   60     -0.45402    0.00000
   61     -0.32832    0.00000
   62     -0.16016    0.00000
   63      0.47385    0.00000
   64      1.00812    0.00000
   65      1.64293    0.00000
   66      2.04535    0.00000
   67      2.42676    0.00000
   68      3.36131    0.00000
   69      3.37026    0.00000
   70      3.63673    0.00000
   71      4.45918    0.00000
   72      4.70035    0.00000
   73      4.96912    0.00000
   74      5.44092    0.00000
   75      5.84437    0.00000
   76      6.00857    0.00000
   77      6.68230    0.00000
   78      6.84818    0.00000
   79      7.16357    0.00000
   80      7.52044    0.00000
   81      7.73297    0.00000
   82      8.38463    0.00000
   83      8.54853    0.00000
   84      8.71661    0.00000
   85      8.81251    0.00000
   86      8.89040    0.00000
   87      9.03753    0.00000
   88      9.09239    0.00000
   89      9.18127    0.00000
   90      9.27731    0.00000
   91      9.46319    0.00000
   92      9.52214    0.00000
   93      9.71920    0.00000
   94      9.83096    0.00000
   95      9.96439    0.00000
   96     10.01952    0.00000
   97     10.17776    0.00000


Forces in eV/Ang:
  0 C     0.05492    0.84065   -0.22956
  1 C    -2.35137   -1.20347    0.11475
  2 C    -1.01173   -1.04879    0.04738
  3 C    -0.28682    0.24823   -0.07137
  4 C     0.41168   -1.79900    0.20778
  5 C     0.72293   -0.59215   -0.20894
  6 C    -0.36594    3.26484    0.52833
  7 C     0.19939   -0.66849   -0.07122
  8 C     7.56426    3.16178   -1.53936
  9 C    -0.92535    0.22549    0.18427
 10 C     0.28518    0.62785    0.09320
 11 C     1.76055    1.77383   -0.74620
 12 C     1.56083    0.80982    0.11710
 13 C    -1.63512    1.04984    0.27301
 14 C    -0.90752   -2.39045   -0.23193
 15 C     0.26472   -0.52548    0.10628
 16 C    -2.44359    2.91828    0.61259
 17 C     0.46932   -2.94602   -0.11485
 18 C    -2.02745   -0.38413   -0.11709
 19 C    -3.71623   -1.89248    1.61185
 20 C     0.67708   -2.38178   -0.53338
 21 C     0.14449    0.27031    0.15820
 22 C     2.27911   -0.81666   -0.13971
 23 C    -0.69470    1.39620   -0.11453

System changes: positions 

Initializing position-dependent things.

Density initialized from wave functions
           .--------------------------------------.  
          /|                                      |  
         / |                                      |  
        /  |                                      |  
       /   |                                      |  
      /    |                                      |  
     /     |                                      |  
    /      |                                      |  
   /       |    C                                 |  
  /        |    C         C   C  C                |  
 *         |     C     C           C              |  
 |         | C   C CC               C             |  
 |         .----C-----C-----------C---------------.  
 |        /    C  C     C   C                    /   
 |       /          C  C   C C                  /    
 |      /                                      /     
 |     /                                      /      
 |    /                                      /       
 |   /                                      /        
 |  /                                      /         
 | /                                      /          
 |/                                      /           
 *--------------------------------------*            

Positions:
   0 C     10.359436    4.567209    4.381257
   1 C      7.240964    6.038171    5.461839
   2 C      9.621426    3.494902    4.446928
   3 C      7.034891    3.070518    4.959993
   4 C      9.648953    5.739312    4.761412
   5 C      8.241562    3.700691    4.854150
   6 C      8.267249    5.207478    5.109528
   7 C      5.844369    3.632411    5.219829
   8 C      5.827241    6.411098    5.581332
   9 C      4.543042    5.695984    5.545506
  10 C      4.724244    4.253923    5.397422
  11 C      3.414024    6.568427    5.595233
  12 C      7.983660    9.623366    5.573320
  13 C      4.497794    8.265334    5.253230
  14 C      6.899863    8.968580    5.434716
  15 C      3.025095   11.953226    5.025022
  16 C     11.581923    9.025691    5.455135
  17 C      4.056341    9.540509    5.241983
  18 C      9.260421    9.997259    5.651745
  19 C      5.931994    7.939704    5.275511
  20 C     12.165375    7.892071    5.199056
  21 C     11.954890    6.605004    4.907757
  22 C     10.531268    9.798253    5.624314
  23 C      3.560344   10.754483    5.172370

Unit cell:
           periodic     x           y           z      points  spacing
  1. axis:    yes   16.000000    0.000000    0.000000    80     0.2000
  2. axis:    yes    0.000000   16.000000    0.000000    80     0.2000
  3. axis:    yes    0.000000    0.000000   10.000000    48     0.2083

Effective grid spacing dv^(1/3) = 0.2027

                     log10-error:    total        iterations:
           time      wfs    density  energy       fermi  poisson
iter:   1  09:32:43          +inf  -170.936925    4      5      
iter:   2  09:32:44         -1.73  -170.778800    3      2      
iter:   3  09:32:44         -2.08  -170.761607    3      2      
iter:   4  09:32:45         -2.26  -170.751163    3      2      
iter:   5  09:32:45         -2.40  -170.746304    3      2      
iter:   6  09:32:46         -2.57  -170.746177    2      2      
iter:   7  09:32:46         -2.70  -170.746569    2      2      
iter:   8  09:32:47         -2.86  -170.746085    2      2      
iter:   9  09:32:47         -3.10  -170.745462    2      1      
iter:  10  09:32:48         -3.29  -170.745262    2      1      
iter:  11  09:32:48         -3.49  -170.745425    2      1      
iter:  12  09:32:49         -3.59  -170.745156    2      1      
iter:  13  09:32:49         -3.75  -170.745419    2      1      
iter:  14  09:32:50         -3.84  -170.745512    2      1      
iter:  15  09:32:50         -3.92  -170.745217    2      1      
iter:  16  09:32:51         -4.14  -170.745640    2      1      

Converged after 16 iterations.

Dipole moment: (1.044175, -0.165723, 0.146325) |e|*Ang

Energy contributions relative to reference atoms: (reference = -24663.074771)

Kinetic:        +80.765683
Potential:      -96.352279
External:        +0.000000
XC:            -157.874993
Entropy (-ST):   -0.370662
Local:           +2.901280
--------------------------
Free energy:   -170.930971
Extrapolated:  -170.745640

Fermi level: -4.80406

 Band  Eigenvalues  Occupancy
    0    -22.14534    2.00000
    1    -21.68319    2.00000
    2    -21.21572    2.00000
    3    -20.63219    2.00000
    4    -20.18832    2.00000
    5    -19.79645    2.00000
    6    -19.42826    2.00000
    7    -19.08643    2.00000
    8    -18.68235    2.00000
    9    -17.98686    2.00000
   10    -17.64414    2.00000
   11    -17.32502    2.00000
   12    -16.49186    2.00000
   13    -16.20612    2.00000
   14    -15.68849    2.00000
   15    -14.90368    2.00000
   16    -14.70844    2.00000
   17    -14.18874    2.00000
   18    -13.91664    2.00000
   19    -13.14756    2.00000
   20    -12.72881    2.00000
   21    -11.91815    2.00000
   22    -11.70623    2.00000
   23    -10.85491    2.00000
   24    -10.10373    2.00000
   25    -10.01069    2.00000
   26     -9.81190    2.00000
   27     -9.63441    2.00000
   28     -9.43835    2.00000
   29     -8.92267    2.00000
   30     -8.74704    2.00000
   31     -8.47632    2.00000
   32     -8.38849    2.00000
   33     -8.10313    2.00000
   34     -7.97958    2.00000
   35     -7.54319    2.00000
   36     -7.29160    2.00000
   37     -7.22684    2.00000
   38     -7.01992    2.00000
   39     -6.69103    2.00000
   40     -6.34448    2.00000
   41     -6.09376    1.99999
   42     -5.91098    1.99997
   43     -5.67207    1.99966
   44     -5.58168    1.99916
   45     -5.21130    1.96650
   46     -5.18324    1.95589
   47     -4.83868    1.17141
   48     -4.74786    0.72617
   49     -4.56770    0.17198
   50     -4.26511    0.00909
   51     -3.83644    0.00013
   52     -3.73727    0.00005
   53     -3.36283    0.00000
   54     -3.11153    0.00000
   55     -2.47457    0.00000
   56     -2.01606    0.00000
   57     -1.78017    0.00000
   58     -1.08882    0.00000
   59     -0.80191    0.00000
   60     -0.41977    0.00000
   61     -0.27941    0.00000
   62     -0.16799    0.00000
   63      0.46800    0.00000
   64      0.99882    0.00000
   65      1.60632    0.00000
   66      2.00109    0.00000
   67      2.44466    0.00000
   68      3.39144    0.00000
   69      3.40166    0.00000
   70      3.89852    0.00000
   71      4.58757    0.00000
   72      4.79316    0.00000
   73      4.94226    0.00000
   74      5.40567    0.00000
   75      5.85846    0.00000
   76      5.92692    0.00000
   77      6.60639    0.00000
   78      6.68140    0.00000
   79      7.18003    0.00000
   80      7.64115    0.00000
   81      7.75332    0.00000
   82      8.48873    0.00000
   83      8.57488    0.00000
   84      8.63482    0.00000
   85      8.75613    0.00000
   86      8.79887    0.00000
   87      9.00026    0.00000
   88      9.07141    0.00000
   89      9.16089    0.00000
   90      9.25883    0.00000
   91      9.43447    0.00000
   92      9.48157    0.00000
   93      9.75820    0.00000
   94      9.88483    0.00000
   95      9.94069    0.00000
   96     10.01430    0.00000
   97     10.17136    0.00000


Forces in eV/Ang:
  0 C    -0.07274    0.39042   -0.23230
  1 C    -1.80815   -1.16475    0.01133
  2 C    -0.67386   -0.63520    0.00444
  3 C    -0.08344    0.26395   -0.09213
  4 C     0.27912   -1.69182    0.25581
  5 C     0.48029   -0.34917   -0.14248
  6 C    -0.27398    2.75774    0.48533
  7 C    -0.00543   -0.53072   -0.03363
  8 C     5.72521    2.58288   -1.41093
  9 C    -0.08963    0.51413    0.21191
 10 C     0.34849    0.72064    0.09581
 11 C     1.78761    1.70014   -0.72893
 12 C     0.10342   -0.00489   -0.05133
 13 C    -1.48871    0.21588    0.32924
 14 C    -0.29826   -1.92786   -0.15471
 15 C     0.07097   -0.08969    0.05217
 16 C    -0.84624    0.78926    0.12972
 17 C    -0.30990   -0.93508   -0.19501
 18 C    -0.53147   -0.33474   -0.08355
 19 C    -2.88233   -1.45013    1.51739
 20 C     0.01707   -0.77328   -0.16827
 21 C     0.15986    0.14014    0.11949
 22 C     0.43363   -0.01739    0.01768
 23 C    -0.02807   -0.23184    0.00258

System changes: positions 

Initializing position-dependent things.

Density initialized from wave functions
           .--------------------------------------.  
          /|                                      |  
         / |                                      |  
        /  |                                      |  
       /   |                                      |  
      /    |                                      |  
     /     |                                      |  
    /      |                                      |  
   /       |    C                                 |  
  /        |    C         C   C  C                |  
 *         |     C     C           C              |  
 |         | C   C CC               C             |  
 |         .----C-----C-----------C---------------.  
 |        /    C  C     C   C                    /   
 |       /          C  C   C C                  /    
 |      /                                      /     
 |     /                                      /      
 |    /                                      /       
 |   /                                      /        
 |  /                                      /         
 | /                                      /          
 |/                                      /           
 *--------------------------------------*            

Positions:
   0 C     10.358697    4.568987    4.379676
   1 C      7.229751    6.030348    5.461717
   2 C      9.617508    3.491393    4.446875
   3 C      7.034718    3.072338    4.959328
   4 C      9.650590    5.728046    4.763240
   5 C      8.244351    3.698792    4.853312
   6 C      8.265569    5.225200    5.112736
   7 C      5.843937    3.629078    5.219674
   8 C      5.862515    6.427495    5.572012
   9 C      4.544046    5.700027    5.546996
  10 C      4.726730    4.258989    5.398077
  11 C      3.426198    6.579814    5.590323
  12 C      7.981549    9.621761    5.572647
  13 C      4.487981    8.265188    5.255571
  14 C      6.899016    8.956400    5.433816
  15 C      3.025203   11.953459    5.025272
  16 C     11.579267    9.026935    5.455083
  17 C      4.052736    9.538048    5.240506
  18 C      9.259704    9.995085    5.651243
  19 C      5.914058    7.930725    5.285618
  20 C     12.164218    7.889930    5.198619
  21 C     11.956003    6.605703    4.908493
  22 C     10.530648    9.799677    5.624737
  23 C      3.561440   10.749770    5.172614

Unit cell:
           periodic     x           y           z      points  spacing
  1. axis:    yes   16.000000    0.000000    0.000000    80     0.2000
  2. axis:    yes    0.000000   16.000000    0.000000    80     0.2000
  3. axis:    yes    0.000000    0.000000   10.000000    48     0.2083

Effective grid spacing dv^(1/3) = 0.2027

                     log10-error:    total        iterations:
           time      wfs    density  energy       fermi  poisson
iter:   1  09:32:53          +inf  -171.369884    4      5      
iter:   2  09:32:53         -1.82  -171.263711    3      2      
iter:   3  09:32:54         -2.18  -171.249014    3      2      
iter:   4  09:32:54         -2.42  -171.243364    2      2      
iter:   5  09:32:55         -2.54  -171.238967    2      2      
iter:   6  09:32:55         -2.79  -171.236841    2      1      
iter:   7  09:32:56         -2.90  -171.239446    2      2      
iter:   8  09:32:56         -3.03  -171.236578    2      1      
iter:   9  09:32:57         -3.16  -171.239222    2      2      
iter:  10  09:32:57         -3.39  -171.239190    2      1      
iter:  11  09:32:58         -3.60  -171.238664    2      1      
iter:  12  09:32:58         -3.70  -171.238946    2      1      
iter:  13  09:32:59         -3.82  -171.239283    2      1      
iter:  14  09:32:59         -3.97  -171.238979    2      1      
iter:  15  09:33:00         -4.14  -171.239293    2      1      

Converged after 15 iterations.

Dipole moment: (1.014622, -0.144935, 0.142783) |e|*Ang

Energy contributions relative to reference atoms: (reference = -24663.074771)

Kinetic:        +81.339602
Potential:      -97.002787
External:        +0.000000
XC:            -158.308147
Entropy (-ST):   -0.370279
Local:           +2.917180
--------------------------
Free energy:   -171.424433
Extrapolated:  -171.239293

Fermi level: -4.78385

 Band  Eigenvalues  Occupancy
    0    -22.13571    2.00000
    1    -21.69421    2.00000
    2    -21.20024    2.00000
    3    -20.59533    2.00000
    4    -20.17700    2.00000
    5    -19.81971    2.00000
    6    -19.42415    2.00000
    7    -19.12353    2.00000
    8    -18.71273    2.00000
    9    -17.94985    2.00000
   10    -17.68938    2.00000
   11    -17.35647    2.00000
   12    -16.54067    2.00000
   13    -16.20434    2.00000
   14    -15.69128    2.00000
   15    -14.93407    2.00000
   16    -14.68604    2.00000
   17    -14.20069    2.00000
   18    -13.90140    2.00000
   19    -13.14906    2.00000
   20    -12.74243    2.00000
   21    -11.87821    2.00000
   22    -11.56932    2.00000
   23    -10.97267    2.00000
   24    -10.12916    2.00000
   25    -10.10716    2.00000
   26     -9.79914    2.00000
   27     -9.69764    2.00000
   28     -9.43874    2.00000
   29     -9.00710    2.00000
   30     -8.71086    2.00000
   31     -8.47138    2.00000
   32     -8.39424    2.00000
   33     -8.14684    2.00000
   34     -7.98444    2.00000
   35     -7.56079    2.00000
   36     -7.31207    2.00000
   37     -7.22542    2.00000
   38     -7.03747    2.00000
   39     -6.69105    2.00000
   40     -6.36391    2.00000
   41     -6.08228    2.00000
   42     -5.95705    1.99998
   43     -5.64467    1.99963
   44     -5.58382    1.99933
   45     -5.22516    1.97606
   46     -5.17277    1.95990
   47     -4.81700    1.16424
   48     -4.71925    0.68779
   49     -4.56596    0.20332
   50     -4.24947    0.00951
   51     -3.84865    0.00017
   52     -3.75469    0.00007
   53     -3.35552    0.00000
   54     -3.08935    0.00000
   55     -2.40234    0.00000
   56     -1.99090    0.00000
   57     -1.76613    0.00000
   58     -1.06033    0.00000
   59     -0.77487    0.00000
   60     -0.38160    0.00000
   61     -0.20024    0.00000
   62     -0.15896    0.00000
   63      0.51495    0.00000
   64      1.05333    0.00000
   65      1.62781    0.00000
   66      2.03587    0.00000
   67      2.44728    0.00000
   68      3.40512    0.00000
   69      3.45678    0.00000
   70      4.08394    0.00000
   71      4.71169    0.00000
   72      4.89954    0.00000
   73      5.01593    0.00000
   74      5.51888    0.00000
   75      5.86747    0.00000
   76      5.98962    0.00000
   77      6.49655    0.00000
   78      6.69740    0.00000
   79      7.26549    0.00000
   80      7.65213    0.00000
   81      7.81372    0.00000
   82      8.40237    0.00000
   83      8.55806    0.00000
   84      8.61230    0.00000
   85      8.76501    0.00000
   86      8.80797    0.00000
   87      8.99861    0.00000
   88      9.08090    0.00000
   89      9.16765    0.00000
   90      9.26201    0.00000
   91      9.42647    0.00000
   92      9.48483    0.00000
   93      9.76626    0.00000
   94      9.88863    0.00000
   95      9.94856    0.00000
   96     10.01753    0.00000
   97     10.17840    0.00000


Forces in eV/Ang:
  0 C    -0.07573    0.02234   -0.28181
  1 C    -1.14728   -1.04382   -0.08275
  2 C    -0.48270   -0.41844   -0.00935
  3 C    -0.01757    0.27926   -0.08816
  4 C     0.17355   -1.46978    0.33519
  5 C     0.30137   -0.11867   -0.07666
  6 C    -0.05287    2.15833    0.40165
  7 C    -0.09094   -0.44127   -0.01588
  8 C     4.00833    2.18337   -1.16781
  9 C     0.35094    0.60626    0.18635
 10 C     0.36689    0.83233    0.11518
 11 C     1.90369    1.67027   -0.74732
 12 C    -0.17270   -0.22206   -0.08703
 13 C    -1.45434   -0.19004    0.41364
 14 C    -0.19152   -1.72524   -0.16008
 15 C     0.17589   -0.32524    0.08186
 16 C    -0.69931    0.59535    0.09642
 17 C    -0.30389   -0.88758   -0.17461
 18 C    -0.65194   -0.33261   -0.08247
 19 C    -2.23963   -0.96831    1.42800
 20 C    -0.07081   -0.50676   -0.10920
 21 C     0.15743    0.05814    0.09679
 22 C     0.43957   -0.00573    0.01291
 23 C    -0.21134    0.21292   -0.04878

System changes: positions 

Initializing position-dependent things.

Density initialized from wave functions
           .--------------------------------------.  
          /|                                      |  
         / |                                      |  
        /  |                                      |  
       /   |                                      |  
      /    |                                      |  
     /     |                                      |  
    /      |                                      |  
   /       |                                      |  
  /        |    C         C   C  C                |  
 *         |     C     C           C              |  
 |         |  C  C CC               C             |  
 |         .----C-----C-----------C---------------.  
 |        /    C  C     C   C                    /   
 |       /          C  C   C C                  /    
 |      /                                      /     
 |     /                                      /      
 |    /                                      /       
 |   /                                      /        
 |  /                                      /         
 | /                                      /          
 |/                                      /           
 *--------------------------------------*            

Positions:
   0 C     10.357626    4.566742    4.376399
   1 C      7.221307    6.019666    5.460207
   2 C      9.613769    3.488605    4.446633
   3 C      7.035201    3.075458    4.958353
   4 C      9.651748    5.713334    4.767312
   5 C      8.246359    3.698992    4.852901
   6 C      8.266158    5.244929    5.116628
   7 C      5.842189    3.624960    5.219651
   8 C      5.894780    6.448257    5.560702
   9 C      4.551373    5.707538    5.548949
  10 C      4.730900    4.268670    5.399415
  11 C      3.447371    6.597619    5.582185
  12 C      7.975732    9.616870    5.571232
  13 C      4.472668    8.259762    5.260530
  14 C      6.898555    8.939498    5.432203
  15 C      3.027216   11.949694    5.026190
  16 C     11.575328    9.028549    5.455079
  17 C      4.048025    9.532396    5.238558
  18 C      9.254891    9.991587    5.650417
  19 C      5.894252    7.923227    5.300496
  20 C     12.161830    7.888632    5.198381
  21 C     11.957725    6.605723    4.909366
  22 C     10.531999    9.801154    5.625148
  23 C      3.559571   10.751039    5.172073

Unit cell:
           periodic     x           y           z      points  spacing
  1. axis:    yes   16.000000    0.000000    0.000000    80     0.2000
  2. axis:    yes    0.000000   16.000000    0.000000    80     0.2000
  3. axis:    yes    0.000000    0.000000   10.000000    48     0.2083

Effective grid spacing dv^(1/3) = 0.2027

                     log10-error:    total        iterations:
           time      wfs    density  energy       fermi  poisson
iter:   1  09:33:01          +inf  -171.850700    4      5      
iter:   2  09:33:02         -1.79  -171.739423    3      2      
iter:   3  09:33:03         -2.15  -171.722366    3      2      
iter:   4  09:33:03         -2.42  -171.713952    2      1      
iter:   5  09:33:04         -2.50  -171.711571    2      2      
iter:   6  09:33:04         -2.76  -171.710000    2      1      
iter:   7  09:33:05         -2.86  -171.712094    2      2      
iter:   8  09:33:05         -3.01  -171.707360    2      1      
iter:   9  09:33:06         -3.16  -171.711881    2      2      
iter:  10  09:33:06         -3.36  -171.711190    2      1      
iter:  11  09:33:07         -3.55  -171.711262    2      1      
iter:  12  09:33:07         -3.65  -171.711850    2      1      
iter:  13  09:33:08         -3.80  -171.712169    2      1      
iter:  14  09:33:08         -3.81  -171.712312    2      1      
iter:  15  09:33:09         -4.08  -171.712098    2      1      

Converged after 15 iterations.

Dipole moment: (0.985234, -0.153083, 0.140754) |e|*Ang

Energy contributions relative to reference atoms: (reference = -24663.074771)

Kinetic:        +83.269019
Potential:      -98.659224
External:        +0.000000
XC:            -159.070677
Entropy (-ST):   -0.367425
Local:           +2.932496
--------------------------
Free energy:   -171.895810
Extrapolated:  -171.712098

Fermi level: -4.76544

 Band  Eigenvalues  Occupancy
    0    -22.15933    2.00000
    1    -21.74994    2.00000
    2    -21.17991    2.00000
    3    -20.57846    2.00000
    4    -20.16866    2.00000
    5    -19.85845    2.00000
    6    -19.42145    2.00000
    7    -19.15712    2.00000
    8    -18.74454    2.00000
    9    -17.93697    2.00000
   10    -17.77823    2.00000
   11    -17.37659    2.00000
   12    -16.60304    2.00000
   13    -16.20596    2.00000
   14    -15.69003    2.00000
   15    -14.98277    2.00000
   16    -14.68085    2.00000
   17    -14.22673    2.00000
   18    -13.90451    2.00000
   19    -13.16988    2.00000
   20    -12.76568    2.00000
   21    -11.85387    2.00000
   22    -11.45103    2.00000
   23    -11.08955    2.00000
   24    -10.29366    2.00000
   25    -10.14258    2.00000
   26     -9.78832    2.00000
   27     -9.72003    2.00000
   28     -9.45733    2.00000
   29     -9.14966    2.00000
   30     -8.69319    2.00000
   31     -8.46816    2.00000
   32     -8.40010    2.00000
   33     -8.19102    2.00000
   34     -7.99470    2.00000
   35     -7.57484    2.00000
   36     -7.35563    2.00000
   37     -7.22248    2.00000
   38     -7.06589    2.00000
   39     -6.68580    2.00000
   40     -6.39267    2.00000
   41     -6.07702    2.00000
   42     -5.93932    1.99998
   43     -5.62347    1.99962
   44     -5.60058    1.99953
   45     -5.27310    1.98759
   46     -5.15978    1.96197
   47     -4.79838    1.16318
   48     -4.69136    0.64563
   49     -4.56242    0.23212
   50     -4.23617    0.01001
   51     -3.86935    0.00026
   52     -3.77991    0.00010
   53     -3.33997    0.00000
   54     -3.06162    0.00000
   55     -2.36221    0.00000
   56     -1.96662    0.00000
   57     -1.73825    0.00000
   58     -1.04423    0.00000
   59     -0.74307    0.00000
   60     -0.33245    0.00000
   61     -0.16067    0.00000
   62     -0.02457    0.00000
   63      0.56243    0.00000
   64      1.11326    0.00000
   65      1.66335    0.00000
   66      2.10422    0.00000
   67      2.48193    0.00000
   68      3.41626    0.00000
   69      3.49177    0.00000
   70      4.16400    0.00000
   71      4.73410    0.00000
   72      4.85236    0.00000
   73      5.17838    0.00000
   74      5.64148    0.00000
   75      5.93124    0.00000
   76      6.06906    0.00000
   77      6.46385    0.00000
   78      6.74300    0.00000
   79      7.36859    0.00000
   80      7.67542    0.00000
   81      7.89442    0.00000
   82      8.31745    0.00000
   83      8.55624    0.00000
   84      8.61302    0.00000
   85      8.76765    0.00000
   86      8.83949    0.00000
   87      8.99655    0.00000
   88      9.09025    0.00000
   89      9.17126    0.00000
   90      9.28331    0.00000
   91      9.42221    0.00000
   92      9.48457    0.00000
   93      9.77056    0.00000
   94      9.90106    0.00000
   95      9.96250    0.00000
   96     10.02983    0.00000
   97     10.17978    0.00000


Forces in eV/Ang:
  0 C     0.04697   -0.13638   -0.34607
  1 C    -0.59219   -0.78786   -0.15526
  2 C    -0.45302   -0.36505    0.00505
  3 C     0.00668    0.28673   -0.07340
  4 C     0.15185   -1.14330    0.37278
  5 C     0.14382   -0.02522   -0.03454
  6 C     0.19585    1.51204    0.28696
  7 C    -0.17632   -0.30886    0.00060
  8 C     2.52268    1.70040   -0.86955
  9 C     0.56631    0.63351    0.10849
 10 C     0.44929    0.86180    0.12342
 11 C     1.93978    1.74907   -0.74488
 12 C    -0.19197   -0.30804   -0.09528
 13 C    -1.42822   -0.57636    0.49421
 14 C    -0.24795   -1.54838   -0.13489
 15 C     0.02661    0.01347    0.04254
 16 C    -0.47692    0.35588    0.05465
 17 C    -0.52158   -0.39430   -0.16399
 18 C    -0.44992   -0.39593   -0.09322
 19 C    -1.56954   -0.42914    1.23538
 20 C    -0.12264   -0.36437   -0.08277
 21 C     0.17024    0.04439    0.09720
 22 C    -0.03947    0.14242    0.03611
 23 C     0.07272   -0.43035   -0.01031

System changes: positions 

Initializing position-dependent things.

Density initialized from wave functions
           .--------------------------------------.  
          /|                                      |  
         / |                                      |  
        /  |                                      |  
       /   |                                      |  
      /    |                                      |  
     /     |                                      |  
    /      |                                      |  
   /       |    C                                 |  
  /        |    C         C   C  C                |  
 *         |     C     C           C              |  
 |         |  C  C CC               C             |  
 |         .----C-----C-----------C---------------.  
 |        /    C C      C   C                    /   
 |       /          C  C   C C                  /    
 |      /                                      /     
 |     /                                      /      
 |    /                                      /       
 |   /                                      /        
 |  /                                      /         
 | /                                      /          
 |/                                      /           
 *--------------------------------------*            

Positions:
   0 C     10.358269    4.563161    4.371140
   1 C      7.215417    6.008657    5.457526
   2 C      9.608006    3.484270    4.446638
   3 C      7.035654    3.079719    4.957285
   4 C      9.653522    5.697534    4.773083
   5 C      8.247653    3.699591    4.852675
   6 C      8.269922    5.264485    5.120477
   7 C      5.839164    3.620872    5.219749
   8 C      5.924220    6.471270    5.548985
   9 C      4.561744    5.717308    5.550440
  10 C      4.737605    4.281733    5.401293
  11 C      3.476192    6.623101    5.571230
  12 C      7.971103    9.611102    5.569612
  13 C      4.451976    8.249307    5.268115
  14 C      6.895635    8.917863    5.430264
  15 C      3.027802   11.949452    5.026870
  16 C     11.569873    9.031750    5.455464
  17 C      4.039877    9.528143    5.236184
  18 C      9.248844    9.985807    5.649073
  19 C      5.874204    7.919043    5.318152
  20 C     12.159324    7.885216    5.197598
  21 C     11.960222    6.606009    4.910688
  22 C     10.530190    9.803802    5.625762
  23 C      3.560495   10.745091    5.171828

Unit cell:
           periodic     x           y           z      points  spacing
  1. axis:    yes   16.000000    0.000000    0.000000    80     0.2000
  2. axis:    yes    0.000000   16.000000    0.000000    80     0.2000
  3. axis:    yes    0.000000    0.000000   10.000000    48     0.2083

Effective grid spacing dv^(1/3) = 0.2027

                     log10-error:    total        iterations:
           time      wfs    density  energy       fermi  poisson
iter:   1  09:33:10          +inf  -172.295532    4      5      
iter:   2  09:33:11         -1.79  -172.180117    3      2      
iter:   3  09:33:11         -2.13  -172.163267    3      2      
iter:   4  09:33:12         -2.39  -172.158590    3      2      
iter:   5  09:33:13         -2.48  -172.152275    2      2      
iter:   6  09:33:13         -2.70  -172.151956    2      2      
iter:   7  09:33:14         -2.83  -172.151933    2      2      
iter:   8  09:33:14         -2.96  -172.151889    2      2      
iter:   9  09:33:15         -3.16  -172.149773    2      1      
iter:  10  09:33:15         -3.29  -172.148997    2      1      
iter:  11  09:33:16         -3.61  -172.151998    2      1      
iter:  12  09:33:16         -3.69  -172.151603    2      1      
iter:  13  09:33:17         -3.83  -172.151843    2      1      
iter:  14  09:33:17         -3.96  -172.151992    2      1      
iter:  15  09:33:18         -4.03  -172.151948    2      1      

Converged after 15 iterations.

Dipole moment: (0.889945, -0.118524, 0.137950) |e|*Ang

Energy contributions relative to reference atoms: (reference = -24663.074771)

Kinetic:        +85.129447
Potential:     -100.214784
External:        +0.000000
XC:            -159.823326
Entropy (-ST):   -0.364244
Local:           +2.938837
--------------------------
Free energy:   -172.334070
Extrapolated:  -172.151948

Fermi level: -4.72686

 Band  Eigenvalues  Occupancy
    0    -22.18059    2.00000
    1    -21.80783    2.00000
    2    -21.13802    2.00000
    3    -20.55895    2.00000
    4    -20.13294    2.00000
    5    -19.91051    2.00000
    6    -19.41164    2.00000
    7    -19.17402    2.00000
    8    -18.75790    2.00000
    9    -17.93095    2.00000
   10    -17.85456    2.00000
   11    -17.36082    2.00000
   12    -16.65232    2.00000
   13    -16.20188    2.00000
   14    -15.68191    2.00000
   15    -15.04040    2.00000
   16    -14.66674    2.00000
   17    -14.25499    2.00000
   18    -13.89524    2.00000
   19    -13.18338    2.00000
   20    -12.78751    2.00000
   21    -11.82609    2.00000
   22    -11.36361    2.00000
   23    -11.13721    2.00000
   24    -10.45958    2.00000
   25    -10.17343    2.00000
   26     -9.76017    2.00000
   27     -9.70358    2.00000
   28     -9.46711    2.00000
   29     -9.35227    2.00000
   30     -8.66848    2.00000
   31     -8.44935    2.00000
   32     -8.38251    2.00000
   33     -8.23148    2.00000
   34     -7.98772    2.00000
   35     -7.58374    2.00000
   36     -7.42259    2.00000
   37     -7.21747    2.00000
   38     -7.07297    2.00000
   39     -6.65435    2.00000
   40     -6.40522    2.00000
   41     -6.04448    2.00000
   42     -6.01982    2.00000
   43     -5.61179    1.99971
   44     -5.58850    1.99964
   45     -5.31556    1.99446
   46     -5.12591    1.96369
   47     -4.76119    1.16997
   48     -4.64459    0.61038
   49     -4.53255    0.25061
   50     -4.20599    0.01088
   51     -3.88286    0.00043
   52     -3.81845    0.00023
   53     -3.31727    0.00000
   54     -3.02648    0.00000
   55     -2.35643    0.00000
   56     -1.93611    0.00000
   57     -1.70473    0.00000
   58     -1.02526    0.00000
   59     -0.69591    0.00000
   60     -0.27512    0.00000
   61     -0.13106    0.00000
   62      0.17002    0.00000
   63      0.62826    0.00000
   64      1.18629    0.00000
   65      1.70203    0.00000
   66      2.19099    0.00000
   67      2.50760    0.00000
   68      3.40273    0.00000
   69      3.53797    0.00000
   70      4.21159    0.00000
   71      4.70202    0.00000
   72      4.81753    0.00000
   73      5.27474    0.00000
   74      5.72420    0.00000
   75      5.99103    0.00000
   76      6.27449    0.00000
   77      6.50709    0.00000
   78      6.82874    0.00000
   79      7.47258    0.00000
   80      7.74582    0.00000
   81      7.98308    0.00000
   82      8.29125    0.00000
   83      8.53265    0.00000
   84      8.63717    0.00000
   85      8.76706    0.00000
   86      8.92566    0.00000
   87      8.99935    0.00000
   88      9.09039    0.00000
   89      9.18388    0.00000
   90      9.31633    0.00000
   91      9.42201    0.00000
   92      9.49867    0.00000
   93      9.77896    0.00000
   94      9.90674    0.00000
   95      9.97829    0.00000
   96     10.06186    0.00000
   97     10.19469    0.00000


Forces in eV/Ang:
  0 C     0.09901   -0.30873   -0.39890
  1 C    -0.15416   -0.51804   -0.19487
  2 C    -0.32454   -0.25194    0.00383
  3 C    -0.01277    0.28316   -0.04623
  4 C     0.16932   -0.93469    0.37164
  5 C    -0.00779   -0.00825    0.00179
  6 C     0.40328    0.93727    0.18680
  7 C    -0.17371   -0.18693    0.00169
  8 C     1.30245    1.09523   -0.56443
  9 C     0.63896    0.62912    0.00242
 10 C     0.47642    0.84856    0.11184
 11 C     1.93715    1.91951   -0.75124
 12 C    -0.54376   -0.58843   -0.14195
 13 C    -1.46648   -0.93484    0.62397
 14 C     0.04090   -1.06795   -0.04865
 15 C     0.12516   -0.20808    0.07121
 16 C    -0.23661   -0.01016   -0.01854
 17 C    -0.50396   -0.58170   -0.10459
 18 C    -0.38623   -0.41702   -0.10372
 19 C    -1.04458    0.06355    0.97961
 20 C    -0.24456    0.06856   -0.00423
 21 C     0.17719   -0.06423    0.08824
 22 C    -0.20022    0.19469    0.04244
 23 C    -0.07867    0.01504   -0.07825

System changes: positions 

Initializing position-dependent things.

Density initialized from wave functions
           .--------------------------------------.  
          /|                                      |  
         / |                                      |  
        /  |                                      |  
       /   |                                      |  
      /    |                                      |  
     /     |                                      |  
    /      |                                      |  
   /       |    C                                 |  
  /        |    C         C   C  C                |  
 *         |     C     C           C              |  
 |         |  C  C  C               C             |  
 |         .----C-----C-----------C---------------.  
 |        /    C C      C   C                    /   
 |       /          C  C   C C                  /    
 |      /                                      /     
 |     /                                      /      
 |    /                                      /       
 |   /                                      /        
 |  /                                      /         
 | /                                      /          
 |/                                      /           
 *--------------------------------------*            

Positions:
   0 C     10.359447    4.559089    4.365612
   1 C      7.212061    6.000355    5.454831
   2 C      9.603100    3.480462    4.446678
   3 C      7.035581    3.083781    4.956532
   4 C      9.655803    5.683539    4.778437
   5 C      8.247965    3.699565    4.852616
   6 C      8.275058    5.279559    5.123457
   7 C      5.836644    3.617816    5.219777
   8 C      5.946090    6.488781    5.539986
   9 C      4.570895    5.726367    5.550840
  10 C      4.744291    4.293963    5.402939
  11 C      3.503919    6.649866    5.560515
  12 C      7.964256    9.603476    5.567711
  13 C      4.431195    8.236984    5.276623
  14 C      6.895395    8.901134    5.429272
  15 C      3.029417   11.946866    5.027833
  16 C     11.565751    9.032723    5.455424
  17 C      4.032721    9.520301    5.234506
  18 C      9.242959    9.979959    5.647634
  19 C      5.857793    7.918474    5.332988
  20 C     12.156176    7.884951    5.197322
  21 C     11.962719    6.605386    4.911957
  22 C     10.528058    9.806362    5.626334
  23 C      3.559598   10.744479    5.170877

Unit cell:
           periodic     x           y           z      points  spacing
  1. axis:    yes   16.000000    0.000000    0.000000    80     0.2000
  2. axis:    yes    0.000000   16.000000    0.000000    80     0.2000
  3. axis:    yes    0.000000    0.000000   10.000000    48     0.2083

Effective grid spacing dv^(1/3) = 0.2027

                     log10-error:    total        iterations:
           time      wfs    density  energy       fermi  poisson
iter:   1  09:33:19          +inf  -172.586918    4      5      
iter:   2  09:33:20         -1.89  -172.507922    3      2      
iter:   3  09:33:20         -2.22  -172.498013    3      2      
iter:   4  09:33:21         -2.46  -172.491250    3      1      
iter:   5  09:33:21         -2.57  -172.489803    2      2      
iter:   6  09:33:22         -2.77  -172.484892    3      1      
iter:   7  09:33:22         -2.89  -172.489104    2      2      
iter:   8  09:33:23         -3.04  -172.485874    2      1      
iter:   9  09:33:23         -3.21  -172.484895    2      1      
iter:  10  09:33:24         -3.39  -172.487670    2      1      
iter:  11  09:33:24         -3.56  -172.488694    2      1      
iter:  12  09:33:25         -3.69  -172.489008    2      1      
iter:  13  09:33:25         -3.76  -172.489033    2      1      
iter:  14  09:33:26         -3.84  -172.489116    2      1      
iter:  15  09:33:26         -3.92  -172.489080    2      1      
iter:  16  09:33:27         -3.99  -172.488347    2      1      
iter:  17  09:33:27         -4.29  -172.488956    2      1      

Converged after 17 iterations.

Dipole moment: (0.824917, -0.111755, 0.137461) |e|*Ang

Energy contributions relative to reference atoms: (reference = -24663.074771)

Kinetic:        +86.896538
Potential:     -101.630697
External:        +0.000000
XC:            -160.511041
Entropy (-ST):   -0.360137
Local:           +2.936313
--------------------------
Free energy:   -172.669024
Extrapolated:  -172.488956

Fermi level: -4.69733

 Band  Eigenvalues  Occupancy
    0    -22.20719    2.00000
    1    -21.85632    2.00000
    2    -21.10622    2.00000
    3    -20.55520    2.00000
    4    -20.12066    2.00000
    5    -19.94376    2.00000
    6    -19.41218    2.00000
    7    -19.18455    2.00000
    8    -18.76733    2.00000
    9    -17.95077    2.00000
   10    -17.91277    2.00000
   11    -17.34297    2.00000
   12    -16.70161    2.00000
   13    -16.20149    2.00000
   14    -15.67527    2.00000
   15    -15.08708    2.00000
   16    -14.66386    2.00000
   17    -14.28293    2.00000
   18    -13.89039    2.00000
   19    -13.19760    2.00000
   20    -12.82295    2.00000
   21    -11.80760    2.00000
   22    -11.35911    2.00000
   23    -11.09838    2.00000
   24    -10.58731    2.00000
   25    -10.20436    2.00000
   26     -9.74296    2.00000
   27     -9.70409    2.00000
   28     -9.56472    2.00000
   29     -9.47395    2.00000
   30     -8.65993    2.00000
   31     -8.45168    2.00000
   32     -8.37072    2.00000
   33     -8.25425    2.00000
   34     -7.98590    2.00000
   35     -7.60985    2.00000
   36     -7.45182    2.00000
   37     -7.21677    2.00000
   38     -7.08018    2.00000
   39     -6.63731    2.00000
   40     -6.42245    2.00000
   41     -6.03865    2.00000
   42     -6.02116    2.00000
   43     -5.63135    1.99982
   44     -5.56322    1.99965
   45     -5.35397    1.99719
   46     -5.09839    1.96440
   47     -4.73424    1.18247
   48     -4.61217    0.59818
   49     -4.50117    0.24659
   50     -4.17380    0.01059
   51     -3.90035    0.00069
   52     -3.85004    0.00042
   53     -3.29961    0.00000
   54     -3.00173    0.00000
   55     -2.37232    0.00000
   56     -1.92004    0.00000
   57     -1.66558    0.00000
   58     -1.01127    0.00000
   59     -0.64734    0.00000
   60     -0.23187    0.00000
   61     -0.09488    0.00000
   62      0.34073    0.00000
   63      0.72048    0.00000
   64      1.23401    0.00000
   65      1.74037    0.00000
   66      2.26894    0.00000
   67      2.57720    0.00000
   68      3.38677    0.00000
   69      3.57275    0.00000
   70      4.22563    0.00000
   71      4.63941    0.00000
   72      4.79529    0.00000
   73      5.27106    0.00000
   74      5.77301    0.00000
   75      6.01426    0.00000
   76      6.39846    0.00000
   77      6.55437    0.00000
   78      6.92258    0.00000
   79      7.52997    0.00000
   80      7.82516    0.00000
   81      8.02869    0.00000
   82      8.30345    0.00000
   83      8.51875    0.00000
   84      8.68794    0.00000
   85      8.76110    0.00000
   86      8.97190    0.00000
   87      9.00082    0.00000
   88      9.09205    0.00000
   89      9.19266    0.00000
   90      9.35361    0.00000
   91      9.41702    0.00000
   92      9.50645    0.00000
   93      9.76174    0.00000
   94      9.90699    0.00000
   95      9.98131    0.00000
   96     10.09829    0.00000
   97     10.20459    0.00000


Forces in eV/Ang:
  0 C     0.13964   -0.43234   -0.43416
  1 C     0.16584   -0.30899   -0.20262
  2 C    -0.22738   -0.18153    0.00422
  3 C    -0.02715    0.27826   -0.02379
  4 C     0.19595   -0.73576    0.34032
  5 C    -0.09153   -0.02267    0.02285
  6 C     0.51729    0.54335    0.14355
  7 C    -0.18670   -0.07137    0.01120
  8 C     0.53376    0.64905   -0.34011
  9 C     0.64781    0.63373   -0.07035
 10 C     0.46848    0.82120    0.12193
 11 C     1.93381    2.01930   -0.75574
 12 C    -0.40947   -0.56358   -0.13451
 13 C    -1.38418   -1.26053    0.64201
 14 C    -0.09475   -0.86872   -0.00591
 15 C     0.04481   -0.01807    0.05159
 16 C    -0.19559   -0.07617   -0.03438
 17 C    -0.74966   -0.20566   -0.08041
 18 C    -0.31249   -0.44502   -0.11237
 19 C    -0.61939    0.41272    0.77682
 20 C    -0.26754    0.13712   -0.00361
 21 C     0.20143   -0.05588    0.11083
 22 C    -0.36266    0.20543    0.04063
 23 C     0.14565   -0.46403   -0.06031

System changes: positions 

Initializing position-dependent things.

Density initialized from wave functions
           .--------------------------------------.  
          /|                                      |  
         / |                                      |  
        /  |                                      |  
       /   |                                      |  
      /    |                                      |  
     /     |                                      |  
    /      |                                      |  
   /       |    C                                 |  
  /        |    C         C   C  C                |  
 *         |     C     C           C              |  
 |         |  C  C  C               C             |  
 |         .----C-----C-----------C---------------.  
 |        /    C C      C   C                    /   
 |       /          C  C   C C                  /    
 |      /                                      /     
 |     /                                      /      
 |    /                                      /       
 |   /                                      /        
 |  /                                      /         
 | /                                      /          
 |/                                      /           
 *--------------------------------------*            

Positions:
   0 C     10.360926    4.554459    4.359917
   1 C      7.210641    5.993942    5.452325
   2 C      9.598974    3.477030    4.446731
   3 C      7.035168    3.087700    4.956018
   4 C      9.658514    5.671200    4.783232
   5 C      8.247860    3.698954    4.852641
   6 C      8.280766    5.291817    5.126190
   7 C      5.834311    3.615727    5.219853
   8 C      5.963742    6.502518    5.532857
   9 C      4.578943    5.735096    5.550571
  10 C      4.750615    4.305550    5.404648
  11 C      3.531067    6.677260    5.549905
  12 C      7.960020    9.596981    5.566052
  13 C      4.411491    8.222591    5.284976
  14 C      6.893308    8.886122    5.428676
  15 C      3.030365   11.945862    5.028631
  16 C     11.560833    9.034615    5.455557
  17 C      4.023681    9.514932    5.233122
  18 C      9.236955    9.973960    5.646121
  19 C      5.844338    7.920310    5.345817
  20 C     12.153318    7.884148    5.196775
  21 C     11.965422    6.605027    4.913495
  22 C     10.525883    9.808344    5.626764
  23 C      3.560559   10.740042    5.170063

Unit cell:
           periodic     x           y           z      points  spacing
  1. axis:    yes   16.000000    0.000000    0.000000    80     0.2000
  2. axis:    yes    0.000000   16.000000    0.000000    80     0.2000
  3. axis:    yes    0.000000    0.000000   10.000000    48     0.2083

Effective grid spacing dv^(1/3) = 0.2027

                     log10-error:    total        iterations:
           time      wfs    density  energy       fermi  poisson
iter:   1  09:33:29          +inf  -172.863690    4      5      
iter:   2  09:33:30         -1.94  -172.789586    2      2      
iter:   3  09:33:30         -2.28  -172.782968    3      2      
iter:   4  09:33:31         -2.50  -172.777559    3      1      
iter:   5  09:33:31         -2.61  -172.776374    2      2      
iter:   6  09:33:32         -2.81  -172.772147    3      1      
iter:   7  09:33:32         -2.91  -172.772167    2      1      
iter:   8  09:33:33         -3.06  -172.775929    2      2      
iter:   9  09:33:33         -3.21  -172.773306    3      1      
iter:  10  09:33:34         -3.26  -172.774194    2      1      
iter:  11  09:33:34         -3.59  -172.775345    2      1      
iter:  12  09:33:35         -3.67  -172.775253    2      1      
iter:  13  09:33:35         -3.77  -172.775165    2      1      
iter:  14  09:33:36         -3.72  -172.775603    2      1      
iter:  15  09:33:36         -3.96  -172.775324    2      1      
iter:  16  09:33:37         -4.02  -172.775410    2      1      

Converged after 16 iterations.

Dipole moment: (0.731900, -0.083712, 0.136165) |e|*Ang

Energy contributions relative to reference atoms: (reference = -24663.074771)

Kinetic:        +88.157702
Potential:     -102.624881
External:        +0.000000
XC:            -161.068283
Entropy (-ST):   -0.355115
Local:           +2.937611
--------------------------
Free energy:   -172.952967
Extrapolated:  -172.775410

Fermi level: -4.66257

 Band  Eigenvalues  Occupancy
    0    -22.22866    2.00000
    1    -21.88924    2.00000
    2    -21.06755    2.00000
    3    -20.55006    2.00000
    4    -20.10434    2.00000
    5    -19.96538    2.00000
    6    -19.41328    2.00000
    7    -19.19104    2.00000
    8    -18.76383    2.00000
    9    -17.99139    2.00000
   10    -17.92810    2.00000
   11    -17.31440    2.00000
   12    -16.73574    2.00000
   13    -16.19663    2.00000
   14    -15.67239    2.00000
   15    -15.12965    2.00000
   16    -14.66449    2.00000
   17    -14.29694    2.00000
   18    -13.87760    2.00000
   19    -13.20430    2.00000
   20    -12.85761    2.00000
   21    -11.78699    2.00000
   22    -11.37052    2.00000
   23    -11.02701    2.00000
   24    -10.67705    2.00000
   25    -10.22593    2.00000
   26     -9.85860    2.00000
   27     -9.71960    2.00000
   28     -9.62242    2.00000
   29     -9.47253    2.00000
   30     -8.65004    2.00000
   31     -8.45969    2.00000
   32     -8.34224    2.00000
   33     -8.25979    2.00000
   34     -7.97831    2.00000
   35     -7.66900    2.00000
   36     -7.44911    2.00000
   37     -7.21623    2.00000
   38     -7.08088    2.00000
   39     -6.60527    2.00000
   40     -6.42578    2.00000
   41     -6.10462    2.00000
   42     -5.99102    2.00000
   43     -5.64710    1.99989
   44     -5.53369    1.99967
   45     -5.37701    1.99842
   46     -5.06798    1.96589
   47     -4.70230    1.19607
   48     -4.57788    0.60017
   49     -4.45710    0.22715
   50     -4.14097    0.01080
   51     -3.92009    0.00119
   52     -3.87333    0.00075
   53     -3.27875    0.00000
   54     -2.97544    0.00000
   55     -2.41505    0.00000
   56     -1.89666    0.00000
   57     -1.62470    0.00000
   58     -0.99644    0.00000
   59     -0.59680    0.00000
   60     -0.19119    0.00000
   61     -0.05060    0.00000
   62      0.44067    0.00000
   63      0.84779    0.00000
   64      1.27560    0.00000
   65      1.77709    0.00000
   66      2.34316    0.00000
   67      2.68376    0.00000
   68      3.36687    0.00000
   69      3.61000    0.00000
   70      4.23998    0.00000
   71      4.57903    0.00000
   72      4.77959    0.00000
   73      5.23969    0.00000
   74      5.87213    0.00000
   75      6.04413    0.00000
   76      6.45395    0.00000
   77      6.60556    0.00000
   78      7.02005    0.00000
   79      7.57464    0.00000
   80      7.92077    0.00000
   81      8.04701    0.00000
   82      8.32238    0.00000
   83      8.50080    0.00000
   84      8.73991    0.00000
   85      8.77010    0.00000
   86      8.97879    0.00000
   87      9.04108    0.00000
   88      9.09418    0.00000
   89      9.20390    0.00000
   90      9.38167    0.00000
   91      9.41425    0.00000
   92      9.51166    0.00000
   93      9.73901    0.00000
   94      9.91234    0.00000
   95      9.98603    0.00000
   96     10.12059    0.00000
   97     10.22092    0.00000


Forces in eV/Ang:
  0 C     0.17384   -0.51587   -0.46437
  1 C     0.35267   -0.13680   -0.20053
  2 C    -0.15592   -0.14464    0.01346
  3 C    -0.04130    0.28065   -0.00403
  4 C     0.21560   -0.62350    0.31878
  5 C    -0.14051   -0.04509    0.03431
  6 C     0.60217    0.24295    0.09475
  7 C    -0.20173    0.03448    0.02262
  8 C    -0.02498    0.35852   -0.18287
  9 C     0.61112    0.65174   -0.13217
 10 C     0.45764    0.79056    0.11053
 11 C     1.92032    2.07878   -0.75350
 12 C    -0.50533   -0.62647   -0.14794
 13 C    -1.35204   -1.35703    0.69185
 14 C    -0.03620   -0.55578    0.02290
 15 C     0.08638   -0.10983    0.06555
 16 C    -0.09236   -0.23845   -0.08222
 17 C    -0.75960   -0.38506   -0.01020
 18 C    -0.21013   -0.43800   -0.11262
 19 C    -0.31066    0.62414    0.62114
 20 C    -0.32041    0.28620    0.01405
 21 C     0.22159   -0.06790    0.13416
 22 C    -0.50815    0.24231    0.04708
 23 C     0.10855   -0.30406   -0.09900

System changes: positions 

Initializing position-dependent things.

Density initialized from wave functions
           .--------------------------------------.  
          /|                                      |  
         / |                                      |  
        /  |                                      |  
       /   |                                      |  
      /    |                                      |  
     /     |                                      |  
    /      |                                      |  
   /       |    C                                 |  
  /        |    C         C   C  C                |  
 *         |     C     C           C              |  
 |         |  C  C  C               C             |  
 |         .----C-----C-----------C---------------.  
 |        /    C C       C  C                    /   
 |       /          C  C   C C                  /    
 |      /                                      /     
 |     /                                      /      
 |    /                                      /       
 |   /                                      /        
 |  /                                      /         
 | /                                      /          
 |/                                      /           
 *--------------------------------------*            

Positions:
   0 C     10.362715    4.549526    4.354018
   1 C      7.210011    5.989024    5.450017
   2 C      9.595304    3.473631    4.446907
   3 C      7.034520    3.091622    4.955697
   4 C      9.661536    5.659617    4.787683
   5 C      8.247613    3.697805    4.852675
   6 C      8.286908    5.302050    5.128573
   7 C      5.831943    3.614578    5.220032
   8 C      5.978561    6.514186    5.526872
   9 C      4.585872    5.743877    5.549757
  10 C      4.756711    4.316640    5.406204
  11 C      3.557847    6.705047    5.539380
  12 C      7.955445    9.590388    5.564344
  13 C      4.392182    8.208230    5.293639
  14 C      6.891511    8.873973    5.428299
  15 C      3.031724   11.943947    5.029565
  16 C     11.556437    9.035568    5.455325
  17 C      4.014834    9.506972    5.232492
  18 C      9.231888    9.968111    5.644622
  19 C      5.832954    7.923316    5.357269
  20 C     12.150178    7.884101    5.196240
  21 C     11.968332    6.604732    4.915327
  22 C     10.522671    9.810514    5.627234
  23 C      3.561096   10.737345    5.168871

Unit cell:
           periodic     x           y           z      points  spacing
  1. axis:    yes   16.000000    0.000000    0.000000    80     0.2000
  2. axis:    yes    0.000000   16.000000    0.000000    80     0.2000
  3. axis:    yes    0.000000    0.000000   10.000000    48     0.2083

Effective grid spacing dv^(1/3) = 0.2027

                     log10-error:    total        iterations:
           time      wfs    density  energy       fermi  poisson
iter:   1  09:33:39          +inf  -173.122553    3      5      
iter:   2  09:33:39         -1.97  -173.046630    2      2      
iter:   3  09:33:40         -2.32  -173.039138    3      1      
iter:   4  09:33:40         -2.51  -173.037875    3      2      
iter:   5  09:33:41         -2.64  -173.032871    3      2      
iter:   6  09:33:41         -2.76  -173.036534    3      2      
iter:   7  09:33:42         -2.70  -173.034689    3      1      
iter:   8  09:33:42         -2.90  -173.029616    3      1      
iter:   9  09:33:43         -3.17  -173.029916    2      1      
iter:  10  09:33:43         -3.35  -173.032616    2      1      
iter:  11  09:33:44         -3.62  -173.032652    2      1      
iter:  12  09:33:44         -3.72  -173.032722    2      1      
iter:  13  09:33:45         -3.87  -173.033289    2      1      
iter:  14  09:33:45         -3.93  -173.033329    2      1      
iter:  15  09:33:46         -4.00  -173.033024    2      1      

Converged after 15 iterations.

Dipole moment: (0.657087, -0.069703, 0.135969) |e|*Ang

Energy contributions relative to reference atoms: (reference = -24663.074771)

Kinetic:        +89.363439
Potential:     -103.561639
External:        +0.000000
XC:            -161.607441
Entropy (-ST):   -0.349590
Local:           +2.947412
--------------------------
Free energy:   -173.207819
Extrapolated:  -173.033024

Fermi level: -4.63352

 Band  Eigenvalues  Occupancy
    0    -22.25568    2.00000
    1    -21.91863    2.00000
    2    -21.03698    2.00000
    3    -20.55085    2.00000
    4    -20.10427    2.00000
    5    -19.97170    2.00000
    6    -19.42224    2.00000
    7    -19.19351    2.00000
    8    -18.76426    2.00000
    9    -18.04091    2.00000
   10    -17.93855    2.00000
   11    -17.28987    2.00000
   12    -16.76973    2.00000
   13    -16.19525    2.00000
   14    -15.67364    2.00000
   15    -15.16404    2.00000
   16    -14.67236    2.00000
   17    -14.30902    2.00000
   18    -13.87073    2.00000
   19    -13.21165    2.00000
   20    -12.89894    2.00000
   21    -11.77119    2.00000
   22    -11.38202    2.00000
   23    -10.96231    2.00000
   24    -10.75071    2.00000
   25    -10.24809    2.00000
   26    -10.10223    2.00000
   27     -9.70629    2.00000
   28     -9.60462    2.00000
   29     -9.47126    2.00000
   30     -8.64556    2.00000
   31     -8.47433    2.00000
   32     -8.31799    2.00000
   33     -8.25719    2.00000
   34     -7.97326    2.00000
   35     -7.71859    2.00000
   36     -7.43309    2.00000
   37     -7.22042    2.00000
   38     -7.08322    2.00000
   39     -6.58384    2.00000
   40     -6.43286    2.00000
   41     -6.14213    2.00000
   42     -5.96612    2.00000
   43     -5.67102    1.99994
   44     -5.50881    1.99968
   45     -5.39410    1.99901
   46     -5.04246    1.96705
   47     -4.67607    1.20958
   48     -4.55130    0.61057
   49     -4.41400    0.20036
   50     -4.11041    0.01064
   51     -3.94514    0.00205
   52     -3.88475    0.00112
   53     -3.26056    0.00000
   54     -2.95298    0.00000
   55     -2.46224    0.00000
   56     -1.88162    0.00000
   57     -1.58248    0.00000
   58     -0.98342    0.00000
   59     -0.54647    0.00000
   60     -0.15227    0.00000
   61     -0.00468    0.00000
   62      0.49184    0.00000
   63      0.97966    0.00000
   64      1.30610    0.00000
   65      1.80986    0.00000
   66      2.40712    0.00000
   67      2.84192    0.00000
   68      3.35896    0.00000
   69      3.64232    0.00000
   70      4.24522    0.00000
   71      4.51623    0.00000
   72      4.76509    0.00000
   73      5.18332    0.00000
   74      5.99507    0.00000
   75      6.07285    0.00000
   76      6.48176    0.00000
   77      6.64565    0.00000
   78      7.09983    0.00000
   79      7.60251    0.00000
   80      7.99636    0.00000
   81      8.06539    0.00000
   82      8.33617    0.00000
   83      8.49167    0.00000
   84      8.74819    0.00000
   85      8.81524    0.00000
   86      8.96697    0.00000
   87      9.07062    0.00000
   88      9.10424    0.00000
   89      9.21187    0.00000
   90      9.37854    0.00000
   91      9.43731    0.00000
   92      9.51755    0.00000
   93      9.71498    0.00000
   94      9.91954    0.00000
   95      9.98684    0.00000
   96     10.13978    0.00000
   97     10.23193    0.00000


Forces in eV/Ang:
  0 C     0.18230   -0.57831   -0.49325
  1 C     0.51616   -0.01041   -0.20027
  2 C    -0.08387   -0.09609    0.02215
  3 C    -0.06590    0.27534    0.01259
  4 C     0.22984   -0.52483    0.30516
  5 C    -0.18043   -0.08451    0.04220
  6 C     0.64625    0.05641    0.06334
  7 C    -0.19098    0.11840    0.03306
  8 C    -0.44292    0.14132   -0.04089
  9 C     0.54649    0.65373   -0.17656
 10 C     0.41611    0.76530    0.06555
 11 C     1.85760    2.07318   -0.72528
 12 C    -0.46448   -0.62066   -0.14230
 13 C    -1.25507   -1.49778    0.70913
 14 C    -0.09525   -0.35484    0.05455
 15 C     0.07331   -0.07090    0.06446
 16 C    -0.08642   -0.27545   -0.10147
 17 C    -0.87051   -0.24585    0.03069
 18 C    -0.24359   -0.45242   -0.11603
 19 C    -0.04556    0.75224    0.50369
 20 C    -0.33971    0.36681    0.01992
 21 C     0.23599   -0.08293    0.15596
 22 C    -0.50096    0.21363    0.04156
 23 C     0.21499   -0.50953   -0.10194

System changes: positions 

Initializing position-dependent things.

Density initialized from wave functions
           .--------------------------------------.  
          /|                                      |  
         / |                                      |  
        /  |                                      |  
       /   |                                      |  
      /    |                                      |  
     /     |                                      |  
    /      |                                      |  
   /       |    C                                 |  
  /        |    C         C   C  C                |  
 *         |     C     C           C              |  
 |         |  C  C  C               C             |  
 |         .----C-----C-----------C---------------.  
 |        /    C C       C  C                    /   
 |       /          C  C   C C                  /    
 |      /                                      /     
 |     /                                      /      
 |    /                                      /       
 |   /                                      /        
 |  /                                      /         
 | /                                      /          
 |/                                      /           
 *--------------------------------------*            

Positions:
   0 C     10.364527    4.544197    4.347747
   1 C      7.210287    5.985029    5.447761
   2 C      9.592162    3.470491    4.447195
   3 C      7.033509    3.095553    4.955531
   4 C      9.664823    5.648442    4.792053
   5 C      8.247183    3.695997    4.852718
   6 C      8.293303    5.311488    5.130799
   7 C      5.829793    3.614127    5.220307
   8 C      5.991461    6.524614    5.521897
   9 C      4.591746    5.752762    5.548547
  10 C      4.762363    4.327631    5.407208
  11 C      3.584347    6.733153    5.528998
  12 C      7.951550    9.584010    5.562719
  13 C      4.373531    8.192735    5.302555
  14 C      6.888924    8.863386    5.428213
  15 C      3.033074   11.942181    5.030535
  16 C     11.551477    9.036806    5.455008
  17 C      4.004918    9.499731    5.232284
  18 C      9.225838    9.962011    5.643060
  19 C      5.823222    7.926886    5.367992
  20 C     12.146958    7.884446    5.195659
  21 C     11.971433    6.604303    4.917446
  22 C     10.520317    9.812121    5.627607
  23 C      3.562583   10.732828    5.167608

Unit cell:
           periodic     x           y           z      points  spacing
  1. axis:    yes   16.000000    0.000000    0.000000    80     0.2000
  2. axis:    yes    0.000000   16.000000    0.000000    80     0.2000
  3. axis:    yes    0.000000    0.000000   10.000000    48     0.2083

Effective grid spacing dv^(1/3) = 0.2027

                     log10-error:    total        iterations:
           time      wfs    density  energy       fermi  poisson
iter:   1  09:33:47          +inf  -173.367944    3      5      
iter:   2  09:33:48         -1.96  -173.284374    2      2      
iter:   3  09:33:48         -2.33  -173.276939    3      1      
iter:   4  09:33:49         -2.52  -173.275788    3      2      
iter:   5  09:33:49         -2.64  -173.270960    3      2      
iter:   6  09:33:50         -2.76  -173.275077    3      2      
iter:   7  09:33:51         -2.67  -173.273566    3      1      
iter:   8  09:33:51         -2.82  -173.271029    3      2      
iter:   9  09:33:52         -3.14  -173.269501    3      1      
iter:  10  09:33:52         -3.22  -173.270065    2      1      
iter:  11  09:33:53         -3.61  -173.271156    1      1      
iter:  12  09:33:53         -3.67  -173.270934    2      1      
iter:  13  09:33:54         -3.58  -173.271000    2      1      
iter:  14  09:33:54         -3.97  -173.271259    2      1      
iter:  15  09:33:55         -4.02  -173.271230    2      1      

Converged after 15 iterations.

Dipole moment: (0.572326, -0.049581, 0.135808) |e|*Ang

Energy contributions relative to reference atoms: (reference = -24663.074771)

Kinetic:        +90.541393
Potential:     -104.459563
External:        +0.000000
XC:            -162.131677
Entropy (-ST):   -0.343824
Local:           +2.950529
--------------------------
Free energy:   -173.443142
Extrapolated:  -173.271230

Fermi level: -4.60467

 Band  Eigenvalues  Occupancy
    0    -22.28662    2.00000
    1    -21.94176    2.00000
    2    -21.00441    2.00000
    3    -20.55126    2.00000
    4    -20.11410    2.00000
    5    -19.96764    2.00000
    6    -19.43689    2.00000
    7    -19.19323    2.00000
    8    -18.76142    2.00000
    9    -18.08430    2.00000
   10    -17.94718    2.00000
   11    -17.26525    2.00000
   12    -16.79660    2.00000
   13    -16.19127    2.00000
   14    -15.68225    2.00000
   15    -15.19421    2.00000
   16    -14.68627    2.00000
   17    -14.31570    2.00000
   18    -13.86340    2.00000
   19    -13.21909    2.00000
   20    -12.94060    2.00000
   21    -11.75618    2.00000
   22    -11.38271    2.00000
   23    -10.91252    2.00000
   24    -10.81352    2.00000
   25    -10.34095    2.00000
   26    -10.26867    2.00000
   27     -9.69473    2.00000
   28     -9.57721    2.00000
   29     -9.46394    2.00000
   30     -8.64190    2.00000
   31     -8.49400    2.00000
   32     -8.29107    2.00000
   33     -8.24784    2.00000
   34     -7.96932    2.00000
   35     -7.77061    2.00000
   36     -7.40950    2.00000
   37     -7.22837    2.00000
   38     -7.08312    2.00000
   39     -6.55748    2.00000
   40     -6.43377    2.00000
   41     -6.19527    2.00000
   42     -5.93910    2.00000
   43     -5.69628    1.99996
   44     -5.48367    1.99970
   45     -5.40317    1.99932
   46     -5.01777    1.96837
   47     -4.64946    1.22027
   48     -4.52644    0.62763
   49     -4.36636    0.16893
   50     -4.08272    0.01076
   51     -3.97034    0.00351
   52     -3.88861    0.00155
   53     -3.23994    0.00000
   54     -2.92724    0.00000
   55     -2.52204    0.00000
   56     -1.86301    0.00000
   57     -1.53840    0.00000
   58     -0.96839    0.00000
   59     -0.49512    0.00000
   60     -0.11338    0.00000
   61      0.04568    0.00000
   62      0.52036    0.00000
   63      1.07653    0.00000
   64      1.32999    0.00000
   65      1.84302    0.00000
   66      2.46644    0.00000
   67      3.02570    0.00000
   68      3.37467    0.00000
   69      3.67462    0.00000
   70      4.24421    0.00000
   71      4.45171    0.00000
   72      4.75179    0.00000
   73      5.12503    0.00000
   74      6.07362    0.00000
   75      6.18557    0.00000
   76      6.52421    0.00000
   77      6.68412    0.00000
   78      7.17860    0.00000
   79      7.63020    0.00000
   80      8.01572    0.00000
   81      8.13527    0.00000
   82      8.33526    0.00000
   83      8.48863    0.00000
   84      8.74151    0.00000
   85      8.84323    0.00000
   86      8.96341    0.00000
   87      9.08611    0.00000
   88      9.12129    0.00000
   89      9.22050    0.00000
   90      9.36493    0.00000
   91      9.46644    0.00000
   92      9.52507    0.00000
   93      9.69920    0.00000
   94      9.92731    0.00000
   95      9.98881    0.00000
   96     10.15056    0.00000
   97     10.24145    0.00000


Forces in eV/Ang:
  0 C     0.20095   -0.60536   -0.53582
  1 C     0.60131    0.10079   -0.19496
  2 C    -0.03840   -0.07992    0.03406
  3 C    -0.07258    0.24895    0.02165
  4 C     0.23843   -0.46067    0.28765
  5 C    -0.19846   -0.12723    0.04289
  6 C     0.67661   -0.09012    0.05169
  7 C    -0.20158    0.20484    0.04752
  8 C    -0.71871   -0.04445    0.05684
  9 C     0.50439    0.64192   -0.21026
 10 C     0.37401    0.75218    0.05781
 11 C     1.73699    1.93993   -0.67723
 12 C    -0.46472   -0.62109   -0.13683
 13 C    -1.11600   -1.42029    0.67776
 14 C    -0.13848   -0.16051    0.08053
 15 C     0.10235   -0.12691    0.07487
 16 C    -0.02527   -0.35224   -0.12769
 17 C    -0.91677   -0.34230    0.06636
 18 C    -0.12939   -0.46698   -0.10819
 19 C     0.19178    0.84520    0.35856
 20 C    -0.35574    0.39713    0.01869
 21 C     0.24959   -0.06672    0.18278
 22 C    -0.63766    0.24741    0.05078
 23 C     0.22261   -0.47650   -0.12659

System changes: positions 

Initializing position-dependent things.

Density initialized from wave functions
           .--------------------------------------.  
          /|                                      |  
         / |                                      |  
        /  |                                      |  
       /   |                                      |  
      /    |                                      |  
     /     |                                      |  
    /      |                                      |  
   /       |    C                                 |  
  /        |    C         C   C  C                |  
[...]
    1    -22.19402    2.00000
    2    -20.46926    2.00000
    3    -20.32032    2.00000
    4    -20.16236    2.00000
    5    -19.84840    2.00000
    6    -19.55334    2.00000
    7    -19.35266    2.00000
    8    -19.05621    2.00000
    9    -18.27707    2.00000
   10    -18.04999    2.00000
   11    -17.75472    2.00000
   12    -16.97694    2.00000
   13    -16.29231    2.00000
   14    -16.09744    2.00000
   15    -15.79709    2.00000
   16    -14.97966    2.00000
   17    -14.39013    2.00000
   18    -14.20797    2.00000
   19    -13.93326    2.00000
   20    -13.18866    2.00000
   21    -12.91799    2.00000
   22    -11.17587    2.00000
   23    -11.13290    2.00000
   24    -10.76927    2.00000
   25    -10.57959    2.00000
   26    -10.25589    2.00000
   27     -9.97981    2.00000
   28     -9.88153    2.00000
   29     -9.14515    2.00000
   30     -9.13649    2.00000
   31     -8.89994    2.00000
   32     -8.73422    2.00000
   33     -8.53866    2.00000
   34     -8.48319    2.00000
   35     -8.14141    2.00000
   36     -7.73728    2.00000
   37     -7.50911    2.00000
   38     -7.30102    2.00000
   39     -7.18911    2.00000
   40     -6.68929    2.00000
   41     -6.44403    2.00000
   42     -6.36619    2.00000
   43     -5.83238    1.99997
   44     -5.25198    1.98917
   45     -5.05775    1.92686
   46     -4.84888    1.53082
   47     -4.83595    1.48282
   48     -4.74471    1.07036
   49     -3.33672    0.00000
   50     -2.89130    0.00000
   51     -2.83368    0.00000
   52     -2.62846    0.00000
   53     -1.93079    0.00000
   54     -1.40395    0.00000
   55     -1.10254    0.00000
   56     -0.82856    0.00000
   57     -0.36010    0.00000
   58     -0.25458    0.00000
   59      1.02191    0.00000
   60      1.28374    0.00000
   61      1.72119    0.00000
   62      2.39611    0.00000
   63      3.06381    0.00000
   64      3.23304    0.00000
   65      3.31829    0.00000
   66      3.51020    0.00000
   67      3.65577    0.00000
   68      4.50107    0.00000
   69      4.75904    0.00000
   70      4.86851    0.00000
   71      5.57810    0.00000
   72      5.99530    0.00000
   73      6.18184    0.00000
   74      6.28191    0.00000
   75      6.42613    0.00000
   76      6.63936    0.00000
   77      7.06798    0.00000
   78      7.51972    0.00000
   79      7.65184    0.00000
   80      8.02914    0.00000
   81      8.34228    0.00000
   82      8.51391    0.00000
   83      8.61442    0.00000
   84      8.72132    0.00000
   85      8.77600    0.00000
   86      8.91886    0.00000
   87      8.95633    0.00000
   88      9.23611    0.00000
   89      9.41017    0.00000
   90      9.49445    0.00000
   91      9.50398    0.00000
   92      9.56167    0.00000
   93      9.70372    0.00000
   94      9.78154    0.00000
   95      9.80823    0.00000
   96      9.84096    0.00000
   97      9.88559    0.00000


Forces in eV/Ang:
  0 C    -0.03481    0.04635    0.03055
  1 C     0.07543   -0.04767    0.00441
  2 C     0.05137   -0.06108   -0.01713
  3 C    -0.06237   -0.01027   -0.02202
  4 C     0.03012   -0.03013    0.03983
  5 C    -0.00517   -0.02469    0.00163
  6 C    -0.00233    0.06530    0.00738
  7 C    -0.00956    0.10174   -0.00721
  8 C     0.02319    0.00247    0.01285
  9 C    -0.02928    0.01997   -0.00376
 10 C     0.00376   -0.01449   -0.00784
 11 C     0.01917   -0.03547    0.02270
 12 C     0.01676   -0.03336    0.02672
 13 C    -0.06958    0.00761    0.01049
 14 C     0.02086    0.01727   -0.01909
 15 C     0.01980   -0.03760   -0.01369
 16 C    -0.09033    0.00835   -0.04296
 17 C    -0.12128    0.02300   -0.04125
 18 C    -0.08322   -0.02546   -0.01422
 19 C    -0.01780    0.03331    0.04828
 20 C     0.06608   -0.02578    0.03699
 21 C     0.00218    0.01997   -0.00122
 22 C     0.06303    0.01772    0.01811
 23 C     0.12582   -0.01638   -0.00678

System changes: positions 

Initializing position-dependent things.

Density initialized from wave functions
           .--------------------------------------.  
          /|                                      |  
         / |                                      |  
        /  |                                      |  
       /   |                                      |  
      /    |                                      |  
     /     |                                      |  
    /      |                                      |  
   /       |                                      |  
  /       C|                               C  C   |  
 *         | C C                    C   C         |  
 |         |      C  C C   C  C  C                |  
 |         .---C--C--C----------------------------.  
 |        /   C       C                          /   
 |       /      C     C                         /    
 |      /          C  C                        /     
 |     /                                      /      
 |    /                                      /       
 |   /                                      /        
 |  /                                      /         
 | /                                      /          
 |/                                      /           
 *--------------------------------------*            

Positions:
   0 C      8.055984    1.900177    4.649064
   1 C      7.138826    5.800490    4.481075
   2 C      6.735503    2.267046    5.015046
   3 C      4.599431    3.479964    5.517281
   4 C      7.738712    3.284392    4.561338
   5 C      5.467780    2.550391    5.380153
   6 C      7.605536    4.624810    4.440437
   7 C      4.271137    4.766437    5.433728
   8 C      6.472033    7.003589    4.587896
   9 C      5.060671    7.136617    4.969747
  10 C      4.272597    6.030284    5.276560
  11 C      4.733233    8.569746    4.937049
  12 C      9.499611    9.196469    4.362794
  13 C      5.905020    9.278183    4.525578
  14 C      8.328999    8.729638    4.315963
  15 C      1.045490    9.953496    5.344348
  16 C     13.237587   10.189102    4.943371
  17 C      3.474308    9.092691    5.170482
  18 C     10.749120    9.617667    4.512460
  19 C      6.998048    8.367405    4.403690
  20 C     14.491524   10.280518    5.138786
  21 C     15.799423   10.190465    5.293351
  22 C     11.956189    9.956255    4.720165
  23 C      2.311772    9.555882    5.314406

Unit cell:
           periodic     x           y           z      points  spacing
  1. axis:    yes   16.000000    0.000000    0.000000    80     0.2000
  2. axis:    yes    0.000000   16.000000    0.000000    80     0.2000
  3. axis:    yes    0.000000    0.000000   10.000000    48     0.2083

Effective grid spacing dv^(1/3) = 0.2027

                     log10-error:    total        iterations:
           time      wfs    density  energy       fermi  poisson
iter:   1  10:24:42          +inf  -184.624836    3      5      
iter:   2  10:24:43         -2.84  -184.626425    3      1      
iter:   3  10:24:43         -2.92  -184.626007    2      1      
iter:   4  10:24:43         -2.98  -184.624650    3      2      
iter:   5  10:24:44         -3.14  -184.629962    3      1      
iter:   6  10:24:44         -2.79  -184.625020    3      1      
iter:   7  10:24:45         -3.55  -184.623997    3      1      
iter:   8  10:24:45         -3.19  -184.625222    3      1      
iter:   9  10:24:46         -3.49  -184.625144    2      1      
iter:  10  10:24:46         -3.62  -184.624415    3      1      
iter:  11  10:24:47         -3.59  -184.624813    3      1      
iter:  12  10:24:47         -4.03  -184.624576    2      1      

Converged after 12 iterations.

Dipole moment: (15.750365, -0.247583, 0.086113) |e|*Ang

Energy contributions relative to reference atoms: (reference = -24663.074771)

Kinetic:       +109.111527
Potential:     -121.177438
External:        +0.000000
XC:            -175.415873
Entropy (-ST):   -0.398000
Local:           +3.056208
--------------------------
Free energy:   -184.823576
Extrapolated:  -184.624576

Fermi level: -4.73186

 Band  Eigenvalues  Occupancy
    0    -23.01756    2.00000
    1    -22.19410    2.00000
    2    -20.46650    2.00000
    3    -20.31912    2.00000
    4    -20.16224    2.00000
    5    -19.84889    2.00000
    6    -19.55169    2.00000
    7    -19.35242    2.00000
    8    -19.05414    2.00000
    9    -18.27716    2.00000
   10    -18.04919    2.00000
   11    -17.75374    2.00000
   12    -16.97535    2.00000
   13    -16.29207    2.00000
   14    -16.09809    2.00000
   15    -15.79549    2.00000
   16    -14.97901    2.00000
   17    -14.39059    2.00000
   18    -14.20599    2.00000
   19    -13.93222    2.00000
   20    -13.18776    2.00000
   21    -12.91467    2.00000
   22    -11.17982    2.00000
   23    -11.14264    2.00000
   24    -10.76860    2.00000
   25    -10.58259    2.00000
   26    -10.25328    2.00000
   27     -9.97183    2.00000
   28     -9.87941    2.00000
   29     -9.14365    2.00000
   30     -9.13463    2.00000
   31     -8.89896    2.00000
   32     -8.73363    2.00000
   33     -8.53710    2.00000
   34     -8.48274    2.00000
   35     -8.14133    2.00000
   36     -7.73690    2.00000
   37     -7.50899    2.00000
   38     -7.30046    2.00000
   39     -7.18891    2.00000
   40     -6.68896    2.00000
   41     -6.43944    2.00000
   42     -6.36624    2.00000
   43     -5.83395    1.99997
   44     -5.25327    1.98918
   45     -5.05929    1.92707
   46     -4.85331    1.54220
   47     -4.83792    1.48563
   48     -4.74306    1.05595
   49     -3.33548    0.00000
   50     -2.89195    0.00000
   51     -2.83194    0.00000
   52     -2.62344    0.00000
   53     -1.93041    0.00000
   54     -1.40951    0.00000
   55     -1.10449    0.00000
   56     -0.83215    0.00000
   57     -0.36165    0.00000
   58     -0.26024    0.00000
   59      1.01806    0.00000
   60      1.28028    0.00000
   61      1.71402    0.00000
   62      2.39288    0.00000
   63      3.04971    0.00000
   64      3.21329    0.00000
   65      3.34084    0.00000
   66      3.50079    0.00000
   67      3.66362    0.00000
   68      4.50084    0.00000
   69      4.75572    0.00000
   70      4.86911    0.00000
   71      5.58316    0.00000
   72      5.99105    0.00000
   73      6.17749    0.00000
   74      6.28771    0.00000
   75      6.41402    0.00000
   76      6.63438    0.00000
   77      7.06513    0.00000
   78      7.51302    0.00000
   79      7.64653    0.00000
   80      8.03228    0.00000
   81      8.33287    0.00000
   82      8.50563    0.00000
   83      8.61479    0.00000
   84      8.72365    0.00000
   85      8.77719    0.00000
   86      8.91979    0.00000
   87      8.95751    0.00000
   88      9.23676    0.00000
   89      9.40709    0.00000
   90      9.49716    0.00000
   91      9.50413    0.00000
   92      9.55631    0.00000
   93      9.70543    0.00000
   94      9.78036    0.00000
   95      9.81148    0.00000
   96      9.84162    0.00000
   97      9.88585    0.00000


Forces in eV/Ang:
  0 C    -0.01876   -0.00148   -0.01554
  1 C     0.08252   -0.03583    0.02964
  2 C     0.06453   -0.05862   -0.03118
  3 C    -0.05083    0.00138   -0.02062
  4 C     0.04333   -0.07267    0.04387
  5 C     0.02848   -0.04024    0.00123
  6 C    -0.00632    0.06752    0.01388
  7 C    -0.00592    0.10830   -0.01757
  8 C     0.01892   -0.00141   -0.00073
  9 C    -0.05303   -0.00593   -0.03700
 10 C    -0.00217    0.00326   -0.00857
 11 C     0.09550   -0.08280    0.01930
 12 C     0.01987   -0.03625    0.00707
 13 C    -0.08488   -0.15508    0.06330
 14 C     0.02536    0.05032    0.01075
 15 C     0.06173   -0.05112    0.03554
 16 C    -0.11761    0.00160   -0.01914
 17 C    -0.10090    0.01373   -0.04655
 18 C    -0.06750   -0.03629    0.00814
 19 C    -0.02458    0.02331    0.05297
 20 C     0.05902   -0.02633    0.02388
 21 C    -0.05738    0.03905   -0.00741
 22 C     0.05711    0.02760    0.00132
 23 C     0.06033    0.00922    0.00669

System changes: positions 

Initializing position-dependent things.

Density initialized from wave functions
           .--------------------------------------.  
          /|                                      |  
         / |                                      |  
        /  |                                      |  
       /   |                                      |  
      /    |                                      |  
     /     |                                      |  
    /      |                                      |  
   /       |                                      |  
  /       C|                               C  C   |  
 *         | C C                    C   C         |  
 |         |      C  C C   C  C  C                |  
 |         .--CC--C--C----------------------------.  
 |        /   C       C                          /   
 |       /      C     C                         /    
 |      /          C  C                        /     
 |     /                                      /      
 |    /                                      /       
 |   /                                      /        
 |  /                                      /         
 | /                                      /          
 |/                                      /           
 *--------------------------------------*            

Positions:
   0 C      8.056090    1.899608    4.625320
   1 C      7.144349    5.803821    4.487939
   2 C      6.741196    2.264913    5.007565
   3 C      4.608842    3.479230    5.519144
   4 C      7.742349    3.284970    4.556233
   5 C      5.475356    2.547808    5.380250
   6 C      7.606997    4.626565    4.444737
   7 C      4.277668    4.765506    5.438223
   8 C      6.475197    7.006545    4.592228
   9 C      5.062943    7.136226    4.972492
  10 C      4.278956    6.028984    5.283401
  11 C      4.733790    8.568184    4.941612
  12 C      9.499476    9.196423    4.361138
  13 C      5.904991    9.281721    4.540395
  14 C      8.327668    8.733507    4.318860
  15 C      1.043271    9.945784    5.354893
  16 C     13.234478   10.186743    4.950406
  17 C      3.472503    9.088549    5.173458
  18 C     10.748433    9.615024    4.515277
  19 C      6.997554    8.371475    4.410588
  20 C     14.489020   10.277494    5.146169
  21 C     15.796336   10.186026    5.302523
  22 C     11.954845    9.956724    4.720559
  23 C      2.310062    9.550679    5.322292

Unit cell:
           periodic     x           y           z      points  spacing
  1. axis:    yes   16.000000    0.000000    0.000000    80     0.2000
  2. axis:    yes    0.000000   16.000000    0.000000    80     0.2000
  3. axis:    yes    0.000000    0.000000   10.000000    48     0.2083

Effective grid spacing dv^(1/3) = 0.2027

                     log10-error:    total        iterations:
           time      wfs    density  energy       fermi  poisson
iter:   1  10:24:49          +inf  -184.642894    3      5      
iter:   2  10:24:49         -2.41  -184.625471    4      2      
iter:   3  10:24:50         -2.68  -184.625431    3      1      
iter:   4  10:24:50         -3.04  -184.626790    3      1      
iter:   5  10:24:51         -3.08  -184.626797    3      1      
iter:   6  10:24:51         -3.18  -184.624572    3      1      
iter:   7  10:24:51         -2.84  -184.625706    3      1      
iter:   8  10:24:52         -3.38  -184.626950    3      1      
iter:   9  10:24:52         -3.42  -184.625775    3      1      
iter:  10  10:24:53         -3.51  -184.625880    3      1      
iter:  11  10:24:53         -4.01  -184.626060    2      1      

Converged after 11 iterations.

Dipole moment: (15.901782, -0.252578, 0.088036) |e|*Ang

Energy contributions relative to reference atoms: (reference = -24663.074771)

Kinetic:       +109.291494
Potential:     -121.318778
External:        +0.000000
XC:            -175.461133
Entropy (-ST):   -0.398893
Local:           +3.061804
--------------------------
Free energy:   -184.825507
Extrapolated:  -184.626060

Fermi level: -4.72983

 Band  Eigenvalues  Occupancy
    0    -23.03154    2.00000
    1    -22.19362    2.00000
    2    -20.46650    2.00000
    3    -20.31896    2.00000
    4    -20.16301    2.00000
    5    -19.84681    2.00000
    6    -19.55291    2.00000
    7    -19.35272    2.00000
    8    -19.05601    2.00000
    9    -18.27516    2.00000
   10    -18.05120    2.00000
   11    -17.75221    2.00000
   12    -16.97597    2.00000
   13    -16.29222    2.00000
   14    -16.09822    2.00000
   15    -15.79687    2.00000
   16    -14.98016    2.00000
   17    -14.38968    2.00000
   18    -14.20631    2.00000
   19    -13.93296    2.00000
   20    -13.18827    2.00000
   21    -12.91737    2.00000
   22    -11.17405    2.00000
   23    -11.13774    2.00000
   24    -10.76855    2.00000
   25    -10.57811    2.00000
   26    -10.25646    2.00000
   27     -9.98302    2.00000
   28     -9.88221    2.00000
   29     -9.14414    2.00000
   30     -9.13565    2.00000
   31     -8.89923    2.00000
   32     -8.73406    2.00000
   33     -8.53738    2.00000
   34     -8.48294    2.00000
   35     -8.14100    2.00000
   36     -7.73783    2.00000
   37     -7.50928    2.00000
   38     -7.30143    2.00000
   39     -7.18874    2.00000
   40     -6.69024    2.00000
   41     -6.44224    2.00000
   42     -6.36739    2.00000
   43     -5.83049    1.99997
   44     -5.25141    1.98920
   45     -5.05824    1.92776
   46     -4.84849    1.53229
   47     -4.83575    1.48508
   48     -4.74298    1.06570
   49     -3.33621    0.00000
   50     -2.89362    0.00000
   51     -2.83363    0.00000
   52     -2.62304    0.00000
   53     -1.93205    0.00000
   54     -1.40358    0.00000
   55     -1.10258    0.00000
   56     -0.82900    0.00000
   57     -0.35973    0.00000
   58     -0.25714    0.00000
   59      1.02095    0.00000
   60      1.28500    0.00000
   61      1.72004    0.00000
   62      2.39461    0.00000
   63      3.05654    0.00000
   64      3.22839    0.00000
   65      3.32688    0.00000
   66      3.50722    0.00000
   67      3.65241    0.00000
   68      4.50266    0.00000
   69      4.76293    0.00000
   70      4.86929    0.00000
   71      5.57939    0.00000
   72      5.98966    0.00000
   73      6.17904    0.00000
   74      6.28322    0.00000
   75      6.42279    0.00000
   76      6.63921    0.00000
   77      7.06584    0.00000
   78      7.52180    0.00000
   79      7.65018    0.00000
   80      8.02823    0.00000
   81      8.34181    0.00000
   82      8.51411    0.00000
   83      8.61765    0.00000
   84      8.72227    0.00000
   85      8.77726    0.00000
   86      8.91996    0.00000
   87      8.95479    0.00000
   88      9.23395    0.00000
   89      9.40986    0.00000
   90      9.49599    0.00000
   91      9.50426    0.00000
   92      9.56316    0.00000
   93      9.70328    0.00000
   94      9.78061    0.00000
   95      9.80740    0.00000
   96      9.84119    0.00000
   97      9.88511    0.00000


Forces in eV/Ang:
  0 C    -0.03699    0.02519   -0.04480
  1 C     0.06444   -0.03305    0.01067
  2 C     0.01001   -0.03611   -0.00034
  3 C    -0.05529    0.00385   -0.02128
  4 C     0.02669   -0.01398    0.04490
  5 C     0.00398   -0.02012    0.00198
  6 C     0.01101    0.04918    0.01845
  7 C     0.01211    0.03983    0.00193
  8 C     0.01792   -0.00902    0.01165
  9 C    -0.02841    0.01173   -0.02339
 10 C     0.00806    0.01099   -0.00906
 11 C     0.01641   -0.02347    0.01652
 12 C     0.02675   -0.02967    0.02052
 13 C    -0.05256    0.05142    0.05006
 14 C     0.00465    0.03250   -0.00134
 15 C    -0.03095   -0.01200   -0.02231
 16 C    -0.04263    0.01291   -0.02340
 17 C    -0.05927   -0.00177   -0.02806
 18 C    -0.05996   -0.02566   -0.01119
 19 C    -0.01869    0.03699    0.03152
 20 C     0.04478   -0.02198    0.02643
 21 C     0.03971    0.00801   -0.01032
 22 C     0.04059    0.01255    0.01615
 23 C     0.07139   -0.00547   -0.00063

