
  ___ ___ ___ _ _ _  
 |   |   |_  | | | | 
 | | | | | . | | | | 
 |__ |  _|___|_____|  1.3.0b1
 |___|_|             

User:   esb@s65n84.grendel.cscaa.dk
Date:   Thu Nov  9 11:53:20 2017
Arch:   x86_64
Pid:    57888
Python: 2.7.13
gpaw:   /home/esb/DFT/gpaw_git/gpaw
_gpaw:  /home/esb/DFT/gpaw_git/build/bin.linux-x86_64-2.7/gpaw-python
ase:    /home/esb/DFT/ase_git/ase (version 3.15.0b1)
numpy:  /comm/swstack/core/python/2.7.13/lib/python2.7/site-packages/numpy (version 1.13.3)
scipy:  /comm/swstack/core/python/2.7.13/lib/python2.7/site-packages/scipy (version 0.19.1)
units:  Angstrom and eV
cores:  16
Extra parameters: {'blacs': True}

Input parameters:
  basis: dzp
  gpts: [80 80 48]
  kpts: [1 1 1]
  maxiter: 99
  mixer: {backend: pulay,
          beta: 0.05,
          method: separate,
          nmaxold: 5,
          weight: 75}
  mode: lcao
  nbands: -50
  occupations: {name: fermi-dirac,
                width: 0.1}
  poissonsolver: {eps: 1e-07,
                  name: fd,
                  nn: 3,
                  relax: GS}
  xc: PBE

System changes: positions, numbers, cell, pbc, initial_charges, initial_magmoms 

Initialize ...

C-setup:
  name: Carbon
  id: 4aa54d4b901d75f77cc0ea3eec22967b
  Z: 6
  valence: 4
  core: 2
  charge: 0.0
  file: /home/esb/DFT/gpaw-setups-0.8.7929/C.PBE.gz
  cutoffs: 0.64(comp), 1.14(filt), 1.14(core), lmax=2
  valence states:
                energy  radius
    2s(2.00)   -13.751   0.635
    2p(2.00)    -5.284   0.635
    *s          13.461   0.635
    *p          21.927   0.635
    *d           0.000   0.635

  LCAO basis set for C:
    Name: dzp
    File: /home/esb/DFT/gpaw-setups-0.8.7929/C.dzp.basis.gz
    Number of radial functions: 5
    Number of spherical harmonics: 13
      l=0, rc=5.5469 Bohr: 2s-sz confined orbital
      l=1, rc=6.6719 Bohr: 2p-sz confined orbital
      l=0, rc=3.0312 Bohr: 2s-dz split-valence wave
      l=1, rc=3.7500 Bohr: 2p-dz split-valence wave
      l=2, rc=6.6719 Bohr: d-type Gaussian polarization

Reference energy: -24663.074771

Spin-paired calculation

Occupation numbers:
  Fermi-Dirac: width=0.1000 eV

Convergence criteria:
  Maximum total energy change: 0.0005 eV / electron
  Maximum integral of absolute density change: 0.0001 electrons
  Maximum integral of absolute eigenstate change: 4e-08 eV^2
  Maximum number of iterations: 99

Symmetries present (total): 1

  ( 1  0  0)
  ( 0  1  0)
  ( 0  0  1)

1 k-point (Gamma)
1 k-point in the irreducible part of the Brillouin zone
       k-points in crystal coordinates                weights
   0:     0.00000000    0.00000000    0.00000000          1/1

Wave functions: LCAO
  Diagonalizer: Serial LAPACK
  Atomic Correction: dense with blas
  Datatype: float
  Eigensolver: None 

LCAO using direct dense diagonalizer 

Densities:
  Coarse grid: 80*80*48 grid
  Fine grid: 160*160*96 grid
  Total Charge: 0.000000 

Density mixing:
  Method: separate
  Backend: pulay
  Linear mixing parameter: 0.05
  Mixing with 5 old densities
  Damping of long wave oscillations: 75 

Hamiltonian:
  XC and Coulomb potentials evaluated on a 160*160*96 grid
  Using the PBE Exchange-Correlation functional
  Interpolation: tri-quintic (5. degree polynomial)
  Poisson solver: Gauss-Seidel solver with 6 multi-grid levels
    Coarsest grid: 5 x 5 x 3 points
    Stencil: 6*3+1=19 point O(h^6) finite-difference Laplacian
    Max iterations: 1000
    Tolerance: 1.000000e-07 

Memory estimate:
  Process memory now: 77.57 MiB
  Calculator: 15.59 MiB
    Density: 6.13 MiB
      Arrays: 3.81 MiB
      Localized functions: 0.86 MiB
      Mixer: 1.46 MiB
    Hamiltonian: 5.40 MiB
      Arrays: 2.49 MiB
      XC: 0.00 MiB
      Poisson: 2.85 MiB
      vbar: 0.07 MiB
    Wavefunctions: 4.05 MiB
      C [qnM]: 0.23 MiB
      S, T [2 x qmm]: 1.49 MiB
      P [aqMi]: 0.01 MiB
      TCI: 0.00 MiB
      BasisFunctions: 2.33 MiB
      Eigensolver: 0.00 MiB

Total number of cores used: 16
Domain decomposition: 2 x 4 x 2

Number of atoms: 24
Number of atomic orbitals: 312
Number of bands in calculation: 98
Bands to converge: occupied states only
Number of valence electrons: 96

... initialized

Initializing position-dependent things.

Density initialized from atomic densities
           .--------------------------------------.  
          /|                                      |  
         / |                                      |  
        /  |                                      |  
       /   |                                      |  
      /    |                                      |  
     /     |                                      |  
    /      |              C                       |  
   /       |           C                          |  
  /        |       C                              |  
 *        C|C       C   C C         C   C  C  C   |  
 |         |                     C                |  
 |         .---C---C--C--C------------------------.  
 |        /                 C                    /   
 |       /   C C C  C     C                     /    
 |      /              C                       /     
 |     /                                      /      
 |    /                                      /       
 |   /                                      /        
 |  /                                      /         
 | /                                      /          
 |/                                      /           
 *--------------------------------------*            

Positions:
   0 C     13.235858   10.181147    4.835089
   1 C     10.736632    9.633917    4.497382
   2 C     11.944535    9.984150    4.643444
   3 C      4.164821    3.160794    5.347074
   4 C      1.018280    9.713925    5.205495
   5 C     14.493343   10.206242    5.001241
   6 C     15.795164   10.040548    5.153407
   7 C      2.263067    9.246492    5.179399
   8 C      9.332627    3.767634    4.716609
   9 C      9.631439    5.061326    5.156957
  10 C      8.196483    3.245403    4.540888
  11 C      8.394267    5.846468    5.416312
  12 C      6.943952    3.837904    4.726915
  13 C      8.544142    7.221970    5.899394
  14 C      7.068234    5.245421    5.193502
  15 C      4.568295    4.148335    4.788929
  16 C      4.446234    5.501828    5.204266
  17 C      5.591759    3.443262    4.585524
  18 C      5.836822    6.007366    5.420372
  19 C      5.344271    8.523028    6.330901
  20 C      6.038954    7.312438    5.900365
  21 C      7.455503   10.300399    7.034101
  22 C      6.761873    9.152721    6.591205
  23 C      7.331085    7.889891    6.135476

Unit cell:
           periodic     x           y           z      points  spacing
  1. axis:    yes   16.000000    0.000000    0.000000    80     0.2000
  2. axis:    yes    0.000000   16.000000    0.000000    80     0.2000
  3. axis:    yes    0.000000    0.000000   10.000000    48     0.2083

Effective grid spacing dv^(1/3) = 0.2027

                     log10-error:    total        iterations:
           time      wfs    density  energy       fermi  poisson
iter:   1  11:53:22          +inf  -172.078948    3      6      
iter:   2  11:53:22         -0.86  -171.136349    3      3      
iter:   3  11:53:23         -0.89  -169.568590    30     3      
iter:   4  11:53:24         -0.98  -168.169061    33     4      
iter:   5  11:53:24         -1.19  -167.740064    3      3      
iter:   6  11:53:25         -1.31  -168.135672    34     3      
iter:   7  11:53:25         -1.35  -167.583701    3      3      
iter:   8  11:53:26         -1.63  -167.553852    3      3      
iter:   9  11:53:27         -1.75  -167.521153    2      3      
iter:  10  11:53:27         -1.96  -167.506130    2      2      
iter:  11  11:53:28         -2.06  -167.495669    3      2      
iter:  12  11:53:28         -2.18  -167.489891    3      2      
iter:  13  11:53:29         -2.36  -167.484651    3      2      
iter:  14  11:53:29         -2.49  -167.483669    3      2      
iter:  15  11:53:30         -2.65  -167.480955    2      2      
iter:  16  11:53:30         -2.85  -167.480030    2      2      
iter:  17  11:53:31         -2.98  -167.479125    2      1      
iter:  18  11:53:32         -3.10  -167.478936    2      2      
iter:  19  11:53:32         -3.36  -167.477865    2      1      
iter:  20  11:53:33         -3.47  -167.478604    2      1      
iter:  21  11:53:33         -3.57  -167.476369    2      1      
iter:  22  11:53:34         -3.85  -167.478451    2      1      
iter:  23  11:53:34         -3.95  -167.478834    2      1      
iter:  24  11:53:35         -3.96  -167.477961    2      1      
iter:  25  11:53:35         -4.19  -167.478875    2      1      

Converged after 25 iterations.

Dipole moment: (16.682636, -0.140789, -0.266264) |e|*Ang

Energy contributions relative to reference atoms: (reference = -24663.074771)

Kinetic:       +129.711303
Potential:     -133.460769
External:        +0.000000
XC:            -166.380558
Entropy (-ST):   -0.500546
Local:           +2.901422
--------------------------
Free energy:   -167.729148
Extrapolated:  -167.478875

Fermi level: -4.78258

 Band  Eigenvalues  Occupancy
    0    -24.25561    2.00000
    1    -22.79199    2.00000
    2    -21.91527    2.00000
    3    -21.13364    2.00000
    4    -20.29972    2.00000
    5    -20.13883    2.00000
    6    -19.71339    2.00000
    7    -18.85556    2.00000
    8    -18.79498    2.00000
    9    -17.56518    2.00000
   10    -17.45663    2.00000
   11    -17.29274    2.00000
   12    -16.58985    2.00000
   13    -15.96302    2.00000
   14    -15.85469    2.00000
   15    -15.10055    2.00000
   16    -14.54032    2.00000
   17    -14.30631    2.00000
   18    -12.85111    2.00000
   19    -12.58464    2.00000
   20    -12.33345    2.00000
   21    -11.68809    2.00000
   22    -11.42965    2.00000
   23    -10.71844    2.00000
   24    -10.18148    2.00000
   25     -9.94845    2.00000
   26     -9.80614    2.00000
   27     -9.80436    2.00000
   28     -9.74937    2.00000
   29     -9.55932    2.00000
   30     -9.35862    2.00000
   31     -8.38781    2.00000
   32     -8.37962    2.00000
   33     -7.82956    2.00000
   34     -7.68596    2.00000
   35     -7.52118    2.00000
   36     -7.20114    2.00000
   37     -6.69604    2.00000
   38     -6.52679    2.00000
   39     -6.45552    2.00000
   40     -6.44230    2.00000
   41     -6.26268    2.00000
   42     -6.10033    2.00000
   43     -5.99078    1.99999
   44     -5.62948    1.99958
   45     -5.42123    1.99664
   46     -4.89441    1.50736
   47     -4.84383    1.29704
   48     -4.74202    0.79995
   49     -4.62449    0.34133
   50     -4.37050    0.03194
   51     -4.35021    0.02616
   52     -3.43182    0.00000
   53     -3.33973    0.00000
   54     -3.21941    0.00000
   55     -2.96408    0.00000
   56     -1.99769    0.00000
   57     -1.54481    0.00000
   58     -1.33885    0.00000
   59     -1.30589    0.00000
   60     -0.45136    0.00000
   61      0.29628    0.00000
   62      1.25804    0.00000
   63      1.56166    0.00000
   64      1.78955    0.00000
   65      1.93059    0.00000
   66      2.92008    0.00000
   67      3.08912    0.00000
   68      3.76780    0.00000
   69      4.06611    0.00000
   70      4.39686    0.00000
   71      4.59075    0.00000
   72      4.68676    0.00000
   73      5.31969    0.00000
   74      6.08053    0.00000
   75      6.11809    0.00000
   76      6.27386    0.00000
   77      6.54663    0.00000
   78      6.74477    0.00000
   79      7.24803    0.00000
   80      7.35639    0.00000
   81      7.68689    0.00000
   82      7.92607    0.00000
   83      8.34024    0.00000
   84      8.50448    0.00000
   85      8.67956    0.00000
   86      8.71174    0.00000
   87      8.82472    0.00000
   88      8.90486    0.00000
   89      9.08751    0.00000
   90      9.13759    0.00000
   91      9.16792    0.00000
   92      9.25951    0.00000
   93      9.50421    0.00000
   94      9.69887    0.00000
   95      9.74377    0.00000
   96      9.82839    0.00000
   97      9.89671    0.00000


Forces in eV/Ang:
  0 C    -1.48302   -0.36232   -0.22658
  1 C    -3.26781   -0.92635   -0.33038
  2 C     3.14035    1.03753    0.46826
  3 C    -2.64763  -13.00583    4.68976
  4 C     3.18693   -0.69175    0.27858
  5 C     2.63336    0.06818    0.41906
  6 C    -3.98860    0.54829   -0.49676
  7 C    -0.26134    0.13960   -0.04992
  8 C     1.22467    2.20309    1.05059
  9 C    -1.63291   -1.17610   -0.67096
 10 C    -1.05212   -0.97438   -0.43877
 11 C     1.93078    0.28007    0.23087
 12 C    -0.10880    0.66907   -0.13752
 13 C    -2.70766   -0.87192   -0.22925
 14 C     0.11303   -0.33537   -0.45378
 15 C    -4.18157   16.99070   -4.25656
 16 C     3.09869    2.10941   -0.04798
 17 C     6.15624   -6.35216    0.14695
 18 C    -1.97568   -0.89990   -0.32519
 19 C     1.64573   -0.37775   -0.13153
 20 C    -1.32664    0.29131    0.11099
 21 C    -1.77943   -2.60015   -1.03912
 22 C     0.77290    3.90844    1.54091
 23 C     2.54652    0.28759   -0.08329

System changes: positions 

Initializing position-dependent things.

Density initialized from wave functions
           .--------------------------------------.  
          /|                                      |  
         / |                                      |  
        /  |                                      |  
       /   |                                      |  
      /    |                                      |  
     /     |                                      |  
    /      |              C                       |  
   /       |           C                          |  
  /        |       C                              |  
 *        C|C       C   C C         C   C  C  C   |  
 |         |                     C                |  
 |         .---C---C--C--C------------------------.  
 |        /                 C                    /   
 |       /   C C C  C     C                     /    
 |      /              C                       /     
 |     /                                      /      
 |    /                                      /       
 |   /                                      /        
 |  /                                      /         
 | /                                      /          
 |/                                      /           
 *--------------------------------------*            

Positions:
   0 C     13.232564   10.180343    4.834585
   1 C     10.729374    9.631860    4.496648
   2 C     11.951510    9.986454    4.644484
   3 C      4.158940    3.131905    5.357492
   4 C      1.025359    9.712389    5.206113
   5 C     14.499193   10.206394    5.002172
   6 C     15.786304   10.041766    5.152304
   7 C      2.262486    9.246802    5.179288
   8 C      9.335347    3.772527    4.718942
   9 C      9.627812    5.058714    5.155467
  10 C      8.194146    3.243239    4.539913
  11 C      8.398555    5.847090    5.416825
  12 C      6.943711    3.839390    4.726609
  13 C      8.538128    7.220033    5.898885
  14 C      7.068485    5.244676    5.192494
  15 C      4.559006    4.186075    4.779474
  16 C      4.453117    5.506513    5.204159
  17 C      5.605434    3.429152    4.585851
  18 C      5.832434    6.005367    5.419650
  19 C      5.347927    8.522189    6.330609
  20 C      6.036007    7.313085    5.900611
  21 C      7.451550   10.294623    7.031793
  22 C      6.763590    9.161403    6.594628
  23 C      7.336742    7.890530    6.135291

Unit cell:
           periodic     x           y           z      points  spacing
  1. axis:    yes   16.000000    0.000000    0.000000    80     0.2000
  2. axis:    yes    0.000000   16.000000    0.000000    80     0.2000
  3. axis:    yes    0.000000    0.000000   10.000000    48     0.2083

Effective grid spacing dv^(1/3) = 0.2027

                     log10-error:    total        iterations:
           time      wfs    density  energy       fermi  poisson
iter:   1  11:53:37          +inf  -168.983517    3      5      
iter:   2  11:53:38         -1.81  -168.864118    3      2      
iter:   3  11:53:38         -2.03  -168.839282    2      2      
iter:   4  11:53:39         -2.20  -168.822498    2      2      
iter:   5  11:53:39         -2.32  -168.814416    2      2      
iter:   6  11:53:40         -2.49  -168.808278    2      2      
iter:   7  11:53:40         -2.69  -168.806996    2      2      
iter:   8  11:53:41         -2.81  -168.806459    2      2      
iter:   9  11:53:41         -2.92  -168.807198    2      2      
iter:  10  11:53:42         -3.13  -168.807189    2      1      
iter:  11  11:53:43         -3.23  -168.806142    2      1      
iter:  12  11:53:43         -3.32  -168.806084    2      1      
iter:  13  11:53:44         -3.52  -168.808264    2      1      
iter:  14  11:53:44         -3.81  -168.806869    2      1      
iter:  15  11:53:45         -3.86  -168.806607    1      1      
iter:  16  11:53:45         -3.91  -168.805859    2      1      
iter:  17  11:53:46         -4.13  -168.806457    2      1      

Converged after 17 iterations.

Dipole moment: (17.175402, -0.155229, -0.261043) |e|*Ang

Energy contributions relative to reference atoms: (reference = -24663.074771)

Kinetic:       +120.228743
Potential:     -126.771050
External:        +0.000000
XC:            -164.888509
Entropy (-ST):   -0.491665
Local:           +2.870192
--------------------------
Free energy:   -169.052289
Extrapolated:  -168.806457

Fermi level: -4.78020

 Band  Eigenvalues  Occupancy
    0    -23.73804    2.00000
    1    -22.72035    2.00000
    2    -21.86624    2.00000
    3    -21.13587    2.00000
    4    -20.26931    2.00000
    5    -20.11148    2.00000
    6    -19.70368    2.00000
    7    -18.90863    2.00000
    8    -18.80093    2.00000
    9    -17.61592    2.00000
   10    -17.45655    2.00000
   11    -17.33420    2.00000
   12    -16.57375    2.00000
   13    -15.94029    2.00000
   14    -15.84558    2.00000
   15    -15.12095    2.00000
   16    -14.56625    2.00000
   17    -14.19975    2.00000
   18    -12.80785    2.00000
   19    -12.53802    2.00000
   20    -12.23260    2.00000
   21    -11.63410    2.00000
   22    -11.39354    2.00000
   23    -10.58486    2.00000
   24    -10.19690    2.00000
   25     -9.89671    2.00000
   26     -9.80895    2.00000
   27     -9.80738    2.00000
   28     -9.75675    2.00000
   29     -9.51218    2.00000
   30     -9.24923    2.00000
   31     -8.36931    2.00000
   32     -8.36139    2.00000
   33     -7.81294    2.00000
   34     -7.68973    2.00000
   35     -7.54012    2.00000
   36     -7.24435    2.00000
   37     -6.60727    2.00000
   38     -6.55361    2.00000
   39     -6.46319    2.00000
   40     -6.44775    2.00000
   41     -6.27008    2.00000
   42     -6.15481    2.00000
   43     -6.05693    1.99999
   44     -5.62593    1.99958
   45     -5.44834    1.99750
   46     -4.89161    1.50578
   47     -4.85449    1.35526
   48     -4.72901    0.74951
   49     -4.62109    0.33846
   50     -4.36171    0.02999
   51     -4.33885    0.02394
   52     -3.42533    0.00000
   53     -3.30152    0.00000
   54     -3.23784    0.00000
   55     -2.93261    0.00000
   56     -1.95721    0.00000
   57     -1.54776    0.00000
   58     -1.35672    0.00000
   59     -1.32386    0.00000
   60     -0.54343    0.00000
   61      0.19372    0.00000
   62      1.16001    0.00000
   63      1.54450    0.00000
   64      1.74811    0.00000
   65      1.87448    0.00000
   66      2.90840    0.00000
   67      3.09191    0.00000
   68      3.74476    0.00000
   69      4.10369    0.00000
   70      4.39847    0.00000
   71      4.59870    0.00000
   72      4.65725    0.00000
   73      5.33503    0.00000
   74      6.08828    0.00000
   75      6.10513    0.00000
   76      6.39897    0.00000
   77      6.50961    0.00000
   78      6.80962    0.00000
   79      7.30287    0.00000
   80      7.41903    0.00000
   81      7.72530    0.00000
   82      7.98722    0.00000
   83      8.28491    0.00000
   84      8.51702    0.00000
   85      8.65878    0.00000
   86      8.72104    0.00000
   87      8.72799    0.00000
   88      8.94293    0.00000
   89      9.14035    0.00000
   90      9.15096    0.00000
   91      9.18461    0.00000
   92      9.28830    0.00000
   93      9.51642    0.00000
   94      9.67595    0.00000
   95      9.74027    0.00000
   96      9.80927    0.00000
   97      9.88925    0.00000


Forces in eV/Ang:
  0 C    -0.52336   -0.27442   -0.08521
  1 C    -2.30358   -0.64039   -0.21540
  2 C     1.68330    0.68356    0.28474
  3 C    -0.32603   -7.97067    1.73500
  4 C     1.88604   -0.31081    0.23645
  5 C     1.44901    0.14930    0.27658
  6 C    -2.25096    0.19338   -0.36446
  7 C     0.02205    0.03639   -0.04498
  8 C     0.71210    1.77357    0.91797
  9 C    -1.54260   -1.00240   -0.60874
 10 C    -0.47315   -0.78746   -0.39415
 11 C     1.68878    0.18418    0.19096
 12 C     0.18402    0.70723   -0.09300
 13 C    -2.52168   -0.83206   -0.23059
 14 C     0.10633   -0.16794   -0.41297
 15 C    -3.52040    9.60888   -2.06840
 16 C     2.91007    2.38350   -0.06197
 17 C     2.70114   -4.63129    0.73293
 18 C    -1.54462   -0.57126   -0.21185
 19 C     1.65086   -0.41018   -0.16161
 20 C    -1.18415    0.35749    0.17704
 21 C    -1.51898   -2.17661   -0.87524
 22 C     0.58521    3.17313    1.26667
 23 C     2.17070    0.54851    0.03155

System changes: positions 

Initializing position-dependent things.

Density initialized from wave functions
           .--------------------------------------.  
          /|                                      |  
         / |                                      |  
        /  |                                      |  
       /   |                                      |  
      /    |                                      |  
     /     |                                      |  
    /      |              C                       |  
   /       |           C                          |  
  /        |       C                              |  
 *        C|C       C   C C         C   C  C  C   |  
 |         |                     C                |  
 |         .---C---C--C--C------------------------.  
 |        /                 C                    /   
 |       /   C C C  C     C                     /    
 |      /              C                       /     
 |     /                                      /      
 |    /                                      /       
 |   /                                      /        
 |  /                                      /         
 | /                                      /          
 |/                                      /           
 *--------------------------------------*            

Positions:
   0 C     13.235478   10.178513    4.834940
   1 C     10.715848    9.628245    4.495584
   2 C     11.955311    9.989919    4.645636
   3 C      4.174691    3.098839    5.349663
   4 C      1.032299    9.712592    5.207961
   5 C     14.503029   10.208431    5.003580
   6 C     15.779518   10.040686    5.150000
   7 C      2.264982    9.246304    5.178911
   8 C      9.337794    3.785470    4.726367
   9 C      9.614265    5.050840    5.150335
  10 C      8.194447    3.237462    4.536626
  11 C      8.412229    5.848020    5.418270
  12 C      6.947781    3.846244    4.726109
  13 C      8.516292    7.212654    5.896740
  14 C      7.069415    5.244475    5.189002
  15 C      4.531769    4.215333    4.778020
  16 C      4.478526    5.530789    5.203472
  17 C      5.602502    3.400200    4.597372
  18 C      5.821622    6.002737    5.418606
  19 C      5.363248    8.518130    6.328870
  20 C      6.026200    7.316928    5.902784
  21 C      7.439597   10.277902    7.025017
  22 C      6.767489    9.184827    6.604135
  23 C      7.353794    7.897716    6.136511

Unit cell:
           periodic     x           y           z      points  spacing
  1. axis:    yes   16.000000    0.000000    0.000000    80     0.2000
  2. axis:    yes    0.000000   16.000000    0.000000    80     0.2000
  3. axis:    yes    0.000000    0.000000   10.000000    48     0.2083

Effective grid spacing dv^(1/3) = 0.2027

                     log10-error:    total        iterations:
           time      wfs    density  energy       fermi  poisson
iter:   1  11:53:47          +inf  -170.224770    4      5      
iter:   2  11:53:48         -1.66  -170.073330    3      2      
iter:   3  11:53:48         -1.83  -170.027445    3      2      
iter:   4  11:53:49         -1.96  -169.997294    3      2      
iter:   5  11:53:50         -2.12  -169.992842    3      2      
iter:   6  11:53:50         -2.26  -169.986552    2      2      
iter:   7  11:53:51         -2.35  -169.977460    2      2      
iter:   8  11:53:51         -2.64  -169.974876    2      2      
iter:   9  11:53:52         -2.78  -169.973808    2      2      
iter:  10  11:53:52         -2.96  -169.973790    2      2      
iter:  11  11:53:53         -3.11  -169.973340    2      1      
iter:  12  11:53:54         -3.23  -169.972994    2      1      
iter:  13  11:53:54         -3.40  -169.972708    2      1      
iter:  14  11:53:55         -3.54  -169.972980    2      1      
iter:  15  11:53:55         -3.65  -169.973219    2      1      
iter:  16  11:53:56         -3.83  -169.973383    2      1      
iter:  17  11:53:56         -3.99  -169.973506    2      1      
iter:  18  11:53:57         -4.17  -169.973513    2      1      

Converged after 18 iterations.

Dipole moment: (17.497843, -0.246507, -0.257473) |e|*Ang

Energy contributions relative to reference atoms: (reference = -24663.074771)

Kinetic:       +113.664141
Potential:     -121.999023
External:        +0.000000
XC:            -164.298475
Entropy (-ST):   -0.445635
Local:           +2.882660
--------------------------
Free energy:   -170.196331
Extrapolated:  -169.973513

Fermi level: -4.76357

 Band  Eigenvalues  Occupancy
    0    -23.51434    2.00000
    1    -22.62475    2.00000
    2    -21.84903    2.00000
    3    -21.13373    2.00000
    4    -20.29271    2.00000
    5    -20.05588    2.00000
    6    -19.75948    2.00000
    7    -18.99567    2.00000
    8    -18.76443    2.00000
    9    -17.76623    2.00000
   10    -17.43431    2.00000
   11    -17.42509    2.00000
   12    -16.59282    2.00000
   13    -15.90671    2.00000
   14    -15.79434    2.00000
   15    -15.20809    2.00000
   16    -14.56002    2.00000
   17    -14.09099    2.00000
   18    -12.80468    2.00000
   19    -12.61622    2.00000
   20    -12.13147    2.00000
   21    -11.60978    2.00000
   22    -11.29436    2.00000
   23    -10.51822    2.00000
   24    -10.32565    2.00000
   25     -9.94109    2.00000
   26     -9.81487    2.00000
   27     -9.80214    2.00000
   28     -9.80109    2.00000
   29     -9.47904    2.00000
   30     -9.20172    2.00000
   31     -8.31867    2.00000
   32     -8.31084    2.00000
   33     -7.89937    2.00000
   34     -7.73646    2.00000
   35     -7.66474    2.00000
   36     -7.38817    2.00000
   37     -6.69264    2.00000
   38     -6.53254    2.00000
   39     -6.45403    2.00000
   40     -6.42910    2.00000
   41     -6.28423    2.00000
   42     -6.20251    2.00000
   43     -5.97832    1.99999
   44     -5.60527    1.99956
   45     -5.51627    1.99892
   46     -4.91907    1.65127
   47     -4.84468    1.38470
   48     -4.69780    0.68251
   49     -4.55862    0.22821
   50     -4.34920    0.03123
   51     -4.32079    0.02360
   52     -3.41299    0.00000
   53     -3.24869    0.00000
   54     -3.16116    0.00000
   55     -2.88564    0.00000
   56     -1.87372    0.00000
   57     -1.48233    0.00000
   58     -1.35933    0.00000
   59     -1.32614    0.00000
   60     -0.61877    0.00000
   61      0.18574    0.00000
   62      1.22298    0.00000
   63      1.67610    0.00000
   64      1.73018    0.00000
   65      1.80002    0.00000
   66      2.90120    0.00000
   67      3.14249    0.00000
   68      3.64872    0.00000
   69      4.20719    0.00000
   70      4.42597    0.00000
   71      4.60823    0.00000
   72      4.63483    0.00000
   73      5.43450    0.00000
   74      6.06356    0.00000
   75      6.09226    0.00000
   76      6.27566    0.00000
   77      6.40663    0.00000
   78      6.90587    0.00000
   79      7.43310    0.00000
   80      7.52570    0.00000
   81      7.76422    0.00000
   82      7.98497    0.00000
   83      8.21664    0.00000
   84      8.45206    0.00000
   85      8.61213    0.00000
   86      8.68442    0.00000
   87      8.74698    0.00000
   88      8.97625    0.00000
   89      9.14829    0.00000
   90      9.17004    0.00000
   91      9.24095    0.00000
   92      9.31153    0.00000
   93      9.51899    0.00000
   94      9.69787    0.00000
   95      9.74885    0.00000
   96      9.78604    0.00000
   97      9.91556    0.00000


Forces in eV/Ang:
  0 C    -0.60720   -0.25289   -0.09243
  1 C    -1.09017   -0.29344   -0.06626
  2 C     0.50752    0.34654    0.14282
  3 C     0.92194   -5.55484    0.21942
  4 C     0.97833   -0.07878    0.18604
  5 C     0.95284    0.18830    0.21097
  6 C    -0.88175   -0.07254   -0.24336
  7 C     0.14239   -0.00178   -0.02324
  8 C    -0.06306    0.95251    0.64518
  9 C    -1.19279   -0.45270   -0.38863
 10 C     0.02686   -0.63309   -0.40344
 11 C     1.03121   -0.18960    0.02442
 12 C    -0.11354    0.37367   -0.05166
 13 C    -2.12564   -0.62846   -0.19576
 14 C     0.22903    0.02240   -0.32605
 15 C    -2.34315    6.06644   -0.72813
 16 C     2.21137    1.52801   -0.52928
 17 C     0.65169   -2.84694    1.16208
 18 C    -0.58295   -0.06560   -0.07576
 19 C     1.61718   -0.54320   -0.24242
 20 C    -0.94543    0.67982    0.34541
 21 C    -0.58619   -0.75057   -0.30270
 22 C    -0.04199    1.09599    0.45397
 23 C     1.34197    1.18159    0.35903

System changes: positions 

Initializing position-dependent things.

Density initialized from wave functions
           .--------------------------------------.  
          /|                                      |  
         / |                                      |  
        /  |                                      |  
       /   |                                      |  
      /    |                                      |  
     /     |                                      |  
    /      |              C                       |  
   /       |           C                          |  
  /        |       C                              |  
 *        C|C       C   C C         C   C  C  C   |  
 |         |                     C                |  
 |         .---C---C--C--C------------------------.  
 |        /                 C                    /   
 |       /   C C C  C     C                     /    
 |      /              C                       /     
 |     /                                      /      
 |    /                                      /       
 |   /                                      /        
 |  /                                      /         
 | /                                      /          
 |/                                      /           
 *--------------------------------------*            

Positions:
   0 C     13.233684   10.176357    4.834648
   1 C     10.709986    9.626802    4.495537
   2 C     11.952976    9.991594    4.646150
   3 C      4.195647    3.067117    5.337232
   4 C      1.035657    9.713703    5.209630
   5 C     14.506932   10.210751    5.005028
   6 C     15.779464   10.038132    5.148211
   7 C      2.267823    9.245783    5.178712
   8 C      9.334279    3.792660    4.732152
   9 C      9.602752    5.047385    5.146804
  10 C      8.197725    3.231975    4.532715
  11 C      8.421195    5.845403    5.418227
  12 C      6.947790    3.850015    4.725815
  13 C      8.495746    7.206565    5.894761
  14 C      7.071797    5.245602    5.185924
  15 C      4.511710    4.240670    4.781601
  16 C      4.499739    5.547083    5.197714
  17 C      5.591815    3.380307    4.612205
  18 C      5.818296    6.003916    5.418446
  19 C      5.379730    8.512359    6.326209
  20 C      6.017378    7.324370    5.906718
  21 C      7.435429   10.273130    7.023060
  22 C      6.765789    9.191255    6.606969
  23 C      7.365197    7.911373    6.140912

Unit cell:
           periodic     x           y           z      points  spacing
  1. axis:    yes   16.000000    0.000000    0.000000    80     0.2000
  2. axis:    yes    0.000000   16.000000    0.000000    80     0.2000
  3. axis:    yes    0.000000    0.000000   10.000000    48     0.2083

Effective grid spacing dv^(1/3) = 0.2027

                     log10-error:    total        iterations:
           time      wfs    density  energy       fermi  poisson
iter:   1  11:53:58          +inf  -170.746261    4      5      
iter:   2  11:53:59         -1.85  -170.698516    3      2      
iter:   3  11:54:00         -2.03  -170.677216    3      2      
iter:   4  11:54:00         -2.19  -170.674425    3      2      
iter:   5  11:54:01         -2.30  -170.671733    3      2      
iter:   6  11:54:01         -2.43  -170.669432    2      2      
iter:   7  11:54:02         -2.55  -170.664575    2      2      
iter:   8  11:54:02         -2.83  -170.662268    2      2      
iter:   9  11:54:03         -2.99  -170.662301    2      1      
iter:  10  11:54:03         -3.15  -170.661918    2      1      
iter:  11  11:54:04         -3.33  -170.661997    2      1      
iter:  12  11:54:05         -3.44  -170.661604    2      1      
iter:  13  11:54:05         -3.60  -170.661458    2      1      
iter:  14  11:54:06         -3.73  -170.661771    2      1      
iter:  15  11:54:06         -3.84  -170.661909    2      1      
iter:  16  11:54:07         -3.94  -170.661980    2      1      
iter:  17  11:54:07         -4.05  -170.661906    2      1      

Converged after 17 iterations.

Dipole moment: (17.480695, -0.290793, -0.235293) |e|*Ang

Energy contributions relative to reference atoms: (reference = -24663.074771)

Kinetic:       +110.837373
Potential:     -119.888682
External:        +0.000000
XC:            -164.310934
Entropy (-ST):   -0.384219
Local:           +2.892445
--------------------------
Free energy:   -170.854016
Extrapolated:  -170.661906

Fermi level: -4.73177

 Band  Eigenvalues  Occupancy
    0    -23.42431    2.00000
    1    -22.64231    2.00000
    2    -21.85435    2.00000
    3    -21.10222    2.00000
    4    -20.34285    2.00000
    5    -20.02267    2.00000
    6    -19.78043    2.00000
    7    -19.03015    2.00000
    8    -18.73407    2.00000
    9    -17.84800    2.00000
   10    -17.50616    2.00000
   11    -17.39573    2.00000
   12    -16.61617    2.00000
   13    -15.86833    2.00000
   14    -15.76450    2.00000
   15    -15.25624    2.00000
   16    -14.53094    2.00000
   17    -14.01176    2.00000
   18    -12.82961    2.00000
   19    -12.73420    2.00000
   20    -12.06951    2.00000
   21    -11.60028    2.00000
   22    -11.18286    2.00000
   23    -10.51226    2.00000
   24    -10.37135    2.00000
   25    -10.00061    2.00000
   26     -9.91281    2.00000
   27     -9.77249    2.00000
   28     -9.77120    2.00000
   29     -9.46850    2.00000
   30     -9.19015    2.00000
   31     -8.29013    2.00000
   32     -8.28238    2.00000
   33     -8.14903    2.00000
   34     -7.77044    2.00000
   35     -7.70266    2.00000
   36     -7.43825    2.00000
   37     -6.75873    2.00000
   38     -6.50183    2.00000
   39     -6.43761    2.00000
   40     -6.40569    2.00000
   41     -6.28501    2.00000
   42     -6.22099    2.00000
   43     -5.95780    1.99999
   44     -5.58111    1.99959
   45     -5.53162    1.99933
   46     -4.98680    1.85519
   47     -4.79822    1.32053
   48     -4.65647    0.64032
   49     -4.46181    0.12600
   50     -4.32958    0.03521
   51     -4.29004    0.02384
   52     -3.35578    0.00000
   53     -3.18977    0.00000
   54     -3.13625    0.00000
   55     -2.84468    0.00000
   56     -1.86522    0.00000
   57     -1.42849    0.00000
   58     -1.35762    0.00000
   59     -1.32238    0.00000
   60     -0.69153    0.00000
   61      0.19007    0.00000
   62      1.26376    0.00000
   63      1.67616    0.00000
   64      1.79143    0.00000
   65      1.97388    0.00000
   66      2.88747    0.00000
   67      3.21620    0.00000
   68      3.56137    0.00000
   69      4.26029    0.00000
   70      4.45268    0.00000
   71      4.61123    0.00000
   72      4.64822    0.00000
   73      5.56236    0.00000
   74      5.88855    0.00000
   75      6.06922    0.00000
   76      6.28519    0.00000
   77      6.38033    0.00000
   78      6.98624    0.00000
   79      7.45780    0.00000
   80      7.55672    0.00000
   81      7.80639    0.00000
   82      7.87546    0.00000
   83      8.23346    0.00000
   84      8.32418    0.00000
   85      8.63472    0.00000
   86      8.68930    0.00000
   87      8.78521    0.00000
   88      8.97486    0.00000
   89      9.16051    0.00000
   90      9.18447    0.00000
   91      9.23643    0.00000
   92      9.32582    0.00000
   93      9.52038    0.00000
   94      9.70889    0.00000
   95      9.76542    0.00000
   96      9.78774    0.00000
   97      9.93731    0.00000


Forces in eV/Ang:
  0 C    -0.26262   -0.22558   -0.03907
  1 C    -0.83166   -0.22069   -0.04454
  2 C     0.31713    0.27990    0.12025
  3 C     1.63078   -3.83968   -0.73598
  4 C     0.89038   -0.08542    0.16275
  5 C     0.35965    0.17343    0.12202
  6 C    -0.56257   -0.10725   -0.19518
  7 C     0.10611    0.02095   -0.00701
  8 C    -0.23882    0.59281    0.48945
  9 C    -0.85142   -0.08465   -0.23552
 10 C    -0.25568   -0.64527   -0.42204
 11 C     0.57638   -0.29581   -0.04100
 12 C    -0.19564    0.08503   -0.02471
 13 C    -1.88307   -0.43848   -0.16150
 14 C     0.18476    0.02288   -0.28770
 15 C    -1.89325    3.75210    0.20972
 16 C     1.56513    1.00232   -0.77725
 17 C    -0.05145   -1.89929    1.31718
 18 C     0.13732    0.36547    0.00749
 19 C     1.34008   -0.43391   -0.23127
 20 C    -0.76068    0.41528    0.29126
 21 C    -0.28166   -0.29782   -0.11187
 22 C    -0.14829    0.67101    0.25932
 23 C     1.14791    1.25174    0.44019

System changes: positions 

Initializing position-dependent things.

Density initialized from wave functions
           .--------------------------------------.  
          /|                                      |  
         / |                                      |  
        /  |                                      |  
       /   |                                      |  
      /    |                                      |  
     /     |                                      |  
    /      |              C                       |  
   /       |           C                          |  
  /        |       C                              |  
 *        C|C       C   C C         C   C  C  C   |  
 |         |                     C                |  
 |         .---C---C-----C------------------------.  
 |        /           C     C                    /   
 |       /   C C C  C     C                     /    
 |      /              C                       /     
 |     /                                      /      
 |    /                                      /       
 |   /                                      /        
 |  /                                      /         
 | /                                      /          
 |/                                      /           
 *--------------------------------------*            

Positions:
   0 C     13.233813   10.174166    4.834663
   1 C     10.703380    9.625127    4.495334
   2 C     11.952651    9.993723    4.646980
   3 C      4.219915    3.039879    5.320826
   4 C      1.041970    9.713747    5.211281
   5 C     14.507264   10.212835    5.005912
   6 C     15.777931   10.036050    5.146451
   7 C      2.269695    9.245754    5.178653
   8 C      9.330416    3.797940    4.737084
   9 C      9.593882    5.047019    5.144452
  10 C      8.196160    3.225421    4.528246
  11 C      8.426686    5.841986    5.417684
  12 C      6.946538    3.850955    4.725676
  13 C      8.475846    7.201980    5.893016
  14 C      7.073704    5.246246    5.182909
  15 C      4.492884    4.260368    4.790199
  16 C      4.515989    5.558667    5.189225
  17 C      5.581842    3.364527    4.628104
  18 C      5.821171    6.008938    5.418855
  19 C      5.394102    8.507690    6.323652
  20 C      6.009564    7.328739    5.909960
  21 C      7.432970   10.270875    7.022227
  22 C      6.763814    9.196965    6.609184
  23 C      7.376785    7.925508    6.145950

Unit cell:
           periodic     x           y           z      points  spacing
  1. axis:    yes   16.000000    0.000000    0.000000    80     0.2000
  2. axis:    yes    0.000000   16.000000    0.000000    80     0.2000
  3. axis:    yes    0.000000    0.000000   10.000000    48     0.2083

Effective grid spacing dv^(1/3) = 0.2027

                     log10-error:    total        iterations:
           time      wfs    density  energy       fermi  poisson
iter:   1  11:54:09          +inf  -171.212953    4      5      
iter:   2  11:54:09         -1.87  -171.167663    3      2      
iter:   3  11:54:10         -2.12  -171.162067    3      2      
iter:   4  11:54:11         -2.25  -171.157514    3      2      
iter:   5  11:54:11         -2.43  -171.157618    3      2      
iter:   6  11:54:12         -2.50  -171.156550    3      2      
iter:   7  11:54:12         -2.74  -171.154753    3      2      
iter:   8  11:54:13         -2.90  -171.153228    2      2      
iter:   9  11:54:13         -3.06  -171.151975    2      2      
iter:  10  11:54:14         -3.25  -171.152785    2      1      
iter:  11  11:54:15         -3.41  -171.152663    2      1      
iter:  12  11:54:15         -3.56  -171.152971    2      1      
iter:  13  11:54:16         -3.65  -171.152647    2      1      
iter:  14  11:54:16         -3.88  -171.152592    2      1      
iter:  15  11:54:17         -3.95  -171.152777    2      1      
iter:  16  11:54:17         -4.05  -171.152639    1      1      

Converged after 16 iterations.

Dipole moment: (17.530538, -0.328275, -0.216379) |e|*Ang

Energy contributions relative to reference atoms: (reference = -24663.074771)

Kinetic:       +109.497700
Potential:     -118.891800
External:        +0.000000
XC:            -164.489548
Entropy (-ST):   -0.338594
Local:           +2.900307
--------------------------
Free energy:   -171.321936
Extrapolated:  -171.152639

Fermi level: -4.68962

 Band  Eigenvalues  Occupancy
    0    -23.42068    2.00000
    1    -22.68978    2.00000
    2    -21.86273    2.00000
    3    -21.06826    2.00000
    4    -20.41088    2.00000
    5    -19.97141    2.00000
    6    -19.80915    2.00000
    7    -19.05300    2.00000
    8    -18.69474    2.00000
    9    -17.94554    2.00000
   10    -17.57947    2.00000
   11    -17.36015    2.00000
   12    -16.68608    2.00000
   13    -15.85744    2.00000
   14    -15.71453    2.00000
   15    -15.31052    2.00000
   16    -14.49296    2.00000
   17    -13.95303    2.00000
   18    -12.92548    2.00000
   19    -12.81374    2.00000
   20    -12.04545    2.00000
   21    -11.61040    2.00000
   22    -11.10743    2.00000
   23    -10.57118    2.00000
   24    -10.36265    2.00000
   25    -10.10080    2.00000
   26    -10.00288    2.00000
   27     -9.73835    2.00000
   28     -9.73712    2.00000
   29     -9.47490    2.00000
   30     -9.21481    2.00000
   31     -8.47214    2.00000
   32     -8.24408    2.00000
   33     -8.23659    2.00000
   34     -7.82234    2.00000
   35     -7.68125    2.00000
   36     -7.46701    2.00000
   37     -6.81333    2.00000
   38     -6.44518    2.00000
   39     -6.42135    2.00000
   40     -6.37551    2.00000
   41     -6.28542    2.00000
   42     -6.23312    2.00000
   43     -5.95930    1.99999
   44     -5.57186    1.99971
   45     -5.55016    1.99963
   46     -5.07419    1.95815
   47     -4.74954    1.29098
   48     -4.60785    0.61253
   49     -4.36699    0.07638
   50     -4.30314    0.04108
   51     -4.23766    0.02155
   52     -3.31717    0.00000
   53     -3.16045    0.00000
   54     -3.13627    0.00000
   55     -2.82573    0.00000
   56     -1.89412    0.00000
   57     -1.36307    0.00000
   58     -1.32854    0.00000
   59     -1.29433    0.00000
   60     -0.75543    0.00000
   61      0.20946    0.00000
   62      1.26710    0.00000
   63      1.67403    0.00000
   64      1.79028    0.00000
   65      2.18434    0.00000
   66      2.88629    0.00000
   67      3.26014    0.00000
   68      3.44541    0.00000
   69      4.23434    0.00000
   70      4.42562    0.00000
   71      4.60931    0.00000
   72      4.66951    0.00000
   73      5.65236    0.00000
   74      5.70964    0.00000
   75      6.05773    0.00000
   76      6.30975    0.00000
   77      6.34938    0.00000
   78      6.99636    0.00000
   79      7.41829    0.00000
   80      7.58629    0.00000
   81      7.76680    0.00000
   82      7.87767    0.00000
   83      8.15965    0.00000
   84      8.35092    0.00000
   85      8.65115    0.00000
   86      8.71361    0.00000
   87      8.82717    0.00000
   88      8.96403    0.00000
   89      9.16934    0.00000
   90      9.20039    0.00000
   91      9.23556    0.00000
   92      9.33147    0.00000
   93      9.50924    0.00000
   94      9.72642    0.00000
   95      9.77162    0.00000
   96      9.79353    0.00000
   97      9.93678    0.00000


Forces in eV/Ang:
  0 C    -0.31198   -0.20192   -0.04098
  1 C    -0.41088   -0.09687   -0.00098
  2 C    -0.07317    0.15323    0.07081
  3 C     1.85695   -2.81981   -1.18152
  4 C     0.28004    0.06902    0.13253
  5 C     0.32984    0.15462    0.10637
  6 C    -0.08827   -0.19752   -0.14633
  7 C     0.29294   -0.04282   -0.00316
  8 C    -0.60905    0.33765    0.35431
  9 C    -0.48808    0.04770   -0.14390
 10 C    -0.18766   -0.64760   -0.40374
 11 C     0.16724   -0.25896   -0.06347
 12 C    -0.27465   -0.05113    0.01430
 13 C    -1.52506   -0.41163   -0.17377
 14 C     0.13440    0.01291   -0.23174
 15 C    -1.44761    2.28460    0.66942
 16 C     1.09224    0.69841   -0.89989
 17 C    -0.37175   -1.20744    1.35881
 18 C     0.49374    0.44699   -0.04274
 19 C     1.00892   -0.21550   -0.15503
 20 C    -0.38357    0.27844    0.24138
 21 C    -0.06182    0.04191    0.02682
 22 C    -0.24971    0.37286    0.11656
 23 C     0.83938    1.25240    0.48223

System changes: positions 

Initializing position-dependent things.

Density initialized from wave functions
           .--------------------------------------.  
          /|                                      |  
         / |                                      |  
        /  |                                      |  
       /   |                                      |  
      /    |                                      |  
     /     |                                      |  
    /      |              C                       |  
   /       |           C                          |  
  /        |       C                              |  
 *        C|C       C   C C         C   C  C  C   |  
 |         |                     C                |  
 |         .----C--C-----C------------------------.  
 |        /           C     C                    /   
 |       /   C C C  C     C                     /    
 |      /              C                       /     
 |     /                                      /      
 |    /                                      /       
 |   /                                      /        
 |  /                                      /         
 | /                                      /          
 |/                                      /           
 *--------------------------------------*            

Positions:
   0 C     13.231861   10.171949    4.834432
   1 C     10.699194    9.624194    4.495389
   2 C     11.950222    9.995175    4.647604
   3 C      4.244421    3.013590    5.303267
   4 C      1.043409    9.715124    5.212796
   5 C     14.509711   10.214737    5.006990
   6 C     15.778789   10.033329    5.144865
   7 C      2.273688    9.245042    5.178598
   8 C      9.322980    3.801968    4.741242
   9 C      9.588136    5.047243    5.142652
  10 C      8.194584    3.217995    4.523632
  11 C      8.428756    5.839291    5.417067
  12 C      6.944166    3.850792    4.725903
  13 C      8.458100    7.196950    5.890914
  14 C      7.075088    5.246468    5.180204
  15 C      4.476000    4.277203    4.800579
  16 C      4.529047    5.568264    5.179182
  17 C      5.573520    3.351742    4.644575
  18 C      5.826693    6.014109    5.418327
  19 C      5.405756    8.505430    6.321944
  20 C      6.005335    7.331699    5.912680
  21 C      7.431715   10.270608    7.022225
  22 C      6.761233    9.202324    6.610947
  23 C      7.386695    7.939882    6.151432

Unit cell:
           periodic     x           y           z      points  spacing
  1. axis:    yes   16.000000    0.000000    0.000000    80     0.2000
  2. axis:    yes    0.000000   16.000000    0.000000    80     0.2000
  3. axis:    yes    0.000000    0.000000   10.000000    48     0.2083

Effective grid spacing dv^(1/3) = 0.2027

                     log10-error:    total        iterations:
           time      wfs    density  energy       fermi  poisson
iter:   1  11:54:19          +inf  -171.576198    4      5      
iter:   2  11:54:19         -1.92  -171.524614    3      2      
iter:   3  11:54:20         -2.19  -171.522752    3      2      
iter:   4  11:54:21         -2.32  -171.519419    3      2      
iter:   5  11:54:21         -2.53  -171.519726    2      2      
iter:   6  11:54:22         -2.60  -171.517262    2      2      
iter:   7  11:54:22         -2.88  -171.516733    2      1      
iter:   8  11:54:23         -2.96  -171.515531    2      2      
iter:   9  11:54:23         -3.24  -171.515717    2      1      
iter:  10  11:54:24         -3.33  -171.516020    2      1      
iter:  11  11:54:24         -3.60  -171.516367    2      1      
iter:  12  11:54:25         -3.71  -171.516167    2      1      
iter:  13  11:54:25         -3.76  -171.515986    2      1      
iter:  14  11:54:26         -3.97  -171.516129    2      1      
iter:  15  11:54:26         -4.07  -171.515992    2      1      

Converged after 15 iterations.

Dipole moment: (17.443929, -0.352681, -0.195430) |e|*Ang

Energy contributions relative to reference atoms: (reference = -24663.074771)

Kinetic:       +108.850409
Potential:     -118.425215
External:        +0.000000
XC:            -164.687146
Entropy (-ST):   -0.316509
Local:           +2.904215
--------------------------
Free energy:   -171.674246
Extrapolated:  -171.515992

Fermi level: -4.64378

 Band  Eigenvalues  Occupancy
    0    -23.43843    2.00000
    1    -22.75409    2.00000
    2    -21.86859    2.00000
    3    -21.01948    2.00000
    4    -20.48766    2.00000
    5    -19.92930    2.00000
    6    -19.83709    2.00000
    7    -19.06398    2.00000
    8    -18.64691    2.00000
    9    -18.04918    2.00000
   10    -17.64366    2.00000
   11    -17.30588    2.00000
   12    -16.77618    2.00000
   13    -15.85461    2.00000
   14    -15.67346    2.00000
   15    -15.35618    2.00000
   16    -14.44754    2.00000
   17    -13.91105    2.00000
   18    -13.05410    2.00000
   19    -12.86132    2.00000
   20    -12.02597    2.00000
   21    -11.62851    2.00000
   22    -11.05909    2.00000
   23    -10.63909    2.00000
   24    -10.34820    2.00000
   25    -10.21772    2.00000
   26    -10.07186    2.00000
   27     -9.69221    2.00000
   28     -9.69099    2.00000
   29     -9.48862    2.00000
   30     -9.25786    2.00000
   31     -8.77772    2.00000
   32     -8.20561    2.00000
   33     -8.19819    2.00000
   34     -7.88523    2.00000
   35     -7.63949    2.00000
   36     -7.48926    2.00000
   37     -6.85193    2.00000
   38     -6.42619    2.00000
   39     -6.39352    2.00000
   40     -6.33547    2.00000
   41     -6.26371    2.00000
   42     -6.24798    2.00000
   43     -5.97733    2.00000
   44     -5.61626    1.99988
   45     -5.54064    1.99975
   46     -5.16197    1.98883
   47     -4.70585    1.30075
   48     -4.55604    0.58745
   49     -4.29814    0.06116
   50     -4.26858    0.04587
   51     -4.16375    0.01632
   52     -3.26504    0.00000
   53     -3.17505    0.00000
   54     -3.13386    0.00000
   55     -2.79845    0.00000
   56     -1.94013    0.00000
   57     -1.33132    0.00000
   58     -1.28281    0.00000
   59     -1.27361    0.00000
   60     -0.82412    0.00000
   61      0.22920    0.00000
   62      1.23959    0.00000
   63      1.68329    0.00000
   64      1.80153    0.00000
   65      2.34372    0.00000
   66      2.88925    0.00000
   67      3.21256    0.00000
   68      3.41254    0.00000
   69      4.16629    0.00000
   70      4.35174    0.00000
   71      4.61727    0.00000
   72      4.68635    0.00000
   73      5.58080    0.00000
   74      5.71497    0.00000
   75      6.05150    0.00000
   76      6.32137    0.00000
   77      6.36447    0.00000
   78      6.88177    0.00000
   79      7.39472    0.00000
   80      7.59623    0.00000
   81      7.71865    0.00000
   82      7.92005    0.00000
   83      8.08178    0.00000
   84      8.39885    0.00000
   85      8.65890    0.00000
   86      8.73610    0.00000
   87      8.86079    0.00000
   88      8.95409    0.00000
   89      9.17525    0.00000
   90      9.21122    0.00000
   91      9.24615    0.00000
   92      9.33214    0.00000
   93      9.49459    0.00000
   94      9.73184    0.00000
   95      9.75675    0.00000
   96      9.80134    0.00000
   97      9.93165    0.00000


Forces in eV/Ang:
  0 C    -0.01441   -0.17131    0.00346
  1 C    -0.27944   -0.05345    0.01242
  2 C    -0.18880    0.10569    0.05185
  3 C     1.85842   -1.95819   -1.43394
  4 C     0.50140   -0.02324    0.11989
  5 C    -0.05622    0.13116    0.04607
  6 C    -0.04883   -0.17807   -0.12582
  7 C     0.09601    0.03575    0.00515
  8 C    -0.78789    0.29552    0.29058
  9 C    -0.19626    0.11576   -0.07894
 10 C    -0.32867   -0.71404   -0.40193
 11 C    -0.11818   -0.24748   -0.09318
 12 C    -0.23821   -0.14946    0.04144
 13 C    -1.19595   -0.36107   -0.15967
 14 C     0.06596   -0.02875   -0.18721
 15 C    -1.14596    1.07248    0.93541
 16 C     0.68922    0.50914   -0.92010
 17 C    -0.36994   -0.66232    1.27935
 18 C     0.71288    0.49341   -0.08539
 19 C     0.66146    0.03037   -0.04495
 20 C    -0.01045    0.14972    0.17360
 21 C     0.08049    0.27188    0.11804
 22 C    -0.30654    0.21864    0.03936
 23 C     0.59728    1.10315    0.45821

System changes: positions 

Initializing position-dependent things.

Density initialized from wave functions
           .--------------------------------------.  
          /|                                      |  
         / |                                      |  
        /  |                                      |  
       /   |                                      |  
      /    |                                      |  
     /     |                                      |  
    /      |              C                       |  
   /       |           C                          |  
  /        |        C                             |  
 *        C|C       C   C C         C   C  C  C   |  
 |         |                     C                |  
 |         .----C--C-----C------------------------.  
 |        /           C     C                    /   
 |       /   C C C  C     C                     /    
 |      /              C                       /     
 |     /                                      /      
 |    /                                      /       
 |   /                                      /        
 |  /                                      /         
 | /                                      /          
 |/                                      /           
 *--------------------------------------*            

Positions:
   0 C     13.232462   10.169742    4.834583
   1 C     10.694730    9.623280    4.495465
   2 C     11.947753    9.996664    4.648275
   3 C      4.268934    2.988341    5.284249
   4 C      1.049689    9.715002    5.214420
   5 C     14.509077   10.216530    5.007642
   6 C     15.778018   10.030952    5.143143
   7 C      2.275200    9.245398    5.178616
   8 C      9.313270    3.806981    4.745498
   9 C      9.584699    5.047652    5.141159
  10 C      8.190783    3.208659    4.518455
  11 C      8.428471    5.836604    5.416120
  12 C      6.941944    3.849783    4.726410
  13 C      8.441760    7.191678    5.888712
  14 C      7.075841    5.246039    5.177626
  15 C      4.459525    4.290281    4.812346
  16 C      4.539786    5.577276    5.168109
  17 C      5.568185    3.341368    4.661278
  18 C      5.834167    6.019623    5.417019
  19 C      5.414887    8.505832    6.321425
  20 C      6.004823    7.333724    5.914894
  21 C      7.431372   10.272095    7.022916
  22 C      6.757978    9.207730    6.612515
  23 C      7.395451    7.953712    6.157019

Unit cell:
           periodic     x           y           z      points  spacing
  1. axis:    yes   16.000000    0.000000    0.000000    80     0.2000
  2. axis:    yes    0.000000   16.000000    0.000000    80     0.2000
  3. axis:    yes    0.000000    0.000000   10.000000    48     0.2083

Effective grid spacing dv^(1/3) = 0.2027

                     log10-error:    total        iterations:
           time      wfs    density  energy       fermi  poisson
iter:   1  11:54:28          +inf  -171.866589    3      5      
iter:   2  11:54:29         -1.96  -171.809526    3      2      
iter:   3  11:54:29         -2.22  -171.806696    3      2      
iter:   4  11:54:30         -2.37  -171.804483    2      2      
iter:   5  11:54:30         -2.56  -171.804196    2      2      
iter:   6  11:54:31         -2.65  -171.800914    3      2      
iter:   7  11:54:32         -2.89  -171.801288    2      2      
iter:   8  11:54:32         -3.02  -171.799881    2      1      
iter:   9  11:54:33         -3.16  -171.800104    2      1      
iter:  10  11:54:33         -3.34  -171.800386    2      1      
iter:  11  11:54:34         -3.56  -171.800475    2      1      
iter:  12  11:54:34         -3.65  -171.801130    2      1      
iter:  13  11:54:35         -3.84  -171.800822    2      1      
iter:  14  11:54:35         -3.94  -171.800656    2      1      
iter:  15  11:54:36         -4.08  -171.800798    2      1      

Converged after 15 iterations.

Dipole moment: (17.452030, -0.366280, -0.170529) |e|*Ang

Energy contributions relative to reference atoms: (reference = -24663.074771)

Kinetic:       +108.376876
Potential:     -118.082429
External:        +0.000000
XC:            -164.849554
Entropy (-ST):   -0.306637
Local:           +2.907628
--------------------------
Free energy:   -171.954117
Extrapolated:  -171.800798

Fermi level: -4.60465

 Band  Eigenvalues  Occupancy
    0    -23.46836    2.00000
    1    -22.82337    2.00000
    2    -21.87608    2.00000
    3    -20.98478    2.00000
    4    -20.56244    2.00000
    5    -19.87715    2.00000
    6    -19.86693    2.00000
    7    -19.07090    2.00000
    8    -18.61367    2.00000
    9    -18.14385    2.00000
   10    -17.70041    2.00000
   11    -17.27890    2.00000
   12    -16.86740    2.00000
   13    -15.86602    2.00000
   14    -15.62286    2.00000
   15    -15.39979    2.00000
   16    -14.40593    2.00000
   17    -13.87670    2.00000
   18    -13.17510    2.00000
   19    -12.90467    2.00000
   20    -12.01009    2.00000
   21    -11.65718    2.00000
   22    -11.03542    2.00000
   23    -10.70824    2.00000
   24    -10.38895    2.00000
   25    -10.28619    2.00000
   26    -10.13404    2.00000
   27     -9.65723    2.00000
   28     -9.65602    2.00000
   29     -9.50742    2.00000
   30     -9.33441    2.00000
   31     -9.01859    2.00000
   32     -8.15967    2.00000
   33     -8.15238    2.00000
   34     -7.95347    2.00000
   35     -7.58525    2.00000
   36     -7.50567    2.00000
   37     -6.88248    2.00000
   38     -6.38407    2.00000
   39     -6.37718    2.00000
   40     -6.31011    2.00000
   41     -6.26881    2.00000
   42     -6.24103    2.00000
   43     -6.00629    2.00000
   44     -5.67012    1.99995
   45     -5.53329    1.99981
   46     -5.23994    1.99652
   47     -4.67270    1.32770
   48     -4.50826    0.55216
   49     -4.25670    0.05980
   50     -4.24307    0.05238
   51     -4.09079    0.01166
   52     -3.26359    0.00000
   53     -3.21133    0.00000
   54     -3.10325    0.00000
   55     -2.75318    0.00000
   56     -1.98681    0.00000
   57     -1.29123    0.00000
   58     -1.24037    0.00000
   59     -1.18842    0.00000
   60     -0.89532    0.00000
   61      0.24188    0.00000
   62      1.18697    0.00000
   63      1.69332    0.00000
   64      1.81542    0.00000
   65      2.44424    0.00000
   66      2.88185    0.00000
   67      3.11165    0.00000
   68      3.42397    0.00000
   69      4.07354    0.00000
   70      4.24850    0.00000
   71      4.61976    0.00000
   72      4.69334    0.00000
   73      5.50897    0.00000
   74      5.74415    0.00000
   75      6.03371    0.00000
   76      6.30132    0.00000
   77      6.36484    0.00000
   78      6.68566    0.00000
   79      7.41865    0.00000
   80      7.57748    0.00000
   81      7.69877    0.00000
   82      7.95513    0.00000
   83      8.03192    0.00000
   84      8.43272    0.00000
   85      8.66181    0.00000
   86      8.76948    0.00000
   87      8.87420    0.00000
   88      8.95523    0.00000
   89      9.16989    0.00000
   90      9.20695    0.00000
   91      9.26068    0.00000
   92      9.33248    0.00000
   93      9.47605    0.00000
   94      9.71797    0.00000
   95      9.74285    0.00000
   96      9.82141    0.00000
   97      9.91937    0.00000


Forces in eV/Ang:
  0 C    -0.26972   -0.16800   -0.03089
  1 C    -0.11918   -0.00032    0.03616
  2 C    -0.18590    0.06706    0.04972
  3 C     1.65469   -1.27303   -1.47530
  4 C    -0.08820    0.14197    0.09743
  5 C     0.08123    0.10139    0.05143
  6 C     0.28699   -0.24090   -0.09383
  7 C     0.31945   -0.04813    0.00208
  8 C    -0.98985    0.25353    0.23185
  9 C     0.02878    0.16763   -0.02861
 10 C    -0.34832   -0.75506   -0.38833
 11 C    -0.29999   -0.23332   -0.11757
 12 C    -0.18161   -0.20258    0.06576
 13 C    -0.88698   -0.30923   -0.14510
 14 C     0.01286   -0.05432   -0.13863
 15 C    -0.87721    0.23944    1.10810
 16 C     0.43462    0.24449   -0.92802
 17 C    -0.24353   -0.22369    1.10750
 18 C     0.76998    0.48165   -0.12933
 19 C     0.40807    0.15871    0.02475
 20 C     0.27757    0.11803    0.14070
 21 C     0.15801    0.39783    0.16792
 22 C    -0.30822    0.19077    0.01386
 23 C     0.38509    0.92472    0.38754

System changes: positions 

Initializing position-dependent things.

Density initialized from wave functions
           .--------------------------------------.  
          /|                                      |  
         / |                                      |  
        /  |                                      |  
       /   |                                      |  
      /    |                                      |  
     /     |                                      |  
    /      |              C                       |  
   /       |           C                          |  
  /        |        C                             |  
 *        C|C       C   C C         C   C  C  C   |  
 |         |                     C                |  
 |         .----C--C-----C------------------------.  
 |        /           C     C                    /   
 |       /   C C C  C     C                     /    
 |      /              C                       /     
 |     /                                      /      
 |    /                                      /       
 |   /                                      /        
 |  /                                      /         
 | /                                      /          
 |/                                      /           
 *--------------------------------------*            

Positions:
   0 C     13.229019   10.167114    4.834184
   1 C     10.690404    9.622555    4.495736
   2 C     11.946472    9.998303    4.649224
   3 C      4.292864    2.963370    5.264156
   4 C      1.050496    9.716718    5.216082
   5 C     14.511187   10.218200    5.008616
   6 C     15.779939   10.027661    5.141411
   7 C      2.279676    9.244778    5.178581
   8 C      9.300160    3.812991    4.749989
   9 C      9.583014    5.048438    5.139881
  10 C      8.185719    3.197133    4.512561
  11 C      8.426606    5.833691    5.414765
  12 C      6.940121    3.848160    4.727234
  13 C      8.426162    7.186137    5.886359
  14 C      7.076091    5.245115    5.175159
  15 C      4.442755    4.301293    4.826220
  16 C      4.549898    5.584621    5.155369
  17 C      5.566331    3.332899    4.677948
  18 C      5.842630    6.025471    5.414902
  19 C      5.422703    8.507650    6.321643
  20 C      6.007366    7.335897    5.917084
  21 C      7.431415   10.274581    7.024013
  22 C      6.754494    9.214738    6.614462
  23 C      7.403563    7.967217    6.162398

Unit cell:
           periodic     x           y           z      points  spacing
  1. axis:    yes   16.000000    0.000000    0.000000    80     0.2000
  2. axis:    yes    0.000000   16.000000    0.000000    80     0.2000
  3. axis:    yes    0.000000    0.000000   10.000000    48     0.2083

Effective grid spacing dv^(1/3) = 0.2027

                     log10-error:    total        iterations:
           time      wfs    density  energy       fermi  poisson
iter:   1  11:54:37          +inf  -172.112000    3      5      
iter:   2  11:54:38         -1.99  -172.052280    3      2      
iter:   3  11:54:39         -2.22  -172.045046    3      2      
iter:   4  11:54:39         -2.41  -172.044443    3      2      
iter:   5  11:54:40         -2.55  -172.042384    2      2      
iter:   6  11:54:40         -2.69  -172.043276    2      2      
iter:   7  11:54:41         -2.77  -172.039936    2      2      
iter:   8  11:54:41         -3.04  -172.039507    2      1      
iter:   9  11:54:42         -3.17  -172.039514    2      1      
iter:  10  11:54:42         -3.34  -172.039545    2      1      
iter:  11  11:54:43         -3.55  -172.039601    2      1      
iter:  12  11:54:43         -3.64  -172.039917    2      1      
iter:  13  11:54:44         -3.85  -172.039808    2      1      
iter:  14  11:54:45         -3.97  -172.039731    2      1      
iter:  15  11:54:45         -4.06  -172.039688    2      1      

Converged after 15 iterations.

Dipole moment: (17.312989, -0.363320, -0.146259) |e|*Ang

Energy contributions relative to reference atoms: (reference = -24663.074771)

Kinetic:       +107.824693
Potential:     -117.693081
External:        +0.000000
XC:            -164.931952
Entropy (-ST):   -0.296499
Local:           +2.908903
--------------------------
Free energy:   -172.187937
Extrapolated:  -172.039688

Fermi level: -4.56732

 Band  Eigenvalues  Occupancy
    0    -23.48900    2.00000
    1    -22.88854    2.00000
    2    -21.88038    2.00000
    3    -20.93640    2.00000
    4    -20.62738    2.00000
    5    -19.89550    2.00000
    6    -19.84996    2.00000
    7    -19.07331    2.00000
    8    -18.56941    2.00000
    9    -18.23554    2.00000
   10    -17.75417    2.00000
   11    -17.22216    2.00000
   12    -16.95640    2.00000
   13    -15.88641    2.00000
   14    -15.59639    2.00000
   15    -15.43753    2.00000
   16    -14.36609    2.00000
   17    -13.84417    2.00000
   18    -13.28722    2.00000
   19    -12.94403    2.00000
   20    -11.98541    2.00000
   21    -11.69189    2.00000
   22    -11.02277    2.00000
   23    -10.76948    2.00000
   24    -10.49902    2.00000
   25    -10.28722    2.00000
   26    -10.19150    2.00000
   27     -9.61284    2.00000
   28     -9.61164    2.00000
   29     -9.55049    2.00000
   30     -9.44216    2.00000
   31     -9.15021    2.00000
   32     -8.13479    2.00000
   33     -8.12748    2.00000
   34     -8.01912    2.00000
   35     -7.53878    2.00000
   36     -7.49207    2.00000
   37     -6.90378    2.00000
   38     -6.38279    2.00000
   39     -6.36587    2.00000
   40     -6.28962    2.00000
   41     -6.27055    2.00000
   42     -6.22421    2.00000
   43     -6.03837    2.00000
   44     -5.73256    1.99998
   45     -5.53792    1.99988
   46     -5.30831    1.99879
   47     -4.64569    1.37295
   48     -4.45844    0.50371
   49     -4.22060    0.06052
   50     -4.21176    0.05554
   51     -4.02295    0.00861
   52     -3.32334    0.00001
   53     -3.24077    0.00000
   54     -3.01747    0.00000
   55     -2.69441    0.00000
   56     -2.02332    0.00000
   57     -1.30225    0.00000
   58     -1.24886    0.00000
   59     -1.09789    0.00000
   60     -0.94127    0.00000
   61      0.25660    0.00000
   62      1.12108    0.00000
   63      1.69546    0.00000
   64      1.82041    0.00000
   65      2.49666    0.00000
   66      2.86997    0.00000
   67      3.02481    0.00000
   68      3.39762    0.00000
   69      3.97513    0.00000
   70      4.14688    0.00000
   71      4.62154    0.00000
   72      4.69452    0.00000
   73      5.47034    0.00000
   74      5.74389    0.00000
   75      6.01804    0.00000
   76      6.27284    0.00000
   77      6.35702    0.00000
   78      6.53990    0.00000
   79      7.44854    0.00000
   80      7.53460    0.00000
   81      7.66883    0.00000
   82      7.94631    0.00000
   83      8.04664    0.00000
   84      8.45723    0.00000
   85      8.66463    0.00000
   86      8.77541    0.00000
   87      8.86948    0.00000
   88      8.97601    0.00000
   89      9.15442    0.00000
   90      9.20315    0.00000
   91      9.27749    0.00000
   92      9.34165    0.00000
   93      9.45698    0.00000
   94      9.67001    0.00000
   95      9.73150    0.00000
   96      9.82104    0.00000
   97      9.89783    0.00000


Forces in eV/Ang:
  0 C     0.26645   -0.11317    0.04520
  1 C     0.07556    0.06540    0.06581
  2 C    -0.52748   -0.02553   -0.00223
  3 C     1.33887   -0.68451   -1.44619
  4 C     0.29861    0.00502    0.09107
  5 C    -0.26694    0.06467   -0.00332
  6 C     0.12475   -0.18758   -0.10207
  7 C     0.05291    0.05197    0.01444
  8 C    -1.14499    0.22123    0.17874
  9 C     0.20226    0.20943    0.01517
 10 C    -0.35634   -0.78396   -0.36405
 11 C    -0.39758   -0.22395   -0.14004
 12 C    -0.09613   -0.22549    0.08023
 13 C    -0.65224   -0.25167   -0.12121
 14 C    -0.02839   -0.06201   -0.08820
 15 C    -0.64771   -0.43405    1.21736
 16 C     0.23620    0.02803   -0.88213
 17 C    -0.07056    0.10185    0.91267
 18 C     0.76145    0.47416   -0.16923
 19 C     0.20027    0.22155    0.07385
 20 C     0.48083    0.11800    0.11852
 21 C     0.23983    0.52546    0.21766
 22 C    -0.29963    0.12487   -0.02044
 23 C     0.23103    0.76655    0.35693

System changes: positions 

Initializing position-dependent things.

Density initialized from wave functions
           .--------------------------------------.  
          /|                                      |  
         / |                                      |  
        /  |                                      |  
       /   |                                      |  
      /    |                                      |  
     /     |                                      |  
    /      |              C                       |  
   /       |           C                          |  
  /        |        C                             |  
 *        C|C       C   C C         C   C  C  C   |  
 |         |                     C                |  
 |         .----C--C-----C------------------------.  
 |        /   C       C     C                    /   
 |       /   C   C  C     C                     /    
 |      /              C                       /     
 |     /                                      /      
 |    /                                      /       
 |   /                                      /        
 |  /                                      /         
 | /                                      /          
 |/                                      /           
 *--------------------------------------*            

Positions:
   0 C     13.230981   10.164665    4.834562
   1 C     10.687446    9.622437    4.496408
   2 C     11.941082    9.999175    4.649738
   3 C      4.315493    2.938214    5.242822
   4 C      1.056419    9.717017    5.217984
   5 C     14.510430   10.219673    5.009225
   6 C     15.779432   10.024569    5.139179
   7 C      2.281725    9.245243    5.178683
   8 C      9.283055    3.819911    4.754730
   9 C      9.582797    5.049668    5.138811
  10 C      8.179874    3.183238    4.505951
  11 C      8.423763    5.830403    5.412928
  12 C      6.938983    3.846170    4.728336
  13 C      8.410409    7.180265    5.883890
  14 C      7.075971    5.243950    5.172861
  15 C      4.425405    4.310554    4.842466
  16 C      4.560014    5.590539    5.141100
  17 C      5.568017    3.325669    4.694707
  18 C      5.851698    6.031894    5.411867
  19 C      5.429732    8.510171    6.322387
  20 C      6.012442    7.338837    5.919498
  21 C      7.432234   10.278692    7.025759
  22 C      6.750656    9.222554    6.616504
  23 C      7.411483    7.981087    6.168275

Unit cell:
           periodic     x           y           z      points  spacing
  1. axis:    yes   16.000000    0.000000    0.000000    80     0.2000
  2. axis:    yes    0.000000   16.000000    0.000000    80     0.2000
  3. axis:    yes    0.000000    0.000000   10.000000    48     0.2083

Effective grid spacing dv^(1/3) = 0.2027

                     log10-error:    total        iterations:
           time      wfs    density  energy       fermi  poisson
iter:   1  11:54:47          +inf  -172.320593    3      5      
iter:   2  11:54:47         -2.02  -172.262747    3      2      
iter:   3  11:54:48         -2.22  -172.251255    2      2      
iter:   4  11:54:48         -2.42  -172.252487    3      2      
iter:   5  11:54:49         -2.55  -172.248016    3      2      
iter:   6  11:54:50         -2.70  -172.255631    2      2      
iter:   7  11:54:50         -2.63  -172.246195    3      2      
iter:   8  11:54:51         -3.06  -172.245821    2      1      
iter:   9  11:54:51         -3.23  -172.246393    2      1      
iter:  10  11:54:52         -3.37  -172.246458    2      1      
iter:  11  11:54:52         -3.61  -172.246364    2      1      
iter:  12  11:54:53         -3.67  -172.246514    2      1      
iter:  13  11:54:53         -3.80  -172.246748    2      1      
iter:  14  11:54:54         -3.99  -172.246572    2      1      
iter:  15  11:54:54         -4.09  -172.246560    2      1      

Converged after 15 iterations.

Dipole moment: (17.301740, -0.353275, -0.114612) |e|*Ang

Energy contributions relative to reference atoms: (reference = -24663.074771)

Kinetic:       +107.510325
Potential:     -117.493652
External:        +0.000000
XC:            -165.033643
Entropy (-ST):   -0.285036
Local:           +2.912928
--------------------------
Free energy:   -172.389078
Extrapolated:  -172.246560

Fermi level: -4.54302

 Band  Eigenvalues  Occupancy
    0    -23.50066    2.00000
    1    -22.95594    2.00000
    2    -21.89325    2.00000
    3    -20.91410    2.00000
    4    -20.68963    2.00000
    5    -19.92995    2.00000
    6    -19.80270    2.00000
    7    -19.08190    2.00000
    8    -18.55168    2.00000
    9    -18.32266    2.00000
   10    -17.81657    2.00000
   11    -17.21505    2.00000
   12    -17.04386    2.00000
   13    -15.92375    2.00000
   14    -15.55172    2.00000
   15    -15.47770    2.00000
   16    -14.33316    2.00000
   17    -13.82614    2.00000
   18    -13.39323    2.00000
   19    -12.98831    2.00000
   20    -11.95872    2.00000
   21    -11.74085    2.00000
   22    -11.02192    2.00000
   23    -10.82818    2.00000
   24    -10.62009    2.00000
   25    -10.29683    2.00000
   26    -10.24522    2.00000
   27     -9.68246    2.00000
   28     -9.58909    2.00000
   29     -9.58783    2.00000
   30     -9.49206    2.00000
   31     -9.21121    2.00000
   32     -8.09619    2.00000
   33     -8.08798    2.00000
   34     -8.08564    2.00000
   35     -7.54576    2.00000
   36     -7.42333    2.00000
   37     -6.92540    2.00000
   38     -6.36614    2.00000
   39     -6.35517    2.00000
   40     -6.30808    2.00000
   41     -6.26046    2.00000
   42     -6.20679    2.00000
   43     -6.06876    2.00000
   44     -5.80169    1.99999
   45     -5.54688    1.99991
   46     -5.37184    1.99950
   47     -4.63517    1.43072
   48     -4.41608    0.43871
   49     -4.20418    0.06532
   50     -4.19502    0.05977
   51     -3.96301    0.00604
   52     -3.40549    0.00002
   53     -3.27793    0.00001
   54     -2.90467    0.00000
   55     -2.63993    0.00000
   56     -2.05720    0.00000
   57     -1.26034    0.00000
   58     -1.20347    0.00000
   59     -1.08186    0.00000
   60     -0.89201    0.00000
   61      0.26670    0.00000
   62      1.03557    0.00000
   63      1.70007    0.00000
   64      1.82989    0.00000
   65      2.49139    0.00000
   66      2.83761    0.00000
   67      2.95959    0.00000
   68      3.29299    0.00000
   69      3.87214    0.00000
   70      4.07139    0.00000
   71      4.60782    0.00000
   72      4.67630    0.00000
   73      5.42052    0.00000
   74      5.70555    0.00000
   75      5.97769    0.00000
   76      6.11152    0.00000
   77      6.28875    0.00000
   78      6.53271    0.00000
   79      7.44644    0.00000
   80      7.47719    0.00000
   81      7.66121    0.00000
   82      7.90905    0.00000
   83      8.10140    0.00000
   84      8.47010    0.00000
   85      8.65430    0.00000
   86      8.79238    0.00000
   87      8.86256    0.00000
   88      8.99422    0.00000
   89      9.12572    0.00000
   90      9.19334    0.00000
   91      9.27552    0.00000
   92      9.34420    0.00000
   93      9.43062    0.00000
   94      9.61105    0.00000
   95      9.71687    0.00000
   96      9.83591    0.00000
   97      9.88192    0.00000


Forces in eV/Ang:
  0 C    -0.29470   -0.14026   -0.03685
  1 C    -0.00956    0.04308    0.06178
  2 C    -0.03518    0.04098    0.06520
  3 C     0.94668   -0.11234   -1.35747
  4 C    -0.21309    0.14525    0.05705
  5 C    -0.06660    0.03426    0.01012
  6 C     0.42817   -0.23310   -0.07182
  7 C     0.23248   -0.02024    0.00947
  8 C    -1.20058    0.22102    0.13778
  9 C     0.31553    0.22278    0.05098
 10 C    -0.39614   -0.80211   -0.35419
 11 C    -0.44135   -0.20405   -0.15438
 12 C     0.00159   -0.23069    0.08569
 13 C    -0.45532   -0.14789   -0.09144
 14 C    -0.05945   -0.05749   -0.04675
 15 C    -0.41482   -1.00298    1.23880
 16 C     0.08504   -0.18165   -0.81357
 17 C     0.10247    0.35836    0.71279
 18 C     0.72524    0.46771   -0.18937
 19 C     0.00995    0.26400    0.09988
 20 C     0.61598    0.08702    0.08172
 21 C     0.27714    0.58649    0.23789
 22 C    -0.25188    0.08745   -0.02565
 23 C     0.13368    0.60050    0.30930

System changes: positions 

Initializing position-dependent things.

Density initialized from wave functions
           .--------------------------------------.  
          /|                                      |  
[...]
    3    -21.06328    2.00000
    4    -20.82648    2.00000
    5    -20.61420    2.00000
    6    -19.88446    2.00000
    7    -19.15265    2.00000
    8    -18.87173    2.00000
    9    -18.48768    2.00000
   10    -18.07019    2.00000
   11    -17.38718    2.00000
   12    -17.20204    2.00000
   13    -16.28205    2.00000
   14    -15.84119    2.00000
   15    -15.34722    2.00000
   16    -14.92693    2.00000
   17    -14.30875    2.00000
   18    -13.70993    2.00000
   19    -13.23404    2.00000
   20    -12.31908    2.00000
   21    -11.99395    2.00000
   22    -11.55347    2.00000
   23    -11.11031    2.00000
   24    -11.01136    2.00000
   25    -10.53240    2.00000
   26    -10.23942    2.00000
   27    -10.16366    2.00000
   28     -9.99211    2.00000
   29     -9.64965    2.00000
   30     -9.56556    2.00000
   31     -9.48457    2.00000
   32     -9.28320    2.00000
   33     -8.70873    2.00000
   34     -8.30810    2.00000
   35     -8.21241    2.00000
   36     -7.67418    2.00000
   37     -7.00989    2.00000
   38     -6.92321    2.00000
   39     -6.61525    2.00000
   40     -6.48760    2.00000
   41     -6.44157    2.00000
   42     -6.09726    2.00000
   43     -6.00983    2.00000
   44     -5.90589    1.99999
   45     -5.57362    1.99979
   46     -5.16803    1.98774
   47     -4.85670    1.75634
   48     -4.45735    0.23460
   49     -4.19907    0.01988
   50     -3.94734    0.00162
   51     -3.56469    0.00004
   52     -3.16747    0.00000
   53     -2.74165    0.00000
   54     -2.27853    0.00000
   55     -2.00866    0.00000
   56     -1.52154    0.00000
   57     -1.47974    0.00000
   58     -1.04348    0.00000
   59      0.16944    0.00000
   60      0.48277    0.00000
   61      1.25257    0.00000
   62      1.32746    0.00000
   63      1.49118    0.00000
   64      1.98873    0.00000
   65      2.55737    0.00000
   66      2.96575    0.00000
   67      3.30009    0.00000
   68      3.52727    0.00000
   69      4.09111    0.00000
   70      4.27380    0.00000
   71      4.72825    0.00000
   72      4.79316    0.00000
   73      5.09822    0.00000
   74      5.50974    0.00000
   75      5.83544    0.00000
   76      6.01831    0.00000
   77      6.25187    0.00000
   78      6.83215    0.00000
   79      7.04888    0.00000
   80      7.20939    0.00000
   81      7.76293    0.00000
   82      7.88371    0.00000
   83      8.17764    0.00000
   84      8.36562    0.00000
   85      8.51973    0.00000
   86      8.75392    0.00000
   87      8.88258    0.00000
   88      9.02469    0.00000
   89      9.07639    0.00000
   90      9.20855    0.00000
   91      9.39439    0.00000
   92      9.42572    0.00000
   93      9.52112    0.00000
   94      9.62355    0.00000
   95      9.69657    0.00000
   96      9.76786    0.00000
   97      9.85632    0.00000


Forces in eV/Ang:
  0 C    -0.00627   -0.03152    0.02294
  1 C     0.03131    0.00664   -0.00789
  2 C    -0.00562   -0.04602    0.01106
  3 C    -0.02404   -0.05359    0.00697
  4 C    -0.11979   -0.03890    0.01333
  5 C    -0.00417    0.00981    0.03978
  6 C     0.00958   -0.02989    0.01146
  7 C     0.09767    0.05278   -0.03418
  8 C     0.00966   -0.01055   -0.04904
  9 C     0.07033    0.08310   -0.05905
 10 C    -0.05941   -0.06746   -0.04674
 11 C    -0.01079   -0.01898    0.01817
 12 C    -0.00147   -0.03452    0.05945
 13 C     0.00993    0.06086    0.02650
 14 C     0.00810   -0.01355   -0.02223
 15 C    -0.06291   -0.04089    0.00666
 16 C     0.01508    0.08834    0.00724
 17 C     0.07043   -0.02487   -0.02864
 18 C     0.05365   -0.02981    0.03644
 19 C     0.01829    0.06129    0.03858
 20 C     0.02792   -0.04570   -0.06537
 21 C     0.02206    0.05728   -0.00850
 22 C    -0.04886   -0.01929    0.00834
 23 C     0.06816   -0.00733   -0.01415

System changes: positions 

Initializing position-dependent things.

Density initialized from wave functions
           .--------------------------------------.  
          /|                                      |  
         / |                                      |  
        /  |                                      |  
       /   |                                      |  
      /    |                                      |  
     /     |                                      |  
    /      |                                      |  
   /       |         C   C C                      |  
  /        |                                      |  
 *      C  C         C   C        C  C  C  C      |  
 |         |        C      C   C                  |  
 |         .----C-----C---C-----------------------.  
 |        /    C            C                    /   
 |       /    C  C   C    C                     /    
 |      /              C                       /     
 |     /                                      /      
 |    /                                      /       
 |   /                                      /        
 |  /                                      /         
 | /                                      /          
 |/                                      /           
 *--------------------------------------*            

Positions:
   0 C     12.436721    9.019309    5.055488
   1 C     10.031120    8.108601    5.295681
   2 C     11.191563    8.613295    5.159164
   3 C      4.391335    3.109354    4.831936
   4 C      0.278526    9.631818    5.092202
   5 C     13.687867    9.331384    4.986933
   6 C     14.972893    9.516899    5.020074
   7 C      1.582412    9.556426    5.291157
   8 C      9.122433    4.070264    4.534915
   9 C      9.639394    5.263119    4.753406
  10 C      8.086168    3.259971    4.458699
  11 C      8.538206    6.122131    5.099079
  12 C      6.994848    4.121525    4.804076
  13 C      8.772441    7.552698    5.398773
  14 C      7.197675    5.554997    5.149007
  15 C      4.458330    4.477166    5.261177
  16 C      4.819651    5.676696    5.596058
  17 C      5.656747    3.629109    4.835090
  18 C      6.038155    6.357288    5.567302
  19 C      6.101824    8.752622    6.878893
  20 C      6.322050    7.726044    5.881185
  21 C      7.845819   10.795768    6.070691
  22 C      7.249641    9.626666    6.301568
  23 C      7.601820    8.313959    5.691908

Unit cell:
           periodic     x           y           z      points  spacing
  1. axis:    yes   16.000000    0.000000    0.000000    80     0.2000
  2. axis:    yes    0.000000   16.000000    0.000000    80     0.2000
  3. axis:    yes    0.000000    0.000000   10.000000    48     0.2083

Effective grid spacing dv^(1/3) = 0.2027

                     log10-error:    total        iterations:
           time      wfs    density  energy       fermi  poisson
iter:   1  12:12:10          +inf  -178.112421    2      5      
iter:   2  12:12:10         -2.43  -178.092607    2      1      
iter:   3  12:12:11         -2.67  -178.078272    2      1      
iter:   4  12:12:11         -2.93  -178.087841    2      1      
iter:   5  12:12:12         -2.86  -178.080663    2      1      
iter:   6  12:12:12         -3.19  -178.075765    2      1      
iter:   7  12:12:13         -2.93  -178.090241    2      1      
iter:   8  12:12:13         -2.83  -178.075770    2      1      
iter:   9  12:12:14         -3.22  -178.077569    2      1      
iter:  10  12:12:14         -3.63  -178.082809    2      1      
iter:  11  12:12:15         -3.23  -178.080506    2      1      
iter:  12  12:12:15         -3.51  -178.077688    2      1      
iter:  13  12:12:16         -3.87  -178.078031    2      1      
iter:  14  12:12:17         -4.05  -178.078906    2      1      

Converged after 14 iterations.

Dipole moment: (-13.887145, -0.322468, -0.124735) |e|*Ang

Energy contributions relative to reference atoms: (reference = -24663.074771)

Kinetic:       +109.896439
Potential:     -120.443138
External:        +0.000000
XC:            -170.387968
Entropy (-ST):   -0.161286
Local:           +2.936405
--------------------------
Free energy:   -178.159549
Extrapolated:  -178.078906

Fermi level: -4.66433

 Band  Eigenvalues  Occupancy
    0    -23.95625    2.00000
    1    -23.27638    2.00000
    2    -22.04691    2.00000
    3    -21.06203    2.00000
    4    -20.82341    2.00000
    5    -20.61242    2.00000
    6    -19.88321    2.00000
    7    -19.15085    2.00000
    8    -18.86464    2.00000
    9    -18.48241    2.00000
   10    -18.06896    2.00000
   11    -17.38323    2.00000
   12    -17.20023    2.00000
   13    -16.27931    2.00000
   14    -15.84140    2.00000
   15    -15.34036    2.00000
   16    -14.93197    2.00000
   17    -14.30892    2.00000
   18    -13.70705    2.00000
   19    -13.22893    2.00000
   20    -12.30908    2.00000
   21    -11.99893    2.00000
   22    -11.55091    2.00000
   23    -11.10454    2.00000
   24    -11.01265    2.00000
   25    -10.52850    2.00000
   26    -10.23836    2.00000
   27    -10.16530    2.00000
   28     -9.98610    2.00000
   29     -9.64656    2.00000
   30     -9.56215    2.00000
   31     -9.47719    2.00000
   32     -9.27848    2.00000
   33     -8.70615    2.00000
   34     -8.30767    2.00000
   35     -8.21218    2.00000
   36     -7.66998    2.00000
   37     -7.00474    2.00000
   38     -6.92018    2.00000
   39     -6.61086    2.00000
   40     -6.48400    2.00000
   41     -6.43990    2.00000
   42     -6.10875    2.00000
   43     -6.01838    2.00000
   44     -5.90673    1.99999
   45     -5.57585    1.99978
   46     -5.17013    1.98736
   47     -4.86810    1.76940
   48     -4.45681    0.22306
   49     -4.19891    0.01886
   50     -3.94591    0.00152
   51     -3.56391    0.00003
   52     -3.16700    0.00000
   53     -2.74349    0.00000
   54     -2.27110    0.00000
   55     -2.00201    0.00000
   56     -1.52489    0.00000
   57     -1.48972    0.00000
   58     -1.05509    0.00000
   59      0.16495    0.00000
   60      0.47911    0.00000
   61      1.25142    0.00000
   62      1.31058    0.00000
   63      1.48790    0.00000
   64      1.97861    0.00000
   65      2.55371    0.00000
   66      2.96283    0.00000
   67      3.29852    0.00000
   68      3.52947    0.00000
   69      4.08164    0.00000
   70      4.25142    0.00000
   71      4.72624    0.00000
   72      4.79764    0.00000
   73      5.09958    0.00000
   74      5.49410    0.00000
   75      5.81959    0.00000
   76      6.00268    0.00000
   77      6.22984    0.00000
   78      6.80098    0.00000
   79      7.03210    0.00000
   80      7.18137    0.00000
   81      7.75263    0.00000
   82      7.87159    0.00000
   83      8.16544    0.00000
   84      8.35779    0.00000
   85      8.52422    0.00000
   86      8.75402    0.00000
   87      8.87744    0.00000
   88      9.02451    0.00000
   89      9.07579    0.00000
   90      9.20718    0.00000
   91      9.39481    0.00000
   92      9.42242    0.00000
   93      9.51016    0.00000
   94      9.60883    0.00000
   95      9.69902    0.00000
   96      9.76377    0.00000
   97      9.84979    0.00000


Forces in eV/Ang:
  0 C     0.05755   -0.00641    0.03309
  1 C    -0.04010   -0.03615    0.01311
  2 C     0.04108   -0.00161   -0.00741
  3 C    -0.00686   -0.01517    0.01728
  4 C     0.05082   -0.02515    0.03456
  5 C    -0.06724   -0.01449    0.03723
  6 C     0.01274   -0.03324    0.02126
  7 C    -0.05482    0.03812   -0.05325
  8 C     0.04218    0.01074   -0.05021
  9 C    -0.09519   -0.03565   -0.03050
 10 C     0.00119    0.10498    0.00197
 11 C    -0.02158   -0.00161   -0.00678
 12 C    -0.00260   -0.00981    0.01722
 13 C     0.03664    0.03051   -0.00279
 14 C     0.00456   -0.01396   -0.03064
 15 C    -0.01409    0.01363    0.01999
 16 C    -0.00414    0.03969    0.00881
 17 C     0.05181   -0.00695   -0.00499
 18 C     0.01465   -0.01494   -0.00251
 19 C     0.01341    0.01173   -0.08197
 20 C    -0.00353   -0.00787    0.00108
 21 C    -0.02201    0.01080    0.02023
 22 C    -0.00339   -0.02648    0.00413
 23 C     0.05167    0.01891   -0.00779

System changes: positions 

Initializing position-dependent things.

Density initialized from wave functions
           .--------------------------------------.  
          /|                                      |  
         / |                                      |  
        /  |                                      |  
       /   |                                      |  
      /    |                                      |  
     /     |                                      |  
    /      |                                      |  
   /       |         C   C C                      |  
  /        |                                      |  
 *      C  C         C   C        C  C  C  C      |  
 |         |        C      C   C                  |  
 |         .----C-----C---C-----------------------.  
 |        /    C            C                    /   
 |       /    C  C   C    C                     /    
 |      /              C                       /     
 |     /                                      /      
 |    /                                      /       
 |   /                                      /        
 |  /                                      /         
 | /                                      /          
 |/                                      /           
 *--------------------------------------*            

Positions:
   0 C     12.437563    9.019114    5.057011
   1 C     10.032416    8.107376    5.295897
   2 C     11.193039    8.611858    5.160134
   3 C      4.392139    3.108908    4.837853
   4 C      0.278249    9.632969    5.093271
   5 C     13.688112    9.330949    4.990955
   6 C     14.972657    9.517905    5.023933
   7 C      1.582486    9.557112    5.287128
   8 C      9.123149    4.068424    4.534626
   9 C      9.638516    5.261146    4.752149
  10 C      8.085563    3.260012    4.456515
  11 C      8.538693    6.121890    5.096275
  12 C      6.995132    4.121979    4.801057
  13 C      8.773787    7.552025    5.396778
  14 C      7.197770    5.555748    5.144504
  15 C      4.460401    4.477125    5.265148
  16 C      4.820408    5.677022    5.598462
  17 C      5.657260    3.629399    4.834392
  18 C      6.038697    6.357604    5.565697
  19 C      6.098618    8.755252    6.872971
  20 C      6.323327    7.725716    5.879772
  21 C      7.843706   10.799068    6.077406
  22 C      7.251715    9.625839    6.298041
  23 C      7.603317    8.312772    5.691067

Unit cell:
           periodic     x           y           z      points  spacing
  1. axis:    yes   16.000000    0.000000    0.000000    80     0.2000
  2. axis:    yes    0.000000   16.000000    0.000000    80     0.2000
  3. axis:    yes    0.000000    0.000000   10.000000    48     0.2083

Effective grid spacing dv^(1/3) = 0.2027

                     log10-error:    total        iterations:
           time      wfs    density  energy       fermi  poisson
iter:   1  12:12:18          +inf  -178.073799    2      4      
iter:   2  12:12:19         -2.83  -178.077062    2      1      
iter:   3  12:12:19         -3.11  -178.078963    2      1      
iter:   4  12:12:20         -3.26  -178.074855    2      1      
iter:   5  12:12:20         -3.39  -178.080701    2      1      
iter:   6  12:12:21         -3.24  -178.080435    2      1      
iter:   7  12:12:21         -3.60  -178.077121    2      1      
iter:   8  12:12:22         -3.40  -178.079448    2      1      
iter:   9  12:12:22         -3.76  -178.079655    2      1      
iter:  10  12:12:23         -4.02  -178.078094    2      1      

Converged after 10 iterations.

Dipole moment: (-13.892943, -0.322508, -0.126128) |e|*Ang

Energy contributions relative to reference atoms: (reference = -24663.074771)

Kinetic:       +110.339131
Potential:     -120.798902
External:        +0.000000
XC:            -170.486157
Entropy (-ST):   -0.165635
Local:           +2.950652
--------------------------
Free energy:   -178.160912
Extrapolated:  -178.078094

Fermi level: -4.66249

 Band  Eigenvalues  Occupancy
    0    -23.95438    2.00000
    1    -23.27191    2.00000
    2    -22.04424    2.00000
    3    -21.06545    2.00000
    4    -20.82387    2.00000
    5    -20.61538    2.00000
    6    -19.88673    2.00000
    7    -19.15215    2.00000
    8    -18.86609    2.00000
    9    -18.48330    2.00000
   10    -18.06710    2.00000
   11    -17.38739    2.00000
   12    -17.19680    2.00000
   13    -16.27933    2.00000
   14    -15.84315    2.00000
   15    -15.34426    2.00000
   16    -14.93121    2.00000
   17    -14.31289    2.00000
   18    -13.70939    2.00000
   19    -13.22717    2.00000
   20    -12.31413    2.00000
   21    -11.99438    2.00000
   22    -11.54763    2.00000
   23    -11.10407    2.00000
   24    -11.00902    2.00000
   25    -10.52797    2.00000
   26    -10.23732    2.00000
   27    -10.15869    2.00000
   28     -9.98745    2.00000
   29     -9.65135    2.00000
   30     -9.56870    2.00000
   31     -9.48055    2.00000
   32     -9.27917    2.00000
   33     -8.70975    2.00000
   34     -8.31144    2.00000
   35     -8.21110    2.00000
   36     -7.67244    2.00000
   37     -7.00360    2.00000
   38     -6.91899    2.00000
   39     -6.61437    2.00000
   40     -6.48594    2.00000
   41     -6.43923    2.00000
   42     -6.10986    2.00000
   43     -6.01297    2.00000
   44     -5.90380    1.99999
   45     -5.57219    1.99978
   46     -5.16994    1.98757
   47     -4.86123    1.75893
   48     -4.45962    0.23244
   49     -4.20154    0.01972
   50     -3.94606    0.00155
   51     -3.56533    0.00003
   52     -3.17278    0.00000
   53     -2.73891    0.00000
   54     -2.27693    0.00000
   55     -2.00162    0.00000
   56     -1.52547    0.00000
   57     -1.48488    0.00000
   58     -1.04784    0.00000
   59      0.16487    0.00000
   60      0.48312    0.00000
   61      1.25618    0.00000
   62      1.32141    0.00000
   63      1.49250    0.00000
   64      1.98839    0.00000
   65      2.56810    0.00000
   66      2.96999    0.00000
   67      3.30220    0.00000
   68      3.53119    0.00000
   69      4.08752    0.00000
   70      4.26735    0.00000
   71      4.73557    0.00000
   72      4.80202    0.00000
   73      5.10412    0.00000
   74      5.50637    0.00000
   75      5.82729    0.00000
   76      6.00817    0.00000
   77      6.23724    0.00000
   78      6.80855    0.00000
   79      7.03756    0.00000
   80      7.18835    0.00000
   81      7.76018    0.00000
   82      7.88101    0.00000
   83      8.17249    0.00000
   84      8.35587    0.00000
   85      8.52397    0.00000
   86      8.75622    0.00000
   87      8.87993    0.00000
   88      9.02523    0.00000
   89      9.07625    0.00000
   90      9.20832    0.00000
   91      9.39098    0.00000
   92      9.42268    0.00000
   93      9.51270    0.00000
   94      9.61051    0.00000
   95      9.69377    0.00000
   96      9.76568    0.00000
   97      9.85049    0.00000


Forces in eV/Ang:
  0 C     0.02569   -0.02075    0.03920
  1 C    -0.02224   -0.02665    0.00411
  2 C     0.02180   -0.00622   -0.00253
  3 C    -0.00561   -0.01556    0.01589
  4 C     0.04463   -0.01803    0.03487
  5 C    -0.02971    0.00023    0.03686
  6 C     0.02078   -0.03402    0.00639
  7 C    -0.03691    0.03392   -0.05362
  8 C     0.02525   -0.00910   -0.06049
  9 C     0.01750    0.04173   -0.01590
 10 C    -0.00726   -0.02246   -0.02323
 11 C    -0.01830   -0.01095   -0.01594
 12 C    -0.00983   -0.00822    0.00613
 13 C     0.01685    0.02081    0.00746
 14 C     0.00772   -0.02205   -0.01078
 15 C    -0.03600   -0.01807    0.00553
 16 C     0.01041    0.05113    0.00166
 17 C     0.04431   -0.01832   -0.00214
 18 C     0.02744   -0.01405   -0.00331
 19 C     0.00935    0.01113   -0.03347
 20 C    -0.00309   -0.01175   -0.01225
 21 C    -0.01831    0.01738    0.02231
 22 C    -0.00569   -0.01051    0.00513
 23 C     0.05322    0.02474   -0.00794

