
  ___ ___ ___ _ _ _  
 |   |   |_  | | | | 
 | | | | | . | | | | 
 |__ |  _|___|_____|  1.3.0b1
 |___|_|             

User:   esb@s65n63.grendel.cscaa.dk
Date:   Wed Nov  8 14:13:01 2017
Arch:   x86_64
Pid:    72009
Python: 2.7.13
gpaw:   /home/esb/DFT/gpaw_git/gpaw
_gpaw:  /home/esb/DFT/gpaw_git/build/bin.linux-x86_64-2.7/gpaw-python
ase:    /home/esb/DFT/ase_git/ase (version 3.15.0b1)
numpy:  /comm/swstack/core/python/2.7.13/lib/python2.7/site-packages/numpy (version 1.13.3)
scipy:  /comm/swstack/core/python/2.7.13/lib/python2.7/site-packages/scipy (version 0.19.1)
units:  Angstrom and eV
cores:  16
Extra parameters: {'blacs': True}

Input parameters:
  basis: dzp
  gpts: [80 80 48]
  kpts: [1 1 1]
  maxiter: 99
  mixer: {backend: pulay,
          beta: 0.05,
          method: separate,
          nmaxold: 5,
          weight: 75}
  mode: lcao
  nbands: -50
  occupations: {name: fermi-dirac,
                width: 0.1}
  poissonsolver: {eps: 1e-07,
                  name: fd,
                  nn: 3,
                  relax: GS}
  xc: PBE

System changes: positions, numbers, cell, pbc, initial_charges, initial_magmoms 

Initialize ...

C-setup:
  name: Carbon
  id: 4aa54d4b901d75f77cc0ea3eec22967b
  Z: 6
  valence: 4
  core: 2
  charge: 0.0
  file: /home/esb/DFT/gpaw-setups-0.8.7929/C.PBE.gz
  cutoffs: 0.64(comp), 1.14(filt), 1.14(core), lmax=2
  valence states:
                energy  radius
    2s(2.00)   -13.751   0.635
    2p(2.00)    -5.284   0.635
    *s          13.461   0.635
    *p          21.927   0.635
    *d           0.000   0.635

  LCAO basis set for C:
    Name: dzp
    File: /home/esb/DFT/gpaw-setups-0.8.7929/C.dzp.basis.gz
    Number of radial functions: 5
    Number of spherical harmonics: 13
      l=0, rc=5.5469 Bohr: 2s-sz confined orbital
      l=1, rc=6.6719 Bohr: 2p-sz confined orbital
      l=0, rc=3.0312 Bohr: 2s-dz split-valence wave
      l=1, rc=3.7500 Bohr: 2p-dz split-valence wave
      l=2, rc=6.6719 Bohr: d-type Gaussian polarization

Reference energy: -24663.074771

Spin-paired calculation

Occupation numbers:
  Fermi-Dirac: width=0.1000 eV

Convergence criteria:
  Maximum total energy change: 0.0005 eV / electron
  Maximum integral of absolute density change: 0.0001 electrons
  Maximum integral of absolute eigenstate change: 4e-08 eV^2
  Maximum number of iterations: 99

Symmetries present (total): 1

  ( 1  0  0)
  ( 0  1  0)
  ( 0  0  1)

1 k-point (Gamma)
1 k-point in the irreducible part of the Brillouin zone
       k-points in crystal coordinates                weights
   0:     0.00000000    0.00000000    0.00000000          1/1

Wave functions: LCAO
  Diagonalizer: Serial LAPACK
  Atomic Correction: dense with blas
  Datatype: float
  Eigensolver: None 

LCAO using direct dense diagonalizer 

Densities:
  Coarse grid: 80*80*48 grid
  Fine grid: 160*160*96 grid
  Total Charge: 0.000000 

Density mixing:
  Method: separate
  Backend: pulay
  Linear mixing parameter: 0.05
  Mixing with 5 old densities
  Damping of long wave oscillations: 75 

Hamiltonian:
  XC and Coulomb potentials evaluated on a 160*160*96 grid
  Using the PBE Exchange-Correlation functional
  Interpolation: tri-quintic (5. degree polynomial)
  Poisson solver: Gauss-Seidel solver with 6 multi-grid levels
    Coarsest grid: 5 x 5 x 3 points
    Stencil: 6*3+1=19 point O(h^6) finite-difference Laplacian
    Max iterations: 1000
    Tolerance: 1.000000e-07 

Memory estimate:
  Process memory now: 77.59 MiB
  Calculator: 15.59 MiB
    Density: 6.13 MiB
      Arrays: 3.81 MiB
      Localized functions: 0.86 MiB
      Mixer: 1.46 MiB
    Hamiltonian: 5.40 MiB
      Arrays: 2.49 MiB
      XC: 0.00 MiB
      Poisson: 2.85 MiB
      vbar: 0.07 MiB
    Wavefunctions: 4.05 MiB
      C [qnM]: 0.23 MiB
      S, T [2 x qmm]: 1.49 MiB
      P [aqMi]: 0.01 MiB
      TCI: 0.00 MiB
      BasisFunctions: 2.33 MiB
      Eigensolver: 0.00 MiB

Total number of cores used: 16
Domain decomposition: 2 x 4 x 2

Number of atoms: 24
Number of atomic orbitals: 312
Number of bands in calculation: 98
Bands to converge: occupied states only
Number of valence electrons: 96

... initialized

Initializing position-dependent things.

Density initialized from atomic densities
           .--------------------------------------.  
          /|                                      |  
         / |                                      |  
        /  |                                      |  
       /   |                                      |  
      /    |                                      |  
     /     |                                      |  
    /      |                                      |  
   /       |                                      |  
  /        |             C C     C                |  
 *         |        C  C         C                |  
 |         | C   C    C        C                  |  
 |         .--C-C---C-----CC--C----C--------------.  
 |        /         C            C               /   
 |       /       C    C C    C                  /    
 |      /                                      /     
 |     /                                      /      
 |    /                                      /       
 |   /                                      /        
 |  /                                      /         
 | /                                      /          
 |/                                      /           
 *--------------------------------------*            

Positions:
   0 C      4.957074   10.735038    4.448998
   1 C      5.775716    3.660885    4.870523
   2 C      3.232842    8.419182    4.341114
   3 C      8.001307   10.921092    5.052093
   4 C      6.817625   11.354088    4.558086
   5 C     11.655694    6.078421    4.700011
   6 C      9.889496    8.736725    4.497498
   7 C      6.077536    7.174304    4.325622
   8 C      8.662530    3.153978    5.265677
   9 C      6.963649    6.950972    5.737504
  10 C     10.248612    6.632931    4.792788
  11 C      4.588945    6.787994    4.954982
  12 C      8.994353    6.003097    5.168682
  13 C      6.812587    8.955051    5.247360
  14 C      7.550194    4.388850    4.733740
  15 C      4.061782    9.242409    4.328906
  16 C      4.768908    5.575734    5.227847
  17 C      9.179973    4.802947    5.692455
  18 C     11.136129    8.180440    5.366009
  19 C     10.425700   10.879250    5.185961
  20 C      3.382252    6.599764    5.353777
  21 C     11.913064    7.687019    4.490337
  22 C      6.455303    5.661617    4.363444
  23 C     10.393285    4.635914    4.616817

Unit cell:
           periodic     x           y           z      points  spacing
  1. axis:    yes   16.000000    0.000000    0.000000    80     0.2000
  2. axis:    yes    0.000000   16.000000    0.000000    80     0.2000
  3. axis:    yes    0.000000    0.000000   10.000000    48     0.2083

Effective grid spacing dv^(1/3) = 0.2027

                     log10-error:    total        iterations:
           time      wfs    density  energy       fermi  poisson
iter:   1  14:13:03          +inf  -135.290378    2      6      
iter:   2  14:13:04         -0.87  -132.293800    3      3      
iter:   3  14:13:04         -0.93  -130.492381    33     3      
iter:   4  14:13:05         -0.98  -129.729254    3      2      
iter:   5  14:13:05         -1.02  -129.055514    3      3      
iter:   6  14:13:06         -1.12  -129.367631    3      3      
iter:   7  14:13:06         -1.15  -128.654269    2      3      
iter:   8  14:13:07         -1.27  -128.279193    4      3      
iter:   9  14:13:07         -1.55  -128.171149    3      3      
iter:  10  14:13:08         -1.79  -128.155410    3      3      
iter:  11  14:13:08         -1.95  -128.145097    2      2      
iter:  12  14:13:09         -2.03  -128.135752    3      2      
iter:  13  14:13:09         -2.16  -128.129352    3      2      
iter:  14  14:13:10         -2.33  -128.127961    3      2      
iter:  15  14:13:10         -2.47  -128.126500    2      2      
iter:  16  14:13:11         -2.72  -128.125583    2      2      
iter:  17  14:13:11         -2.85  -128.128953    2      1      
iter:  18  14:13:12         -2.95  -128.126720    2      1      
iter:  19  14:13:12         -3.01  -128.127927    2      1      
iter:  20  14:13:13         -3.17  -128.126781    2      1      
iter:  21  14:13:13         -3.27  -128.125392    2      1      
iter:  22  14:13:14         -3.41  -128.124109    2      1      
iter:  23  14:13:14         -3.56  -128.122514    2      1      
iter:  24  14:13:15         -3.72  -128.124332    2      1      
iter:  25  14:13:15         -3.88  -128.123749    2      1      
iter:  26  14:13:16         -4.02  -128.124204    2      1      

Converged after 26 iterations.

Dipole moment: (0.696537, -0.219551, -0.000045) |e|*Ang

Energy contributions relative to reference atoms: (reference = -24663.074771)

Kinetic:        +41.182320
Potential:      -56.036613
External:        +0.000000
XC:            -115.507060
Entropy (-ST):   -0.470983
Local:           +2.472641
--------------------------
Free energy:   -128.359696
Extrapolated:  -128.124204

Fermi level: -4.80641

 Band  Eigenvalues  Occupancy
    0    -23.94989    2.00000
    1    -23.33439    2.00000
    2    -22.16986    2.00000
    3    -20.66238    2.00000
    4    -18.88454    2.00000
    5    -18.86767    2.00000
    6    -17.99672    2.00000
    7    -17.65129    2.00000
    8    -16.91816    2.00000
    9    -15.89100    2.00000
   10    -15.64310    2.00000
   11    -15.09338    2.00000
   12    -14.70214    2.00000
   13    -14.15399    2.00000
   14    -13.90722    2.00000
   15    -13.37206    2.00000
   16    -13.08100    2.00000
   17    -12.41128    2.00000
   18    -12.00083    2.00000
   19    -11.14285    2.00000
   20    -11.00406    2.00000
   21    -10.78102    2.00000
   22    -10.44103    2.00000
   23    -10.23387    2.00000
   24    -10.02725    2.00000
   25     -9.52070    2.00000
   26     -9.26853    2.00000
   27     -9.13655    2.00000
   28     -8.55086    2.00000
   29     -8.36378    2.00000
   30     -8.17897    2.00000
   31     -7.85051    2.00000
   32     -7.62427    2.00000
   33     -7.40423    2.00000
   34     -7.30656    2.00000
   35     -7.17899    2.00000
   36     -6.99243    2.00000
   37     -6.70621    2.00000
   38     -6.56135    2.00000
   39     -6.44430    2.00000
   40     -6.32967    2.00000
   41     -6.22116    2.00000
   42     -5.98444    1.99998
   43     -5.63397    1.99949
   44     -5.44267    1.99656
   45     -5.35523    1.99176
   46     -5.06186    1.85576
   47     -4.79539    0.94495
   48     -4.77000    0.81997
   49     -4.60134    0.22796
   50     -4.54341    0.13447
   51     -4.35884    0.02251
   52     -4.23289    0.00644
   53     -3.78929    0.00008
   54     -3.78107    0.00007
   55     -3.53818    0.00001
   56     -3.43085    0.00000
   57     -3.36396    0.00000
   58     -3.20931    0.00000
   59     -3.03938    0.00000
   60     -2.86027    0.00000
   61     -2.68305    0.00000
   62     -2.43995    0.00000
   63     -2.01947    0.00000
   64     -1.84339    0.00000
   65     -1.78163    0.00000
   66     -1.42482    0.00000
   67     -1.10021    0.00000
   68     -1.02793    0.00000
   69     -0.45169    0.00000
   70      0.00261    0.00000
   71      0.13703    0.00000
   72      0.19129    0.00000
   73      0.43175    0.00000
   74      0.95857    0.00000
   75      1.19920    0.00000
   76      1.29379    0.00000
   77      1.38782    0.00000
   78      1.67868    0.00000
   79      2.73951    0.00000
   80      2.86169    0.00000
   81      3.35997    0.00000
   82      3.52595    0.00000
   83      4.03195    0.00000
   84      4.46044    0.00000
   85      4.56910    0.00000
   86      5.05433    0.00000
   87      5.76373    0.00000
   88      7.15189    0.00000
   89      7.72709    0.00000
   90      7.76114    0.00000
   91      8.04444    0.00000
   92      8.75636    0.00000
   93      8.87712    0.00000
   94      9.02966    0.00000
   95      9.12211    0.00000
   96      9.20343    0.00000
   97      9.32944    0.00000


Forces in eV/Ang:
  0 C    -0.41545   -2.78258    0.50142
  1 C     1.60804    3.86043    0.06063
  2 C    -8.43123   -8.50500    0.82172
  3 C     0.02753    0.25636   -0.88616
  4 C    -0.54812   -2.94768    0.44993
  5 C    -4.78456    1.51753    0.03726
  6 C     2.62457    0.44045    2.88222
  7 C     0.70892   -0.59091    2.72655
  8 C    -2.23550    5.25563   -0.92900
  9 C     0.57716    1.38602   -2.41464
 10 C     0.88109   -0.70508    0.37682
 11 C     7.90272    7.92631   -3.70113
 12 C    -0.01533    6.10614   -0.08935
 13 C    -0.35319   -2.04693   -0.53857
 14 C    -4.24663   -1.69952   -0.12381
 15 C    10.94239   12.46153   -0.14768
 16 C     1.97650  -11.31167    1.52992
 17 C     2.25570   -6.16164   -1.25415
 18 C    -6.08966    4.13023    1.29488
 19 C    -3.16948   -2.03103   -0.88693
 20 C    -6.20439    1.47976    0.53790
 21 C     5.35980   -3.11768   -3.32723
 22 C     2.24730   -2.73197    1.72515
 23 C    -0.59070   -0.23397    1.42605

System changes: positions 

Initializing position-dependent things.

Density initialized from wave functions
           .--------------------------------------.  
          /|                                      |  
         / |                                      |  
        /  |                                      |  
       /   |                                      |  
      /    |                                      |  
     /     |                                      |  
    /      |                                      |  
   /       |                                      |  
  /        |             C C     C                |  
 *         |        C  C         C                |  
 |         | C   C    C        C                  |  
 |         .--C-C---C-----CC--C----C--------------.  
 |        /         C            C               /   
 |       /       C    C C    C                  /    
 |      /                                      /     
 |     /                                      /      
 |    /                                      /       
 |   /                                      /        
 |  /                                      /         
 | /                                      /          
 |/                                      /           
 *--------------------------------------*            

Positions:
   0 C      4.956072   10.728327    4.450207
   1 C      5.779595    3.670196    4.870670
   2 C      3.212507    8.398668    4.343096
   3 C      8.001373   10.921710    5.049956
   4 C      6.816303   11.346979    4.559171
   5 C     11.644154    6.082081    4.700101
   6 C      9.895827    8.737787    4.504450
   7 C      6.079245    7.172879    4.332198
   8 C      8.657138    3.166654    5.263436
   9 C      6.965041    6.954315    5.731680
  10 C     10.250737    6.631231    4.793696
  11 C      4.608005    6.807111    4.946056
  12 C      8.994316    6.017824    5.168467
  13 C      6.811735    8.950114    5.246061
  14 C      7.539952    4.384750    4.733441
  15 C      4.088174    9.272465    4.328550
  16 C      4.773675    5.548452    5.231537
  17 C      9.185414    4.788086    5.689430
  18 C     11.121441    8.190401    5.369132
  19 C     10.418056   10.874351    5.183822
  20 C      3.367288    6.603333    5.355074
  21 C     11.925991    7.679500    4.482313
  22 C      6.460723    5.655028    4.367605
  23 C     10.391860    4.635349    4.620257

Unit cell:
           periodic     x           y           z      points  spacing
  1. axis:    yes   16.000000    0.000000    0.000000    80     0.2000
  2. axis:    yes    0.000000   16.000000    0.000000    80     0.2000
  3. axis:    yes    0.000000    0.000000   10.000000    48     0.2083

Effective grid spacing dv^(1/3) = 0.2027

                     log10-error:    total        iterations:
           time      wfs    density  energy       fermi  poisson
iter:   1  14:13:17          +inf  -130.636095    4      5      
iter:   2  14:13:18         -1.70  -130.442359    3      2      
iter:   3  14:13:18         -1.90  -130.392072    3      2      
iter:   4  14:13:19         -2.06  -130.365363    3      2      
iter:   5  14:13:19         -2.19  -130.359875    3      2      
iter:   6  14:13:20         -2.30  -130.355317    3      2      
iter:   7  14:13:20         -2.47  -130.353564    3      2      
iter:   8  14:13:21         -2.68  -130.352287    3      2      
iter:   9  14:13:21         -2.86  -130.351418    2      2      
iter:  10  14:13:22         -3.01  -130.353111    2      1      
iter:  11  14:13:22         -3.18  -130.350796    2      1      
iter:  12  14:13:23         -3.28  -130.350591    2      1      
iter:  13  14:13:23         -3.44  -130.350303    2      1      
iter:  14  14:13:23         -3.63  -130.350770    2      1      
iter:  15  14:13:24         -3.76  -130.351130    2      1      
iter:  16  14:13:24         -3.86  -130.351073    2      1      
iter:  17  14:13:25         -3.93  -130.351007    2      1      
iter:  18  14:13:25         -4.02  -130.351009    2      1      

Converged after 18 iterations.

Dipole moment: (0.666064, -0.190719, -0.006400) |e|*Ang

Energy contributions relative to reference atoms: (reference = -24663.074771)

Kinetic:        +24.685721
Potential:      -44.155548
External:        +0.000000
XC:            -113.099044
Entropy (-ST):   -0.486148
Local:           +2.460935
--------------------------
Free energy:   -130.594083
Extrapolated:  -130.351009

Fermi level: -4.79306

 Band  Eigenvalues  Occupancy
    0    -23.55773    2.00000
    1    -23.28144    2.00000
    2    -22.06328    2.00000
    3    -20.56285    2.00000
    4    -18.91080    2.00000
    5    -18.70412    2.00000
    6    -17.98566    2.00000
    7    -17.71993    2.00000
    8    -17.03228    2.00000
    9    -15.84011    2.00000
   10    -15.59879    2.00000
   11    -15.23860    2.00000
   12    -14.71798    2.00000
   13    -14.16641    2.00000
   14    -13.83991    2.00000
   15    -13.39580    2.00000
   16    -13.04389    2.00000
   17    -12.39411    2.00000
   18    -12.00019    2.00000
   19    -11.13482    2.00000
   20    -11.04027    2.00000
   21    -10.86358    2.00000
   22    -10.40718    2.00000
   23    -10.22905    2.00000
   24     -9.86629    2.00000
   25     -9.48242    2.00000
   26     -9.23469    2.00000
   27     -9.14280    2.00000
   28     -8.51915    2.00000
   29     -8.36665    2.00000
   30     -8.16064    2.00000
   31     -7.85794    2.00000
   32     -7.63989    2.00000
   33     -7.43759    2.00000
   34     -7.30725    2.00000
   35     -7.13620    2.00000
   36     -6.99734    2.00000
   37     -6.72886    2.00000
   38     -6.57258    2.00000
   39     -6.42336    2.00000
   40     -6.32187    2.00000
   41     -6.20758    2.00000
   42     -6.02424    1.99999
   43     -5.66175    1.99966
   44     -5.46525    1.99759
   45     -5.27953    1.98469
   46     -5.03652    1.83886
   47     -4.77930    0.93131
   48     -4.75632    0.81835
   49     -4.58796    0.22790
   50     -4.55972    0.17680
   51     -4.33128    0.01956
   52     -4.19637    0.00511
   53     -3.80435    0.00010
   54     -3.76521    0.00007
   55     -3.53029    0.00001
   56     -3.41532    0.00000
   57     -3.35070    0.00000
   58     -3.18711    0.00000
   59     -2.94742    0.00000
   60     -2.82701    0.00000
   61     -2.64433    0.00000
   62     -2.36806    0.00000
   63     -1.99512    0.00000
   64     -1.78627    0.00000
   65     -1.73926    0.00000
   66     -1.38784    0.00000
   67     -1.08128    0.00000
   68     -0.96902    0.00000
   69     -0.40168    0.00000
   70     -0.15078    0.00000
   71      0.02263    0.00000
   72      0.21594    0.00000
   73      0.48283    0.00000
   74      0.87453    0.00000
   75      1.07091    0.00000
   76      1.28390    0.00000
   77      1.35819    0.00000
   78      1.66864    0.00000
   79      2.46873    0.00000
   80      2.87950    0.00000
   81      3.50612    0.00000
   82      3.64831    0.00000
   83      4.08272    0.00000
   84      4.33514    0.00000
   85      4.75640    0.00000
   86      5.16797    0.00000
   87      5.75837    0.00000
   88      7.04794    0.00000
   89      7.68608    0.00000
   90      7.79806    0.00000
   91      8.07386    0.00000
   92      8.79700    0.00000
   93      8.90322    0.00000
   94      8.93380    0.00000
   95      9.09206    0.00000
   96      9.18843    0.00000
   97      9.31002    0.00000


Forces in eV/Ang:
  0 C    -0.56724   -3.09567    0.47880
  1 C     1.56453    3.88481    0.05186
  2 C    -3.42598   -3.35530    0.63867
  3 C     0.05396    0.21951   -0.84692
  4 C    -0.56797   -2.85785    0.41389
  5 C    -4.59190    1.51169    0.05615
  6 C     2.66438    0.50126    2.97877
  7 C     0.80006   -0.58940    2.60982
  8 C    -2.29368    5.24300   -0.92893
  9 C     0.64902    1.35660   -2.30529
 10 C     0.81440   -0.58053    0.45664
 11 C     5.92115    4.35341   -2.21975
 12 C     0.01483    4.83237    0.37053
 13 C    -0.37736   -2.07738   -0.54682
 14 C    -4.34630   -1.67914   -0.10312
 15 C     6.06826    7.58056   -0.00992
 16 C     1.58858   -7.99468    0.73763
 17 C     2.33108   -4.92220   -1.87221
 18 C    -5.08943    3.36558   -0.09606
 19 C    -3.14954   -1.99324   -0.88419
 20 C    -3.73172    1.71802   -0.17351
 21 C     4.20598   -2.46311   -2.09502
 22 C     2.15229   -2.65788    1.78952
 23 C    -0.60084   -0.22540    1.53813

System changes: positions 

Initializing position-dependent things.

Density initialized from wave functions
           .--------------------------------------.  
          /|                                      |  
         / |                                      |  
        /  |                                      |  
       /   |                                      |  
      /    |                                      |  
     /     |                                      |  
    /      |                                      |  
   /       |                                      |  
  /        |             C C     C                |  
 *         |        C  C         C                |  
 |         | C   C    C        C                  |  
 |         .--C-CC--C-----CC--C----C--------------.  
 |        /         C            C               /   
 |       /       C    C C    C                  /    
 |      /                                      /     
 |     /                                      /      
 |    /                                      /       
 |   /                                      /        
 |  /                                      /         
 | /                                      /          
 |/                                      /           
 *--------------------------------------*            

Positions:
   0 C      4.951297   10.705216    4.453376
   1 C      5.790122    3.697093    4.870977
   2 C      3.217517    8.404991    4.346448
   3 C      8.001896   10.923011    5.044347
   4 C      6.812278   11.327808    4.561816
   5 C     11.613628    6.092459    4.700596
   6 C      9.914405    8.741587    4.525519
   7 C      6.085277    7.168828    4.349507
   8 C      8.641007    3.202694    5.257039
   9 C      6.969922    6.963491    5.716427
  10 C     10.255966    6.627944    4.797298
  11 C      4.637463    6.816675    4.939233
  12 C      8.994590    6.043828    5.173647
  13 C      6.808998    8.935631    5.242247
  14 C      7.509446    4.373302    4.732849
  15 C      4.102112    9.296781    4.329269
  16 C      4.782399    5.512345    5.232089
  17 C      9.201900    4.761267    5.673003
  18 C     11.092103    8.209212    5.360521
  19 C     10.396477   10.860838    5.177747
  20 C      3.355717    6.616527    5.349813
  21 C     11.948366    7.666276    4.474925
  22 C      6.475005    5.637145    4.380298
  23 C     10.387664    4.633846    4.631492

Unit cell:
           periodic     x           y           z      points  spacing
  1. axis:    yes   16.000000    0.000000    0.000000    80     0.2000
  2. axis:    yes    0.000000   16.000000    0.000000    80     0.2000
  3. axis:    yes    0.000000    0.000000   10.000000    48     0.2083

Effective grid spacing dv^(1/3) = 0.2027

                     log10-error:    total        iterations:
           time      wfs    density  energy       fermi  poisson
iter:   1  14:13:27          +inf  -133.323140    3      5      
iter:   2  14:13:27         -1.63  -133.106177    3      2      
iter:   3  14:13:28         -1.78  -133.019305    3      2      
iter:   4  14:13:28         -1.92  -132.981607    3      2      
iter:   5  14:13:29         -2.06  -132.971626    3      2      
iter:   6  14:13:29         -2.15  -132.960422    3      2      
iter:   7  14:13:30         -2.32  -132.957054    3      2      
iter:   8  14:13:30         -2.52  -132.956214    2      2      
iter:   9  14:13:31         -2.67  -132.955242    2      2      
iter:  10  14:13:31         -2.87  -132.952400    2      1      
iter:  11  14:13:32         -2.98  -132.955724    2      2      
iter:  12  14:13:32         -3.14  -132.955338    2      1      
iter:  13  14:13:33         -3.20  -132.954181    2      1      
iter:  14  14:13:33         -3.36  -132.954888    2      1      
iter:  15  14:13:34         -3.45  -132.955721    2      1      
iter:  16  14:13:34         -3.53  -132.957141    2      1      
iter:  17  14:13:35         -3.79  -132.956858    2      1      
iter:  18  14:13:35         -3.98  -132.956208    2      1      
iter:  19  14:13:36         -4.15  -132.956195    2      1      

Converged after 19 iterations.

Dipole moment: (0.650712, -0.118576, -0.010110) |e|*Ang

Energy contributions relative to reference atoms: (reference = -24663.074771)

Kinetic:        +17.089821
Potential:      -38.773396
External:        +0.000000
XC:            -113.490662
Entropy (-ST):   -0.486603
Local:           +2.461343
--------------------------
Free energy:   -133.199497
Extrapolated:  -132.956195

Fermi level: -4.79282

 Band  Eigenvalues  Occupancy
    0    -23.31233    2.00000
    1    -23.17883    2.00000
    2    -21.96447    2.00000
    3    -20.46779    2.00000
    4    -19.05973    2.00000
    5    -18.74341    2.00000
    6    -18.04303    2.00000
    7    -17.94085    2.00000
    8    -17.30008    2.00000
    9    -15.89295    2.00000
   10    -15.57065    2.00000
   11    -15.42044    2.00000
   12    -14.83059    2.00000
   13    -14.23635    2.00000
   14    -13.77865    2.00000
   15    -13.48650    2.00000
   16    -12.98932    2.00000
   17    -12.37094    2.00000
   18    -12.02526    2.00000
   19    -11.20267    2.00000
   20    -11.11874    2.00000
   21    -10.93463    2.00000
   22    -10.37194    2.00000
   23    -10.27774    2.00000
   24     -9.74142    2.00000
   25     -9.47136    2.00000
   26     -9.26259    2.00000
   27     -9.09639    2.00000
   28     -8.51894    2.00000
   29     -8.32318    2.00000
   30     -8.11085    2.00000
   31     -7.91384    2.00000
   32     -7.60792    2.00000
   33     -7.50611    2.00000
   34     -7.31219    2.00000
   35     -7.15113    2.00000
   36     -7.03913    2.00000
   37     -6.79303    2.00000
   38     -6.65001    2.00000
   39     -6.45487    2.00000
   40     -6.36635    2.00000
   41     -6.18345    2.00000
   42     -6.10942    2.00000
   43     -5.67310    1.99970
   44     -5.52611    1.99869
   45     -5.25948    1.98137
   46     -5.02822    1.82650
   47     -4.78478    0.95982
   48     -4.75558    0.81589
   49     -4.58182    0.21626
   50     -4.56176    0.18050
   51     -4.32184    0.01785
   52     -4.15049    0.00324
   53     -3.83459    0.00014
   54     -3.73965    0.00005
   55     -3.48913    0.00000
   56     -3.32708    0.00000
   57     -3.30372    0.00000
   58     -3.12608    0.00000
   59     -2.87020    0.00000
   60     -2.76710    0.00000
   61     -2.54171    0.00000
   62     -2.23612    0.00000
   63     -1.93839    0.00000
   64     -1.67680    0.00000
   65     -1.61797    0.00000
   66     -1.27791    0.00000
   67     -0.97521    0.00000
   68     -0.80684    0.00000
   69     -0.31799    0.00000
   70     -0.29087    0.00000
   71      0.02058    0.00000
   72      0.42974    0.00000
   73      0.62869    0.00000
   74      0.88375    0.00000
   75      0.98537    0.00000
   76      1.45768    0.00000
   77      1.50957    0.00000
   78      1.94689    0.00000
   79      2.49523    0.00000
   80      3.05790    0.00000
   81      3.68285    0.00000
   82      4.17127    0.00000
   83      4.36317    0.00000
   84      4.50668    0.00000
   85      5.28362    0.00000
   86      5.60405    0.00000
   87      5.82769    0.00000
   88      7.08025    0.00000
   89      7.64429    0.00000
   90      7.86732    0.00000
   91      8.17025    0.00000
   92      8.77161    0.00000
   93      8.82315    0.00000
   94      8.92783    0.00000
   95      9.05929    0.00000
   96      9.18763    0.00000
   97      9.28963    0.00000


Forces in eV/Ang:
  0 C    -0.58649   -3.22368    0.45723
  1 C     1.57587    3.84976   -0.03281
  2 C    -2.38211   -2.39439    0.61393
  3 C     0.19435    0.14429   -0.75372
  4 C    -0.74118   -2.78967    0.31609
  5 C    -4.07944    1.37186    0.02176
  6 C     2.60076    0.82165    3.03669
  7 C     0.96082   -0.67462    2.37529
  8 C    -2.44079    5.20960   -0.89597
  9 C     0.82959    1.38436   -2.02783
 10 C     0.41234   -0.37973    0.67189
 11 C     3.96235    1.54922   -0.92514
 12 C     0.01949    3.18229    0.85236
 13 C    -0.38795   -2.11741   -0.53143
 14 C    -4.85937   -1.63472   -0.13959
 15 C     5.15684    6.64218    0.07992
 16 C     1.47749   -5.45241    0.12013
 17 C     2.73648   -3.33535   -2.63357
 18 C    -4.00089    2.49682   -1.56295
 19 C    -3.16953   -1.94426   -0.91558
 20 C    -1.71231    2.08503   -0.79291
 21 C     2.98294   -1.87649   -0.82746
 22 C     2.03901   -2.53130    1.73642
 23 C    -0.54193   -0.30895    1.77368

System changes: positions 

Initializing position-dependent things.

Density initialized from wave functions
           .--------------------------------------.  
          /|                                      |  
         / |                                      |  
        /  |                                      |  
       /   |                                      |  
      /    |                                      |  
     /     |                                      |  
    /      |                                      |  
   /       |                                      |  
  /        |             C C     C                |  
 *         |        C  C         C                |  
 |         | C   C    C        C                  |  
 |         .--C-CC--C-----CC--C----C--------------.  
 |        /         C            C               /   
 |       /       C    C C    C                  /    
 |      /                                      /     
 |     /                                      /      
 |    /                                      /       
 |   /                                      /        
 |  /                                      /         
 | /                                      /          
 |/                                      /           
 *--------------------------------------*            

Positions:
   0 C      4.946726   10.681902    4.456414
   1 C      5.800786    3.723552    4.870651
   2 C      3.219624    8.407452    4.349995
   3 C      8.003438   10.923809    5.039393
   4 C      6.806982   11.309048    4.563776
   5 C     11.586751    6.101732    4.700783
   6 C      9.932329    8.747701    4.546732
   7 C      6.092319    7.164136    4.365193
   8 C      8.623942    3.238350    5.250921
   9 C      6.976014    6.972905    5.703133
  10 C     10.258227    6.625943    4.802364
  11 C      4.656057    6.812431    4.939162
  12 C      8.994834    6.059813    5.181507
  13 C      6.806243    8.920970    5.238586
  14 C      7.475346    4.362199    4.731935
  15 C      4.119605    9.324414    4.330376
  16 C      4.791078    5.488705    5.229620
  17 C      9.221267    4.744059    5.652141
  18 C     11.069078    8.222931    5.343703
  19 C     10.374793   10.847678    5.171452
  20 C      3.354329    6.631967    5.341364
  21 C     11.963759    7.656191    4.474627
  22 C      6.488561    5.620150    4.392389
  23 C     10.383961    4.631688    4.644244

Unit cell:
           periodic     x           y           z      points  spacing
  1. axis:    yes   16.000000    0.000000    0.000000    80     0.2000
  2. axis:    yes    0.000000   16.000000    0.000000    80     0.2000
  3. axis:    yes    0.000000    0.000000   10.000000    48     0.2083

Effective grid spacing dv^(1/3) = 0.2027

                     log10-error:    total        iterations:
           time      wfs    density  energy       fermi  poisson
iter:   1  14:13:37          +inf  -135.378753    3      5      
iter:   2  14:13:38         -1.67  -135.213503    3      2      
iter:   3  14:13:38         -1.85  -135.169167    2      2      
iter:   4  14:13:39         -1.97  -135.136315    3      2      
iter:   5  14:13:39         -2.12  -135.128894    3      2      
iter:   6  14:13:40         -2.22  -135.120840    2      2      
iter:   7  14:13:40         -2.38  -135.117938    3      2      
iter:   8  14:13:41         -2.60  -135.118210    2      2      
iter:   9  14:13:41         -2.75  -135.117296    2      2      
iter:  10  14:13:42         -2.96  -135.113438    2      1      
iter:  11  14:13:42         -3.07  -135.113330    2      1      
iter:  12  14:13:43         -3.22  -135.116768    2      1      
iter:  13  14:13:43         -3.28  -135.116152    2      1      
iter:  14  14:13:44         -3.45  -135.116418    2      1      
iter:  15  14:13:44         -3.57  -135.117724    2      1      
iter:  16  14:13:44         -3.68  -135.118582    1      1      
iter:  17  14:13:45         -3.78  -135.119816    2      1      
iter:  18  14:13:45         -3.98  -135.118401    2      1      
iter:  19  14:13:46         -4.18  -135.118958    2      1      

Converged after 19 iterations.

Dipole moment: (0.627179, -0.042459, -0.019135) |e|*Ang

Energy contributions relative to reference atoms: (reference = -24663.074771)

Kinetic:        +15.718674
Potential:      -37.960132
External:        +0.000000
XC:            -115.123968
Entropy (-ST):   -0.470827
Local:           +2.481882
--------------------------
Free energy:   -135.354371
Extrapolated:  -135.118958

Fermi level: -4.79540

 Band  Eigenvalues  Occupancy
    0    -23.36091    2.00000
    1    -23.06466    2.00000
    2    -21.95074    2.00000
    3    -20.45000    2.00000
    4    -19.20938    2.00000
    5    -18.78748    2.00000
    6    -18.25588    2.00000
    7    -18.00583    2.00000
    8    -17.50923    2.00000
    9    -16.02865    2.00000
   10    -15.63441    2.00000
   11    -15.56508    2.00000
   12    -14.94879    2.00000
   13    -14.31397    2.00000
   14    -13.78074    2.00000
   15    -13.55873    2.00000
   16    -12.94119    2.00000
   17    -12.35804    2.00000
   18    -12.06500    2.00000
   19    -11.30117    2.00000
   20    -11.15777    2.00000
   21    -11.01633    2.00000
   22    -10.39224    2.00000
   23    -10.33964    2.00000
   24     -9.69729    2.00000
   25     -9.49421    2.00000
   26     -9.32594    2.00000
   27     -9.05681    2.00000
   28     -8.54486    2.00000
   29     -8.29319    2.00000
   30     -8.07954    2.00000
   31     -7.98478    2.00000
   32     -7.57012    2.00000
   33     -7.52970    2.00000
   34     -7.35174    2.00000
   35     -7.16612    2.00000
   36     -7.03908    2.00000
   37     -6.86819    2.00000
   38     -6.73206    2.00000
   39     -6.49316    2.00000
   40     -6.39930    2.00000
   41     -6.19464    2.00000
   42     -6.15397    2.00000
   43     -5.68087    1.99971
   44     -5.58071    1.99922
   45     -5.24448    1.97782
   46     -5.02849    1.82280
   47     -4.80449    1.04540
   48     -4.75627    0.80679
   49     -4.57720    0.20276
   50     -4.52517    0.12568
   51     -4.32160    0.01736
   52     -4.11681    0.00226
   53     -3.85784    0.00017
   54     -3.69859    0.00003
   55     -3.44145    0.00000
   56     -3.24344    0.00000
   57     -3.20597    0.00000
   58     -3.06681    0.00000
   59     -2.82747    0.00000
   60     -2.73758    0.00000
   61     -2.41565    0.00000
   62     -2.11005    0.00000
   63     -1.85496    0.00000
   64     -1.60468    0.00000
   65     -1.47430    0.00000
   66     -1.12289    0.00000
   67     -0.82172    0.00000
   68     -0.61560    0.00000
   69     -0.32711    0.00000
   70     -0.20769    0.00000
   71     -0.01462    0.00000
   72      0.61406    0.00000
   73      0.76196    0.00000
   74      0.88284    0.00000
   75      0.91579    0.00000
   76      1.56298    0.00000
   77      1.87855    0.00000
   78      2.18728    0.00000
   79      2.60288    0.00000
   80      3.19650    0.00000
   81      3.84246    0.00000
   82      4.49825    0.00000
   83      4.78023    0.00000
   84      4.85401    0.00000
   85      5.58967    0.00000
   86      5.95918    0.00000
   87      6.23954    0.00000
   88      7.26132    0.00000
   89      7.68477    0.00000
   90      7.96014    0.00000
   91      8.24628    0.00000
   92      8.75631    0.00000
   93      8.82343    0.00000
   94      8.95459    0.00000
   95      9.01835    0.00000
   96      9.19843    0.00000
   97      9.26351    0.00000


Forces in eV/Ang:
  0 C    -0.49180   -3.32501    0.44219
  1 C     1.63561    3.74999   -0.15515
  2 C    -1.08537   -1.13860    0.56526
  3 C     0.20302    0.12219   -0.71323
  4 C    -0.82753   -2.73219    0.29019
  5 C    -3.52830    1.14570   -0.03298
  6 C     2.26718    1.23356    2.90118
  7 C     1.05947   -0.80077    2.14702
  8 C    -2.49564    5.15799   -0.82421
  9 C     1.01219    1.52237   -1.76939
 10 C    -0.11585   -0.21451    0.85460
 11 C     3.15679    0.56598   -0.53125
 12 C    -0.04278    2.47187    0.97814
 13 C    -0.34917   -2.22808   -0.47141
 14 C    -5.31649   -1.60449   -0.10843
 15 C     3.91754    5.29909    0.16198
 16 C     1.58060   -4.53317   -0.09153
 17 C     3.01552   -2.62094   -2.86589
 18 C    -3.34429    2.03619   -1.96024
 19 C    -3.21643   -1.92900   -0.93502
 20 C    -1.11030    2.27106   -0.96461
 21 C     2.52363   -1.71305   -0.35911
 22 C     1.91810   -2.32139    1.61508
 23 C    -0.30308   -0.37064    1.82642

System changes: positions 

Initializing position-dependent things.

Density initialized from wave functions
           .--------------------------------------.  
          /|                                      |  
         / |                                      |  
        /  |                                      |  
       /   |                                      |  
      /    |                                      |  
     /     |                                      |  
    /      |                                      |  
   /       |                                      |  
  /        |             C C     C                |  
 *         |        C  C         C                |  
 |         | C   C    C        C                  |  
 |         .--C-CC--C-----CC--C----C--------------.  
 |        /         C            C               /   
 |       /        C   C C    C                  /    
 |      /                                      /     
 |     /                                      /      
 |    /                                      /       
 |   /                                      /        
 |  /                                      /         
 | /                                      /          
 |/                                      /           
 *--------------------------------------*            

Positions:
   0 C      4.943323   10.657995    4.459396
   1 C      5.812207    3.749275    4.869220
   2 C      3.225730    8.413400    4.353400
   3 C      8.004844   10.924554    5.034607
   4 C      6.801037   11.290451    4.565687
   5 C     11.564156    6.109019    4.700439
   6 C      9.947092    8.757485    4.566557
   7 C      6.100061    7.158243    4.379238
   8 C      8.606452    3.273901    5.245422
   9 C      6.983642    6.983808    5.691759
  10 C     10.255850    6.625117    4.808898
  11 C      4.672485    6.807621    4.938984
  12 C      8.994399    6.073054    5.189333
  13 C      6.803905    8.905151    5.235486
  14 C      7.437175    4.351199    4.731345
  15 C      4.133483    9.347533    4.331984
  16 C      4.801629    5.465472    5.227067
  17 C      9.242953    4.729766    5.630745
  18 C     11.049394    8.234527    5.326898
  19 C     10.352422   10.834416    5.164939
  20 C      3.352389    6.648555    5.333057
  21 C     11.978150    7.645833    4.475388
  22 C      6.501335    5.604815    4.403351
  23 C     10.382562    4.628991    4.657151

Unit cell:
           periodic     x           y           z      points  spacing
  1. axis:    yes   16.000000    0.000000    0.000000    80     0.2000
  2. axis:    yes    0.000000   16.000000    0.000000    80     0.2000
  3. axis:    yes    0.000000    0.000000   10.000000    48     0.2083

Effective grid spacing dv^(1/3) = 0.2027

                     log10-error:    total        iterations:
           time      wfs    density  energy       fermi  poisson
iter:   1  14:13:47          +inf  -137.313664    2      5      
iter:   2  14:13:48         -1.71  -137.172945    2      2      
iter:   3  14:13:48         -1.88  -137.119096    2      2      
iter:   4  14:13:49         -2.03  -137.093457    3      2      
iter:   5  14:13:49         -2.17  -137.089053    2      2      
iter:   6  14:13:50         -2.26  -137.082042    2      2      
iter:   7  14:13:50         -2.41  -137.079202    3      2      
iter:   8  14:13:51         -2.63  -137.079817    2      2      
iter:   9  14:13:51         -2.78  -137.079093    2      2      
iter:  10  14:13:52         -2.98  -137.075113    2      1      
iter:  11  14:13:52         -3.09  -137.074143    2      1      
iter:  12  14:13:53         -3.26  -137.078769    2      1      
iter:  13  14:13:53         -3.31  -137.077915    2      1      
iter:  14  14:13:54         -3.52  -137.078119    2      1      
iter:  15  14:13:54         -3.64  -137.080620    2      1      
iter:  16  14:13:55         -3.82  -137.080240    2      1      
iter:  17  14:13:55         -3.97  -137.081085    2      1      
iter:  18  14:13:56         -4.14  -137.080395    2      1      

Converged after 18 iterations.

Dipole moment: (0.606306, 0.028359, -0.032799) |e|*Ang

Energy contributions relative to reference atoms: (reference = -24663.074771)

Kinetic:        +16.589196
Potential:      -38.843536
External:        +0.000000
XC:            -117.097932
Entropy (-ST):   -0.454224
Local:           +2.498989
--------------------------
Free energy:   -137.307507
Extrapolated:  -137.080395

Fermi level: -4.79846

 Band  Eigenvalues  Occupancy
    0    -23.40485    2.00000
    1    -22.97137    2.00000
    2    -21.93923    2.00000
    3    -20.43383    2.00000
    4    -19.36494    2.00000
    5    -18.87976    2.00000
    6    -18.50445    2.00000
    7    -18.01942    2.00000
    8    -17.68265    2.00000
    9    -16.18641    2.00000
   10    -15.79473    2.00000
   11    -15.58462    2.00000
   12    -15.06555    2.00000
   13    -14.39555    2.00000
   14    -13.80984    2.00000
   15    -13.63118    2.00000
   16    -12.88044    2.00000
   17    -12.34261    2.00000
   18    -12.11749    2.00000
   19    -11.39670    2.00000
   20    -11.18788    2.00000
   21    -11.07737    2.00000
   22    -10.45554    2.00000
   23    -10.37371    2.00000
   24     -9.66853    2.00000
   25     -9.51956    2.00000
   26     -9.38685    2.00000
   27     -9.02508    2.00000
   28     -8.57756    2.00000
   29     -8.27743    2.00000
   30     -8.08413    2.00000
   31     -8.05607    2.00000
   32     -7.63210    2.00000
   33     -7.46817    2.00000
   34     -7.41847    2.00000
   35     -7.18474    2.00000
   36     -7.00341    2.00000
   37     -6.95651    2.00000
   38     -6.77701    2.00000
   39     -6.51225    2.00000
   40     -6.42255    2.00000
   41     -6.27050    2.00000
   42     -6.14067    2.00000
   43     -5.69097    1.99973
   44     -5.64540    1.99958
   45     -5.23874    1.97581
   46     -5.03577    1.82951
   47     -4.81649    1.08994
   48     -4.76046    0.81226
   49     -4.57342    0.19064
   50     -4.48405    0.08265
   51     -4.32659    0.01770
   52     -4.10534    0.00195
   53     -3.88830    0.00022
   54     -3.64091    0.00002
   55     -3.39936    0.00000
   56     -3.18324    0.00000
   57     -3.09528    0.00000
   58     -3.00928    0.00000
   59     -2.79314    0.00000
   60     -2.72133    0.00000
   61     -2.29280    0.00000
   62     -1.99492    0.00000
   63     -1.75636    0.00000
   64     -1.53412    0.00000
   65     -1.33669    0.00000
   66     -0.95318    0.00000
   67     -0.67899    0.00000
   68     -0.43761    0.00000
   69     -0.25988    0.00000
   70     -0.13979    0.00000
   71     -0.03958    0.00000
   72      0.70702    0.00000
   73      0.76764    0.00000
   74      0.93994    0.00000
   75      1.07837    0.00000
   76      1.63928    0.00000
   77      2.30865    0.00000
   78      2.40700    0.00000
   79      2.82465    0.00000
   80      3.39360    0.00000
   81      3.98271    0.00000
   82      4.70886    0.00000
   83      5.19740    0.00000
   84      5.25930    0.00000
   85      5.71853    0.00000
   86      6.22756    0.00000
   87      6.73381    0.00000
   88      7.44396    0.00000
   89      7.74785    0.00000
   90      8.04243    0.00000
   91      8.35004    0.00000
   92      8.79345    0.00000
   93      8.82851    0.00000
   94      8.96721    0.00000
   95      8.99864    0.00000
   96      9.20769    0.00000
   97      9.24458    0.00000


Forces in eV/Ang:
  0 C    -0.25772   -3.24302    0.43031
  1 C     1.66371    3.60500   -0.25088
  2 C    -0.44503   -0.58749    0.56226
  3 C     0.18721    0.11420   -0.68854
  4 C    -0.91124   -2.63700    0.26096
  5 C    -3.07137    0.95162   -0.09329
  6 C     1.80450    1.70093    2.66764
  7 C     1.11410   -0.95168    1.89986
  8 C    -2.52808    5.04398   -0.77360
  9 C     1.19354    1.71093   -1.51877
 10 C    -0.58561   -0.03010    0.98556
 11 C     2.36827   -0.26724   -0.21202
 12 C    -0.14823    1.94127    1.02818
 13 C    -0.29454   -2.39178   -0.38189
 14 C    -5.50732   -1.55489   -0.08000
 15 C     3.20651    4.47950    0.26920
 16 C     1.74173   -3.72138   -0.23485
 17 C     2.91734   -2.13340   -2.82416
 18 C    -2.61397    1.56190   -2.06956
 19 C    -3.27782   -1.95435   -0.95046
 20 C    -0.59563    2.47736   -1.14448
 21 C     2.16167   -1.66524   -0.04501
 22 C     1.71426   -2.07441    1.45325
 23 C     0.15373   -0.35747    1.71717

System changes: positions 

Initializing position-dependent things.

Density initialized from wave functions
           .--------------------------------------.  
          /|                                      |  
         / |                                      |  
        /  |                                      |  
       /   |                                      |  
      /    |                                      |  
     /     |                                      |  
    /      |                                      |  
   /       |                                      |  
  /        |             C C     C                |  
 *         |        C  C         C                |  
 |         | C   C    C        C                  |  
 |         .--C-CC--C------C--C----C--------------.  
 |        /         C            C               /   
 |       /        C   C C    C                  /    
 |      /                                      /     
 |     /                                      /      
 |    /                                      /       
 |   /                                      /        
 |  /                                      /         
 | /                                      /          
 |/                                      /           
 *--------------------------------------*            

Positions:
   0 C      4.942350   10.635536    4.462316
   1 C      5.823799    3.773669    4.867130
   2 C      3.231890    8.418528    4.357014
   3 C      8.005905   10.925359    5.029883
   4 C      6.794570   11.272645    4.567456
   5 C     11.544611    6.114875    4.699594
   6 C      9.957651    8.771020    4.584045
   7 C      6.107948    7.151095    4.391428
   8 C      8.588924    3.308359    5.240270
   9 C      6.992588    6.996420    5.682166
  10 C     10.250059    6.625638    4.816162
  11 C      4.685263    6.800817    4.939252
  12 C      8.992944    6.084537    5.196672
  13 C      6.802093    8.887877    5.233208
  14 C      7.398601    4.340616    4.731014
  15 C      4.146188    9.368572    4.334399
  16 C      4.814007    5.444561    5.224506
  17 C      9.262444    4.716831    5.611461
  18 C     11.034479    8.243330    5.312071
  19 C     10.329512   10.820776    5.158336
  20 C      3.351267    6.666446    5.324204
  21 C     11.991531    7.634669    4.476521
  22 C      6.512335    5.591507    4.412853
  23 C     10.385519    4.626666    4.668441

Unit cell:
           periodic     x           y           z      points  spacing
  1. axis:    yes   16.000000    0.000000    0.000000    80     0.2000
  2. axis:    yes    0.000000   16.000000    0.000000    80     0.2000
  3. axis:    yes    0.000000    0.000000   10.000000    48     0.2083

Effective grid spacing dv^(1/3) = 0.2027

                     log10-error:    total        iterations:
           time      wfs    density  energy       fermi  poisson
iter:   1  14:13:57          +inf  -139.018958    2      5      
iter:   2  14:13:58         -1.77  -138.905552    2      2      
iter:   3  14:13:58         -1.92  -138.846533    2      2      
iter:   4  14:13:59         -2.14  -138.834604    2      2      
iter:   5  14:13:59         -2.26  -138.827654    2      2      
iter:   6  14:14:00         -2.37  -138.826868    2      2      
iter:   7  14:14:00         -2.47  -138.823825    3      2      
iter:   8  14:14:01         -2.67  -138.824401    2      2      
iter:   9  14:14:01         -2.84  -138.824009    2      2      
iter:  10  14:14:02         -3.03  -138.819431    2      1      
iter:  11  14:14:02         -3.16  -138.820661    2      1      
iter:  12  14:14:03         -3.30  -138.823068    2      1      
iter:  13  14:14:03         -3.40  -138.824359    2      1      
iter:  14  14:14:04         -3.60  -138.823464    2      1      
iter:  15  14:14:04         -3.73  -138.824357    2      1      
iter:  16  14:14:04         -3.81  -138.826114    2      1      
iter:  17  14:14:05         -4.00  -138.823882    2      1      

Converged after 17 iterations.

Dipole moment: (0.580783, 0.083837, -0.049986) |e|*Ang

Energy contributions relative to reference atoms: (reference = -24663.074771)

Kinetic:        +18.399762
Potential:      -40.413389
External:        +0.000000
XC:            -119.104497
Entropy (-ST):   -0.444989
Local:           +2.516738
--------------------------
Free energy:   -139.046376
Extrapolated:  -138.823882

Fermi level: -4.79520

 Band  Eigenvalues  Occupancy
    0    -23.42586    2.00000
    1    -22.92696    2.00000
    2    -21.91416    2.00000
    3    -20.44970    2.00000
    4    -19.53489    2.00000
    5    -18.98068    2.00000
    6    -18.70545    2.00000
    7    -18.02127    2.00000
    8    -17.81377    2.00000
    9    -16.35830    2.00000
   10    -15.93473    2.00000
   11    -15.59995    2.00000
   12    -15.17147    2.00000
   13    -14.47952    2.00000
   14    -13.85493    2.00000
   15    -13.69146    2.00000
   16    -12.81228    2.00000
   17    -12.33269    2.00000
   18    -12.17939    2.00000
   19    -11.47942    2.00000
   20    -11.21451    2.00000
   21    -11.13104    2.00000
   22    -10.54026    2.00000
   23    -10.39551    2.00000
   24     -9.65937    2.00000
   25     -9.55081    2.00000
   26     -9.44143    2.00000
   27     -9.01747    2.00000
   28     -8.61821    2.00000
   29     -8.27761    2.00000
   30     -8.13464    2.00000
   31     -8.10939    2.00000
   32     -7.69594    2.00000
   33     -7.49847    2.00000
   34     -7.45075    2.00000
   35     -7.18032    2.00000
   36     -7.11188    2.00000
   37     -6.93320    2.00000
   38     -6.75899    2.00000
   39     -6.51558    2.00000
   40     -6.43403    2.00000
   41     -6.32118    2.00000
   42     -6.12865    2.00000
   43     -5.71264    1.99979
   44     -5.70229    1.99977
   45     -5.23674    1.97611
   46     -5.03805    1.83796
   47     -4.81283    1.08792
   48     -4.76118    0.83156
   49     -4.56455    0.18118
   50     -4.45712    0.06581
   51     -4.32227    0.01751
   52     -4.10796    0.00207
   53     -3.91599    0.00030
   54     -3.57835    0.00001
   55     -3.35956    0.00000
   56     -3.12792    0.00000
   57     -3.02974    0.00000
   58     -2.95353    0.00000
   59     -2.75146    0.00000
   60     -2.68701    0.00000
   61     -2.19520    0.00000
   62     -1.89023    0.00000
   63     -1.65450    0.00000
   64     -1.45829    0.00000
   65     -1.20866    0.00000
   66     -0.78880    0.00000
   67     -0.59601    0.00000
   68     -0.30629    0.00000
   69     -0.14041    0.00000
   70     -0.06096    0.00000
   71     -0.00135    0.00000
   72      0.71265    0.00000
   73      0.82173    0.00000
   74      1.01281    0.00000
   75      1.31762    0.00000
   76      1.70368    0.00000
   77      2.41700    0.00000
   78      2.90892    0.00000
   79      2.98031    0.00000
   80      3.75480    0.00000
   81      4.14780    0.00000
   82      4.90441    0.00000
   83      5.47006    0.00000
   84      5.66032    0.00000
   85      5.79268    0.00000
   86      6.51533    0.00000
   87      7.01362    0.00000
   88      7.57235    0.00000
   89      7.85262    0.00000
   90      8.11756    0.00000
   91      8.49247    0.00000
   92      8.82105    0.00000
   93      8.86569    0.00000
   94      8.92070    0.00000
   95      9.04817    0.00000
   96      9.21602    0.00000
   97      9.24197    0.00000


Forces in eV/Ang:
  0 C     0.14769   -2.98421    0.42266
  1 C     1.52740    3.43173   -0.30153
  2 C     0.06166   -0.20276    0.59339
  3 C     0.13386    0.11862   -0.68510
  4 C    -1.01433   -2.57852    0.23873
  5 C    -2.69513    0.74318   -0.14117
  6 C     1.34592    2.14820    2.39794
  7 C     1.11341   -1.10428    1.69256
  8 C    -2.51205    4.82814   -0.69560
  9 C     1.37495    1.96516   -1.27015
 10 C    -0.95234    0.14901    1.09518
 11 C     1.75806   -0.81423   -0.02309
 12 C    -0.23056    1.50410    1.05984
 13 C    -0.20407   -2.57647   -0.27811
 14 C    -5.30005   -1.49310    0.06521
 15 C     2.55787    3.65607    0.30573
 16 C     1.95012   -3.17659   -0.33950
 17 C     2.49624   -1.71001   -2.67919
 18 C    -1.85197    1.08562   -2.04211
 19 C    -3.36207   -1.97956   -1.01904
 20 C    -0.31508    2.68903   -1.27521
 21 C     1.85743   -1.62957    0.22601
 22 C     1.43730   -1.75722    1.26959
 23 C     0.69748   -0.24918    1.42373

System changes: positions 

Initializing position-dependent things.

Density initialized from wave functions
           .--------------------------------------.  
          /|                                      |  
         / |                                      |  
        /  |                                      |  
       /   |                                      |  
      /    |                                      |  
     /     |                                      |  
    /      |                                      |  
   /       |                                      |  
  /        |             C C     C                |  
 *         |        C  C         C                |  
 |         | C   C    C        C                  |  
 |         .--C-CC--C------C--C----C--------------.  
 |        /         C        C   C               /   
 |       /        C   C C                       /    
 |      /                                      /     
 |     /                                      /      
 |    /                                      /       
 |   /                                      /        
 |  /                                      /         
 | /                                      /          
 |/                                      /           
 *--------------------------------------*            

Positions:
   0 C      4.945326   10.614394    4.465454
   1 C      5.834555    3.798563    4.864768
   2 C      3.238592    8.422966    4.361446
   3 C      8.006404   10.926373    5.024642
   4 C      6.786795   11.253677    4.569270
   5 C     11.525536    6.119698    4.698376
   6 C      9.965499    8.788833    4.600592
   7 C      6.116075    7.142220    4.403329
   8 C      8.570409    3.343474    5.235354
   9 C      7.003516    7.012298    5.673491
  10 C     10.241787    6.627428    4.824553
  11 C      4.696636    6.792974    4.939356
  12 C      8.990786    6.095338    5.204339
  13 C      6.800998    8.867689    5.231619
  14 C      7.360811    4.329699    4.732243
  15 C      4.158224    9.388039    4.336932
  16 C      4.829389    5.422749    5.221698
  17 C      9.278228    4.704443    5.593014
  18 C     11.023576    8.249816    5.298213
  19 C     10.304003   10.805757    5.150472
  20 C      3.349517    6.687214    5.314298
  21 C     12.004910    7.622234    4.478519
  22 C      6.521792    5.579769    4.421601
  23 C     10.393442    4.625514    4.677299

Unit cell:
           periodic     x           y           z      points  spacing
  1. axis:    yes   16.000000    0.000000    0.000000    80     0.2000
  2. axis:    yes    0.000000   16.000000    0.000000    80     0.2000
  3. axis:    yes    0.000000    0.000000   10.000000    48     0.2083

Effective grid spacing dv^(1/3) = 0.2027

                     log10-error:    total        iterations:
           time      wfs    density  energy       fermi  poisson
iter:   1  14:14:06          +inf  -140.665748    3      5      
iter:   2  14:14:07         -1.77  -140.559795    2      2      
iter:   3  14:14:07         -1.92  -140.508401    3      2      
iter:   4  14:14:08         -2.09  -140.491727    2      2      
iter:   5  14:14:08         -2.24  -140.485327    2      2      
iter:   6  14:14:09         -2.32  -140.480156    2      2      
iter:   7  14:14:09         -2.48  -140.478820    3      2      
iter:   8  14:14:10         -2.67  -140.478978    2      2      
iter:   9  14:14:10         -2.85  -140.478893    2      2      
iter:  10  14:14:11         -3.05  -140.475231    2      1      
iter:  11  14:14:11         -3.15  -140.474977    2      1      
iter:  12  14:14:12         -3.32  -140.477953    2      1      
iter:  13  14:14:12         -3.40  -140.477029    2      1      
iter:  14  14:14:13         -3.62  -140.478101    2      1      
iter:  15  14:14:13         -3.75  -140.479066    2      1      
iter:  16  14:14:14         -3.92  -140.479549    2      1      
iter:  17  14:14:14         -4.03  -140.480288    2      1      

Converged after 17 iterations.

Dipole moment: (0.543475, 0.125509, -0.069423) |e|*Ang

Energy contributions relative to reference atoms: (reference = -24663.074771)

Kinetic:        +20.506179
Potential:      -42.162776
External:        +0.000000
XC:            -121.138617
Entropy (-ST):   -0.442649
Local:           +2.536251
--------------------------
Free energy:   -140.701612
Extrapolated:  -140.480288

Fermi level: -4.78524

 Band  Eigenvalues  Occupancy
    0    -23.42391    2.00000
    1    -22.91998    2.00000
    2    -21.86807    2.00000
    3    -20.50737    2.00000
    4    -19.71016    2.00000
    5    -19.08180    2.00000
    6    -18.84917    2.00000
    7    -18.02250    2.00000
    8    -17.91216    2.00000
    9    -16.53278    2.00000
   10    -16.05606    2.00000
   11    -15.63705    2.00000
   12    -15.26064    2.00000
   13    -14.57293    2.00000
   14    -13.91228    2.00000
   15    -13.74671    2.00000
   16    -12.74740    2.00000
   17    -12.32859    2.00000
   18    -12.24876    2.00000
   19    -11.56110    2.00000
   20    -11.23594    2.00000
   21    -11.19021    2.00000
   22    -10.63456    2.00000
   23    -10.41057    2.00000
   24     -9.67724    2.00000
   25     -9.58584    2.00000
   26     -9.48799    2.00000
   27     -9.03748    2.00000
   28     -8.66696    2.00000
   29     -8.29989    2.00000
   30     -8.18403    2.00000
   31     -8.17096    2.00000
   32     -7.76837    2.00000
   33     -7.56836    2.00000
   34     -7.47704    2.00000
   35     -7.26195    2.00000
   36     -7.16842    2.00000
   37     -6.90633    2.00000
   38     -6.71283    2.00000
   39     -6.52832    2.00000
   40     -6.44491    2.00000
   41     -6.29115    2.00000
   42     -6.11559    2.00000
   43     -5.76775    1.99989
   44     -5.71557    1.99982
   45     -5.23645    1.97829
   46     -5.03274    1.84475
   47     -4.79661    1.05683
   48     -4.75667    0.85811
   49     -4.54914    0.17240
   50     -4.45676    0.07220
   51     -4.29531    0.01479
   52     -4.11795    0.00253
   53     -3.93151    0.00039
   54     -3.51427    0.00001
   55     -3.31722    0.00000
   56     -3.07748    0.00000
   57     -2.98985    0.00000
   58     -2.92084    0.00000
   59     -2.68713    0.00000
   60     -2.61020    0.00000
   61     -2.11591    0.00000
   62     -1.78507    0.00000
   63     -1.54786    0.00000
   64     -1.37059    0.00000
   65     -1.08423    0.00000
   66     -0.63851    0.00000
   67     -0.55051    0.00000
   68     -0.20618    0.00000
   69     -0.10606    0.00000
   70      0.03430    0.00000
   71      0.20214    0.00000
   72      0.74444    0.00000
   73      0.90748    0.00000
   74      1.11678    0.00000
   75      1.59027    0.00000
   76      1.77315    0.00000
   77      2.50505    0.00000
   78      3.06285    0.00000
   79      3.39712    0.00000
   80      4.10014    0.00000
   81      4.51489    0.00000
   82      5.11702    0.00000
   83      5.61003    0.00000
   84      5.92288    0.00000
   85      6.01894    0.00000
   86      6.74607    0.00000
   87      7.17327    0.00000
   88      7.64057    0.00000
   89      7.99491    0.00000
   90      8.22072    0.00000
   91      8.63731    0.00000
   92      8.82115    0.00000
   93      8.87614    0.00000
   94      8.93903    0.00000
   95      9.09957    0.00000
   96      9.22599    0.00000
   97      9.27151    0.00000


Forces in eV/Ang:
  0 C     0.66843   -2.58622    0.41499
  1 C     1.19751    3.24794   -0.34413
  2 C     0.46722    0.05276    0.65853
  3 C     0.04108    0.13235   -0.69874
  4 C    -1.13201   -2.52095    0.24927
  5 C    -2.35728    0.50022   -0.20956
  6 C     0.94789    2.65101    2.19167
  7 C     1.03861   -1.29156    1.46908
  8 C    -2.48993    4.55417   -0.63889
  9 C     1.57749    2.29207   -1.05581
 10 C    -1.24663    0.35886    1.22180
 11 C     1.16098   -1.29969    0.13538
 12 C    -0.36162    1.09914    1.05222
 13 C    -0.09694   -2.84442   -0.14087
 14 C    -4.69765   -1.40061    0.23439
 15 C     1.91326    2.81111    0.31661
 16 C     2.22210   -2.75719   -0.42230
 17 C     1.95878   -1.32038   -2.49334
 18 C    -1.20970    0.64002   -2.03155
 19 C    -3.46536   -2.10318   -1.07900
 20 C    -0.07593    2.96685   -1.43884
 21 C     1.57284   -1.63319    0.43327
 22 C     1.12420   -1.42712    1.06923
 23 C     1.27118   -0.08737    1.12507

System changes: positions 

Initializing position-dependent things.

Density initialized from wave functions
           .--------------------------------------.  
          /|                                      |  
         / |                                      |  
        /  |                                      |  
       /   |                                      |  
      /    |                                      |  
     /     |                                      |  
    /      |                                      |  
   /       |                                      |  
  /        |             C C     C                |  
 *         |        C  C         C                |  
 |         | CC  C    C        C                  |  
 |         .----CC--C------C--C----C--------------.  
 |        /         C        C   C               /   
 |       /        C   C C                       /    
 |      /                                      /     
 |     /                                      /      
 |    /                                      /       
 |   /                                      /        
 |  /                                      /         
 | /                                      /          
 |/                                      /           
 *--------------------------------------*            

Positions:
   0 C      4.952410   10.595743    4.468728
   1 C      5.842585    3.823563    4.862262
   2 C      3.245224    8.426131    4.366794
   3 C      8.006094   10.927616    5.018892
   4 C      6.777901   11.233971    4.571439
   5 C     11.506696    6.123301    4.696656
   6 C      9.971912    8.810415    4.617046
   7 C      6.123593    7.131718    4.414697
   8 C      8.551291    3.378261    5.230425
   9 C      7.016134    7.031293    5.665261
  10 C     10.232340    6.630536    4.833989
  11 C      4.706511    6.784276    4.939363
  12 C      8.987590    6.105467    5.211909
  13 C      6.800612    8.844550    5.230914
  14 C      7.327822    4.318935    4.734858
  15 C      4.169147    9.405397    4.339300
  16 C      4.847559    5.399766    5.218782
  17 C      9.290137    4.692610    5.575499
  18 C     11.014705    8.254649    5.284561
  19 C     10.276507   10.788757    5.141814
  20 C      3.347419    6.710796    5.303157
  21 C     12.018095    7.608664    4.480803
  22 C      6.529648    5.569435    4.429548
  23 C     10.405319    4.625765    4.684353

Unit cell:
           periodic     x           y           z      points  spacing
  1. axis:    yes   16.000000    0.000000    0.000000    80     0.2000
  2. axis:    yes    0.000000   16.000000    0.000000    80     0.2000
  3. axis:    yes    0.000000    0.000000   10.000000    48     0.2083

Effective grid spacing dv^(1/3) = 0.2027

                     log10-error:    total        iterations:
           time      wfs    density  energy       fermi  poisson
iter:   1  14:14:16          +inf  -142.238513    3      5      
iter:   2  14:14:16         -1.77  -142.128521    2      2      
iter:   3  14:14:17         -1.94  -142.081937    3      2      
iter:   4  14:14:17         -2.11  -142.069029    2      2      
iter:   5  14:14:18         -2.23  -142.061399    2      2      
iter:   6  14:14:18         -2.33  -142.057363    2      2      
iter:   7  14:14:19         -2.47  -142.055469    2      2      
iter:   8  14:14:19         -2.64  -142.055555    2      2      
iter:   9  14:14:20         -2.83  -142.055720    2      2      
iter:  10  14:14:20         -3.02  -142.050790    2      1      
iter:  11  14:14:21         -3.14  -142.050921    2      1      
iter:  12  14:14:21         -3.34  -142.054094    2      1      
iter:  13  14:14:22         -3.48  -142.055362    2      1      
iter:  14  14:14:22         -3.56  -142.054552    2      1      
iter:  15  14:14:23         -3.77  -142.055165    2      1      
iter:  16  14:14:23         -3.91  -142.056363    2      1      
iter:  17  14:14:24         -4.06  -142.056506    2      1      

Converged after 17 iterations.

Dipole moment: (0.492963, 0.151616, -0.088293) |e|*Ang

Energy contributions relative to reference atoms: (reference = -24663.074771)

Kinetic:        +22.486569
Potential:      -43.740667
External:        +0.000000
XC:            -123.131856
Entropy (-ST):   -0.446561
Local:           +2.552729
--------------------------
Free energy:   -142.279787
Extrapolated:  -142.056506

Fermi level: -4.77138

 Band  Eigenvalues  Occupancy
    0    -23.40172    2.00000
    1    -22.95506    2.00000
    2    -21.80335    2.00000
    3    -20.63100    2.00000
    4    -19.83570    2.00000
    5    -19.17185    2.00000
    6    -18.94200    2.00000
    7    -18.03327    2.00000
    8    -17.97464    2.00000
    9    -16.70070    2.00000
   10    -16.15825    2.00000
   11    -15.71114    2.00000
   12    -15.32045    2.00000
   13    -14.67645    2.00000
   14    -13.98028    2.00000
   15    -13.79729    2.00000
   16    -12.69914    2.00000
   17    -12.32718    2.00000
   18    -12.31975    2.00000
   19    -11.64714    2.00000
   20    -11.26764    2.00000
   21    -11.24019    2.00000
   22    -10.72791    2.00000
   23    -10.41728    2.00000
   24     -9.72999    2.00000
   25     -9.61880    2.00000
   26     -9.53177    2.00000
   27     -9.09156    2.00000
   28     -8.71801    2.00000
   29     -8.34390    2.00000
   30     -8.25153    2.00000
   31     -8.19874    2.00000
   32     -7.84919    2.00000
   33     -7.62374    2.00000
   34     -7.52903    2.00000
   35     -7.40282    2.00000
   36     -7.17256    2.00000
   37     -6.86817    2.00000
   38     -6.69456    2.00000
   39     -6.55632    2.00000
   40     -6.46204    2.00000
   41     -6.17617    2.00000
   42     -6.09681    2.00000
   43     -5.80819    1.99994
   44     -5.72536    1.99986
   45     -5.23606    1.98100
   46     -5.02131    1.84818
   47     -4.77543    1.02025
   48     -4.74557    0.87163
   49     -4.52880    0.16245
   50     -4.47905    0.10203
   51     -4.25147    0.01098
   52     -4.12924    0.00325
   53     -3.92955    0.00044
   54     -3.45622    0.00000
   55     -3.27039    0.00000
   56     -3.04471    0.00000
   57     -2.94382    0.00000
   58     -2.90221    0.00000
   59     -2.60057    0.00000
   60     -2.49901    0.00000
   61     -2.05121    0.00000
   62     -1.67368    0.00000
   63     -1.44097    0.00000
   64     -1.27324    0.00000
   65     -0.96645    0.00000
   66     -0.56065    0.00000
   67     -0.45881    0.00000
   68     -0.18289    0.00000
   69     -0.05624    0.00000
   70      0.21914    0.00000
   71      0.38987    0.00000
   72      0.82416    0.00000
   73      1.05163    0.00000
   74      1.25847    0.00000
   75      1.80771    0.00000
   76      1.94036    0.00000
   77      2.60364    0.00000
   78      3.14148    0.00000
   79      3.78577    0.00000
   80      4.35149    0.00000
   81      5.01675    0.00000
   82      5.34826    0.00000
   83      5.67365    0.00000
   84      6.11700    0.00000
   85      6.27619    0.00000
   86      6.90171    0.00000
   87      7.28639    0.00000
   88      7.70952    0.00000
   89      8.13039    0.00000
   90      8.34796    0.00000
   91      8.74604    0.00000
   92      8.81960    0.00000
   93      8.87140    0.00000
   94      8.98033    0.00000
   95      9.14593    0.00000
   96      9.25646    0.00000
   97      9.32412    0.00000


Forces in eV/Ang:
  0 C     1.29252   -2.10995    0.44871
  1 C     0.63149    3.13517   -0.32667
  2 C     0.78744    0.22128    0.74887
  3 C    -0.08160    0.15171   -0.73202
  4 C    -1.28629   -2.47230    0.26389
  5 C    -2.05978    0.21097   -0.29106
  6 C     0.61914    3.18624    2.03108
  7 C     0.93529   -1.51482    1.27481
  8 C    -2.48604    4.15038   -0.59619
  9 C     1.79110    2.66934   -0.83611
 10 C    -1.51130    0.59310    1.34874
 11 C     0.56051   -1.71843    0.27611
 12 C    -0.47455    0.76925    1.07401
 13 C     0.03341   -3.15833   -0.01543
 14 C    -3.86063   -1.24947    0.39571
 15 C     1.34301    1.98879    0.33601
 16 C     2.54799   -2.42289   -0.55066
 17 C     1.43116   -0.93601   -2.32061
 18 C    -0.63910    0.20511   -2.01083
 19 C    -3.55628   -2.24401   -1.13457
 20 C     0.12122    3.21589   -1.60887
 21 C     1.32756   -1.67825    0.61919
 22 C     0.78917   -1.09696    0.82593
 23 C     1.78083    0.10488    0.84393

System changes: positions 

Initializing position-dependent things.

Density initialized from wave functions
           .--------------------------------------.  
          /|                                      |  
         / |                                      |  
        /  |                                      |  
       /   |                                      |  
      /    |                                      |  
     /     |                                      |  
    /      |                                      |  
   /       |                                      |  
  /        |               C     C                |  
 *         |        C  C C                        |  
 |         | CC  C     C       C C                |  
 |         .----CC--C------C--C----C--------------.  
 |        /         C        C   C               /   
 |       /        C  C  C                       /    
 |      /                                      /     
 |     /                                      /      
 |    /                                      /       
 |   /                                      /        
 |  /                                      /         
 | /                                      /          
 |/                                      /           
 *--------------------------------------*            

Positions:
   0 C      4.963452   10.579025    4.472582
   1 C      5.846646    3.849947    4.860164
   2 C      3.251714    8.428242    4.373117
   3 C      8.004951   10.929087    5.012481
   4 C      6.767640   11.213217    4.573926
   5 C     11.487307    6.125657    4.694410
   6 C      9.978145    8.835498    4.634289
   7 C      6.130643    7.119471    4.426210
   8 C      8.531081    3.412389    5.225239
   9 C      7.030362    7.053376    5.657257
  10 C     10.222019    6.634905    4.844420
  11 C      4.715174    6.774853    4.939385
  12 C      8.983786    6.115817    5.219979
  13 C      6.800928    8.818371    5.230678
  14 C      7.299414    4.308602    4.738381
  15 C      4.179778    9.421420    4.341740
  16 C      4.868579    5.375133    5.215137
  17 C      9.299959    4.681126    5.557902
  18 C     11.006514    8.258408    5.270546
  19 C     10.247113   10.769843    5.132452
  20 C      3.345027    6.736637    5.290727
  21 C     12.031629    7.593690    4.483370
  22 C      6.536375    5.559834    4.436701
  23 C     10.419544    4.627243    4.690597

Unit cell:
           periodic     x           y           z      points  spacing
  1. axis:    yes   16.000000    0.000000    0.000000    80     0.2000
  2. axis:    yes    0.000000   16.000000    0.000000    80     0.2000
  3. axis:    yes    0.000000    0.000000   10.000000    48     0.2083

Effective grid spacing dv^(1/3) = 0.2027

                     log10-error:    total        iterations:
           time      wfs    density  energy       fermi  poisson
iter:   1  14:14:25          +inf  -143.842252    3      5      
iter:   2  14:14:25         -1.73  -143.705596    3      2      
iter:   3  14:14:26         -1.93  -143.663354    3      2      
iter:   4  14:14:27         -2.10  -143.649314    2      2      
iter:   5  14:14:27         -2.20  -143.641144    2      2      
iter:   6  14:14:28         -2.31  -143.637472    2      2      
iter:   7  14:14:28         -2.44  -143.634952    3      2      
iter:   8  14:14:29         -2.63  -143.635275    3      2      
iter:   9  14:14:29         -2.81  -143.635491    2      2      
iter:  10  14:14:30         -3.01  -143.631079    2      1      
iter:  11  14:14:30         -3.12  -143.631169    2      1      
iter:  12  14:14:30         -3.28  -143.633041    2      1      
iter:  13  14:14:31         -3.47  -143.634321    2      1      
iter:  14  14:14:31         -3.61  -143.635547    2      1      
iter:  15  14:14:32         -3.79  -143.635550    2      1      
iter:  16  14:14:32         -3.93  -143.636197    2      1      
iter:  17  14:14:33         -4.10  -143.636054    2      1      

Converged after 17 iterations.

Dipole moment: (0.430891, 0.161540, -0.105088) |e|*Ang

Energy contributions relative to reference atoms: (reference = -24663.074771)

Kinetic:        +24.289211
Potential:      -45.135682
External:        +0.000000
XC:            -125.135054
Entropy (-ST):   -0.456534
Local:           +2.573738
--------------------------
Free energy:   -143.864321
Extrapolated:  -143.636054

Fermi level: -4.75523

 Band  Eigenvalues  Occupancy
    0    -23.36651    2.00000
    1    -23.03272    2.00000
    2    -21.72394    2.00000
    3    -20.82000    2.00000
    4    -19.89025    2.00000
    5    -19.24776    2.00000
    6    -19.00157    2.00000
    7    -18.06893    2.00000
    8    -17.99467    2.00000
    9    -16.86557    2.00000
   10    -16.24377    2.00000
   11    -15.82128    2.00000
   12    -15.35327    2.00000
   13    -14.79419    2.00000
   14    -14.05734    2.00000
   15    -13.84444    2.00000
   16    -12.68356    2.00000
   17    -12.39228    2.00000
   18    -12.31816    2.00000
   19    -11.73928    2.00000
   20    -11.34670    2.00000
   21    -11.24621    2.00000
   22    -10.81192    2.00000
   23    -10.41665    2.00000
   24     -9.80599    2.00000
   25     -9.65759    2.00000
   26     -9.58370    2.00000
   27     -9.18088    2.00000
   28     -8.76198    2.00000
   29     -8.39901    2.00000
   30     -8.33345    2.00000
   31     -8.19472    2.00000
   32     -7.93682    2.00000
   33     -7.67407    2.00000
   34     -7.61778    2.00000
   35     -7.50986    2.00000
   36     -7.18348    2.00000
   37     -6.82047    2.00000
   38     -6.69910    2.00000
   39     -6.58474    2.00000
   40     -6.48029    2.00000
   41     -6.09069    2.00000
   42     -6.02410    1.99999
   43     -5.82741    1.99996
   44     -5.72952    1.99988
   45     -5.23031    1.98286
   46     -5.00569    1.84893
   47     -4.75765    1.01210
   48     -4.72084    0.82974
   49     -4.51508    0.16613
   50     -4.50228    0.14763
   51     -4.21027    0.00856
   52     -4.12981    0.00384
   53     -3.90094    0.00039
   54     -3.40983    0.00000
   55     -3.21549    0.00000
   56     -3.02417    0.00000
   57     -2.88736    0.00000
   58     -2.86247    0.00000
   59     -2.50062    0.00000
   60     -2.36397    0.00000
   61     -1.98640    0.00000
   62     -1.54998    0.00000
   63     -1.33108    0.00000
   64     -1.16410    0.00000
   65     -0.85489    0.00000
   66     -0.51844    0.00000
   67     -0.33970    0.00000
   68     -0.18488    0.00000
   69      0.02620    0.00000
   70      0.41512    0.00000
   71      0.57460    0.00000
   72      0.91623    0.00000
   73      1.29675    0.00000
   74      1.45875    0.00000
   75      1.92635    0.00000
   76      2.26723    0.00000
   77      2.71951    0.00000
   78      3.23509    0.00000
   79      4.08704    0.00000
   80      4.64479    0.00000
   81      5.41314    0.00000
   82      5.56068    0.00000
   83      5.79557    0.00000
   84      6.31830    0.00000
   85      6.45283    0.00000
   86      7.01394    0.00000
   87      7.38382    0.00000
   88      7.81513    0.00000
   89      8.25780    0.00000
   90      8.47635    0.00000
   91      8.77389    0.00000
   92      8.85116    0.00000
   93      8.90257    0.00000
   94      9.00790    0.00000
   95      9.19145    0.00000
   96      9.31657    0.00000
   97      9.38662    0.00000


Forces in eV/Ang:
  0 C     1.96824   -1.61667    0.41231
  1 C    -0.15981    3.14011   -0.28158
  2 C     1.07387    0.30858    0.89329
  3 C    -0.25777    0.17753   -0.79250
  4 C    -1.48191   -2.45723    0.30823
  5 C    -1.75535   -0.10559   -0.34925
[...]
    7    -19.38396    2.00000
    8    -18.28037    2.00000
    9    -18.18274    2.00000
   10    -17.66964    2.00000
   11    -17.33629    2.00000
   12    -16.46574    2.00000
   13    -16.11238    2.00000
   14    -15.15595    2.00000
   15    -14.62337    2.00000
   16    -14.43970    2.00000
   17    -13.77266    2.00000
   18    -13.39646    2.00000
   19    -12.57048    2.00000
   20    -12.36430    2.00000
   21    -12.28248    2.00000
   22    -11.79812    2.00000
   23    -11.30508    2.00000
   24    -11.03780    2.00000
   25    -10.73258    2.00000
   26    -10.67558    2.00000
   27    -10.62928    2.00000
   28    -10.32493    2.00000
   29     -9.94393    2.00000
   30     -9.56030    2.00000
   31     -9.41176    2.00000
   32     -9.18744    2.00000
   33     -8.68291    2.00000
   34     -8.42566    2.00000
   35     -7.99097    2.00000
   36     -7.51184    2.00000
   37     -7.16594    2.00000
   38     -7.12367    2.00000
   39     -7.08023    2.00000
   40     -6.37183    2.00000
   41     -6.30547    2.00000
   42     -6.28787    2.00000
   43     -5.81938    1.99999
   44     -5.61371    1.99995
   45     -5.16150    1.99574
   46     -4.76021    1.78897
   47     -4.69734    1.63771
   48     -4.45370    0.56678
   49     -4.02534    0.01085
   50     -3.05886    0.00000
   51     -2.91836    0.00000
   52     -2.78385    0.00000
   53     -2.72367    0.00000
   54     -2.58777    0.00000
   55     -1.37274    0.00000
   56     -1.11092    0.00000
   57     -0.74009    0.00000
   58     -0.30981    0.00000
   59      0.38662    0.00000
   60      0.78790    0.00000
   61      2.12014    0.00000
   62      2.21666    0.00000
   63      2.89248    0.00000
   64      3.28072    0.00000
   65      3.62948    0.00000
   66      4.32440    0.00000
   67      4.66783    0.00000
   68      4.83821    0.00000
   69      5.25043    0.00000
   70      5.33510    0.00000
   71      5.74443    0.00000
   72      6.21469    0.00000
   73      6.59948    0.00000
   74      6.85630    0.00000
   75      6.94473    0.00000
   76      7.22841    0.00000
   77      7.67104    0.00000
   78      7.90416    0.00000
   79      8.16838    0.00000
   80      8.37642    0.00000
   81      8.52932    0.00000
   82      8.64164    0.00000
   83      8.76255    0.00000
   84      9.00903    0.00000
   85      9.04467    0.00000
   86      9.19723    0.00000
   87      9.35679    0.00000
   88      9.48313    0.00000
   89      9.66769    0.00000
   90      9.69507    0.00000
   91      9.92741    0.00000
   92     10.02554    0.00000
   93     10.13588    0.00000
   94     10.29906    0.00000
   95     10.37704    0.00000
   96     10.40896    0.00000
   97     10.63563    0.00000


Forces in eV/Ang:
  0 C     0.05905    0.03393    0.00070
  1 C    -0.00475   -0.01832   -0.04074
  2 C    -0.02802   -0.02249   -0.02860
  3 C     0.03827   -0.06641    0.01286
  4 C     0.02449    0.02527    0.03434
  5 C     0.05627   -0.03856   -0.01007
  6 C    -0.02611    0.12225   -0.06736
  7 C     0.00439   -0.03180   -0.01524
  8 C     0.06353   -0.02384    0.03408
  9 C     0.04183    0.04322    0.02751
 10 C    -0.01646    0.01992    0.00607
 11 C    -0.00451   -0.01890    0.00721
 12 C    -0.03889   -0.03338   -0.00716
 13 C     0.03005    0.01494    0.01774
 14 C     0.06565   -0.01196   -0.01847
 15 C    -0.06787    0.05500    0.00861
 16 C     0.01215   -0.03158   -0.00192
 17 C    -0.07566    0.05345   -0.00888
 18 C    -0.00558   -0.10457   -0.00598
 19 C    -0.04966    0.01305   -0.00800
 20 C    -0.00653   -0.01051    0.01357
 21 C    -0.02449    0.01239   -0.01107
 22 C    -0.00014   -0.00272    0.01824
 23 C     0.02894   -0.02425    0.03295

System changes: positions 

Initializing position-dependent things.

Density initialized from wave functions
           .--------------------------------------.  
          /|                                      |  
         / |                                      |  
        /  |                                      |  
       /   |                                      |  
      /    |                                      |  
     /     |                                      |  
    /      |                                      |  
   /       |                                      |  
  /        |           C  CC  C                   |  
 *         |    C   CC  C      C                  |  
 |         |  C          C  C    C                |  
 |         .-C-C---C-C--------C-------------------.  
 |        /    C C   C        C                  /   
 |       /             C  C                     /    
 |      /                                      /     
 |     /                                      /      
 |    /                                      /       
 |   /                                      /        
 |  /                                      /         
 | /                                      /          
 |/                                      /           
 *--------------------------------------*            

Positions:
   0 C      5.393229    8.826515    5.775602
   1 C      5.678584    3.439552    5.309229
   2 C      3.453098    7.616996    5.577440
   3 C      7.548787    9.929018    6.074171
   4 C      6.294397    9.908782    5.950441
   5 C     10.729414    5.235832    5.649428
   6 C      9.807783    8.591856    6.202181
   7 C      5.822131    6.147460    5.525815
   8 C      8.229551    3.195150    5.166591
   9 C      7.625382    7.622191    5.777792
  10 C      9.569416    6.175750    5.748140
  11 C      4.466653    5.539402    5.436364
  12 C      8.189720    6.280743    5.667400
  13 C      6.200286    7.577216    5.686594
  14 C      7.019556    3.894582    5.336870
  15 C      3.975238    8.813687    5.680893
  16 C      4.628647    4.133079    5.349713
  17 C      9.488058    3.320915    5.323167
  18 C     10.384985    7.411161    6.005161
  19 C      8.425952    8.820507    6.016430
  20 C      3.288370    6.328447    5.437527
  21 C     11.459509    6.418540    5.932505
  22 C      7.031756    5.350960    5.499671
  23 C     10.695115    3.906815    5.299331

Unit cell:
           periodic     x           y           z      points  spacing
  1. axis:    yes   16.000000    0.000000    0.000000    80     0.2000
  2. axis:    yes    0.000000   16.000000    0.000000    80     0.2000
  3. axis:    yes    0.000000    0.000000   10.000000    48     0.2083

Effective grid spacing dv^(1/3) = 0.2027

                     log10-error:    total        iterations:
           time      wfs    density  energy       fermi  poisson
iter:   1  14:38:52          +inf  -184.037080    3      5      
iter:   2  14:38:52         -2.66  -184.032712    2      1      
iter:   3  14:38:53         -2.86  -184.032175    2      1      
iter:   4  14:38:53         -2.92  -184.034240    2      1      
iter:   5  14:38:54         -3.04  -184.031518    3      2      
iter:   6  14:38:55         -2.95  -184.044919    2      1      
iter:   7  14:38:55         -2.53  -184.039000    2      1      
iter:   8  14:38:56         -2.88  -184.033590    2      1      
iter:   9  14:38:56         -3.54  -184.033065    2      1      
iter:  10  14:38:57         -3.76  -184.034367    2      1      
iter:  11  14:38:58         -3.31  -184.033555    2      1      
iter:  12  14:38:58         -3.96  -184.032842    2      1      
iter:  13  14:38:59         -3.74  -184.033000    2      1      
iter:  14  14:38:59         -4.24  -184.033150    2      1      

Converged after 14 iterations.

Dipole moment: (0.309780, -0.045397, 0.068547) |e|*Ang

Energy contributions relative to reference atoms: (reference = -24663.074771)

Kinetic:       +114.328190
Potential:     -122.181422
External:        +0.000000
XC:            -179.034858
Entropy (-ST):   -0.300076
Local:           +3.004978
--------------------------
Free energy:   -184.183188
Extrapolated:  -184.033150

Fermi level: -4.55070

 Band  Eigenvalues  Occupancy
    0    -23.36713    2.00000
    1    -22.46964    2.00000
    2    -21.57637    2.00000
    3    -20.90392    2.00000
    4    -20.42594    2.00000
    5    -20.22503    2.00000
    6    -19.61293    2.00000
    7    -19.37471    2.00000
    8    -18.27111    2.00000
    9    -18.17997    2.00000
   10    -17.66524    2.00000
   11    -17.33133    2.00000
   12    -16.46086    2.00000
   13    -16.10424    2.00000
   14    -15.15104    2.00000
   15    -14.61788    2.00000
   16    -14.44373    2.00000
   17    -13.76482    2.00000
   18    -13.39130    2.00000
   19    -12.56681    2.00000
   20    -12.35786    2.00000
   21    -12.27675    2.00000
   22    -11.79447    2.00000
   23    -11.30350    2.00000
   24    -11.02929    2.00000
   25    -10.72816    2.00000
   26    -10.66683    2.00000
   27    -10.62666    2.00000
   28    -10.31979    2.00000
   29     -9.93895    2.00000
   30     -9.55006    2.00000
   31     -9.41423    2.00000
   32     -9.18259    2.00000
   33     -8.67838    2.00000
   34     -8.42235    2.00000
   35     -7.98508    2.00000
   36     -7.51301    2.00000
   37     -7.16610    2.00000
   38     -7.12309    2.00000
   39     -7.07856    2.00000
   40     -6.36997    2.00000
   41     -6.29876    2.00000
   42     -6.28722    2.00000
   43     -5.81804    1.99999
   44     -5.61775    1.99995
   45     -5.16476    1.99570
   46     -4.75068    1.76155
   47     -4.70132    1.63699
   48     -4.46441    0.59346
   49     -4.04267    0.01236
   50     -3.06048    0.00000
   51     -2.91336    0.00000
   52     -2.78944    0.00000
   53     -2.71361    0.00000
   54     -2.58911    0.00000
   55     -1.38994    0.00000
   56     -1.10536    0.00000
   57     -0.74715    0.00000
   58     -0.31123    0.00000
   59      0.38336    0.00000
   60      0.78245    0.00000
   61      2.12319    0.00000
   62      2.22698    0.00000
   63      2.88936    0.00000
   64      3.29180    0.00000
   65      3.62216    0.00000
   66      4.33862    0.00000
   67      4.66317    0.00000
   68      4.85295    0.00000
   69      5.21740    0.00000
   70      5.31656    0.00000
   71      5.72521    0.00000
   72      6.20315    0.00000
   73      6.60407    0.00000
   74      6.85155    0.00000
   75      6.92971    0.00000
   76      7.22433    0.00000
   77      7.66297    0.00000
   78      7.92374    0.00000
   79      8.14236    0.00000
   80      8.36862    0.00000
   81      8.52756    0.00000
   82      8.62445    0.00000
   83      8.75533    0.00000
   84      9.00895    0.00000
   85      9.04421    0.00000
   86      9.19497    0.00000
   87      9.34905    0.00000
   88      9.48353    0.00000
   89      9.66839    0.00000
   90      9.69804    0.00000
   91      9.92302    0.00000
   92     10.01900    0.00000
   93     10.12770    0.00000
   94     10.30127    0.00000
   95     10.38261    0.00000
   96     10.41115    0.00000
   97     10.63796    0.00000


Forces in eV/Ang:
  0 C     0.01144    0.03420    0.01144
  1 C    -0.05840   -0.02237   -0.04477
  2 C     0.04822    0.03521   -0.02568
  3 C     0.05592    0.00019    0.01709
  4 C    -0.06354   -0.00759    0.02480
  5 C     0.01700   -0.05453   -0.01873
  6 C    -0.01617    0.01121   -0.06974
  7 C     0.01721   -0.03800    0.00128
  8 C     0.03908    0.00614    0.03829
  9 C     0.03192   -0.01274    0.06042
 10 C    -0.03216   -0.00120   -0.00593
 11 C    -0.03683   -0.03563    0.00393
 12 C    -0.06542    0.00990    0.03669
 13 C     0.05602   -0.00298   -0.00914
 14 C     0.12909    0.01173    0.00674
 15 C    -0.03972   -0.03506    0.01984
 16 C     0.05311    0.05134    0.02260
 17 C    -0.02964    0.05459   -0.01579
 18 C    -0.00786   -0.02182   -0.00474
 19 C    -0.00090    0.01140   -0.00637
 20 C     0.06038   -0.01152   -0.00862
 21 C    -0.03963   -0.01338   -0.01278
 22 C    -0.03976    0.01787   -0.00753
 23 C     0.05746   -0.02726    0.00273

System changes: positions 

Initializing position-dependent things.

Density initialized from wave functions
           .--------------------------------------.  
          /|                                      |  
         / |                                      |  
        /  |                                      |  
       /   |                                      |  
      /    |                                      |  
     /     |                                      |  
    /      |                                      |  
   /       |                                      |  
  /        |           C  CC  C                   |  
 *         |    C   CC  C      C                  |  
 |         |  C          C  C    C                |  
 |         .-C-C---C-C--------C-------------------.  
 |        /    C C   C        C                  /   
 |       /             C  C                     /    
 |      /                                      /     
 |     /                                      /      
 |    /                                      /       
 |   /                                      /        
 |  /                                      /         
 | /                                      /          
 |/                                      /           
 *--------------------------------------*            

Positions:
   0 C      5.392185    8.824464    5.777172
   1 C      5.679253    3.437032    5.309392
   2 C      3.453317    7.613960    5.574594
   3 C      7.547506    9.927920    6.079185
   4 C      6.292227    9.906462    5.955954
   5 C     10.726437    5.232759    5.649679
   6 C      9.804456    8.588518    6.205694
   7 C      5.821230    6.144205    5.530180
   8 C      8.231229    3.193640    5.166810
   9 C      7.623718    7.619452    5.783774
  10 C      9.566873    6.171946    5.751354
  11 C      4.465677    5.535511    5.440128
  12 C      8.187501    6.278243    5.673598
  13 C      6.199631    7.574717    5.690599
  14 C      7.020895    3.892263    5.339407
  15 C      3.974626    8.810581    5.679516
  16 C      4.628810    4.129828    5.354420
  17 C      9.489486    3.319451    5.320676
  18 C     10.382163    7.408801    6.006993
  19 C      8.422937    8.818233    6.022144
  20 C      3.288245    6.325099    5.437312
  21 C     11.454974    6.415528    5.935323
  22 C      7.030295    5.348430    5.504043
  23 C     10.697761    3.903902    5.296983

Unit cell:
           periodic     x           y           z      points  spacing
  1. axis:    yes   16.000000    0.000000    0.000000    80     0.2000
  2. axis:    yes    0.000000   16.000000    0.000000    80     0.2000
  3. axis:    yes    0.000000    0.000000   10.000000    48     0.2083

Effective grid spacing dv^(1/3) = 0.2027

                     log10-error:    total        iterations:
           time      wfs    density  energy       fermi  poisson
iter:   1  14:39:02          +inf  -184.031235    3      4      
iter:   2  14:39:02         -2.74  -184.034481    2      1      
iter:   3  14:39:03         -3.21  -184.034902    2      1      
iter:   4  14:39:03         -3.36  -184.034021    2      1      
iter:   5  14:39:04         -3.42  -184.036319    2      1      
iter:   6  14:39:04         -3.07  -184.034082    2      1      
iter:   7  14:39:05         -3.52  -184.032946    2      1      
iter:   8  14:39:06         -3.13  -184.034123    2      1      
iter:   9  14:39:06         -3.93  -184.034445    2      1      
iter:  10  14:39:07         -3.95  -184.034062    2      1      
iter:  11  14:39:07         -3.95  -184.034260    2      1      
iter:  12  14:39:08         -4.49  -184.034326    2      1      

Converged after 12 iterations.

Dipole moment: (0.306395, -0.040108, 0.069724) |e|*Ang

Energy contributions relative to reference atoms: (reference = -24663.074771)

Kinetic:       +114.541644
Potential:     -122.352923
External:        +0.000000
XC:            -179.085041
Entropy (-ST):   -0.300229
Local:           +3.012108
--------------------------
Free energy:   -184.184441
Extrapolated:  -184.034326

Fermi level: -4.55315

 Band  Eigenvalues  Occupancy
    0    -23.37592    2.00000
    1    -22.47448    2.00000
    2    -21.57831    2.00000
    3    -20.90755    2.00000
    4    -20.42695    2.00000
    5    -20.22767    2.00000
    6    -19.61525    2.00000
    7    -19.37652    2.00000
    8    -18.27303    2.00000
    9    -18.17992    2.00000
   10    -17.66812    2.00000
   11    -17.33577    2.00000
   12    -16.46308    2.00000
   13    -16.10531    2.00000
   14    -15.15005    2.00000
   15    -14.62159    2.00000
   16    -14.44075    2.00000
   17    -13.76891    2.00000
   18    -13.39356    2.00000
   19    -12.56753    2.00000
   20    -12.36023    2.00000
   21    -12.27333    2.00000
   22    -11.79437    2.00000
   23    -11.30651    2.00000
   24    -11.03311    2.00000
   25    -10.73214    2.00000
   26    -10.67099    2.00000
   27    -10.62491    2.00000
   28    -10.32349    2.00000
   29     -9.94194    2.00000
   30     -9.55125    2.00000
   31     -9.41620    2.00000
   32     -9.18540    2.00000
   33     -8.68124    2.00000
   34     -8.42281    2.00000
   35     -7.98741    2.00000
   36     -7.50794    2.00000
   37     -7.16761    2.00000
   38     -7.12445    2.00000
   39     -7.07862    2.00000
   40     -6.37013    2.00000
   41     -6.29987    2.00000
   42     -6.28672    2.00000
   43     -5.82012    1.99999
   44     -5.61578    1.99995
   45     -5.16474    1.99559
   46     -4.75336    1.76203
   47     -4.70270    1.63380
   48     -4.46783    0.59752
   49     -4.03435    0.01110
   50     -3.06070    0.00000
   51     -2.91360    0.00000
   52     -2.78704    0.00000
   53     -2.72447    0.00000
   54     -2.58945    0.00000
   55     -1.38872    0.00000
   56     -1.09707    0.00000
   57     -0.74576    0.00000
   58     -0.30903    0.00000
   59      0.38245    0.00000
   60      0.78231    0.00000
   61      2.12268    0.00000
   62      2.22921    0.00000
   63      2.89931    0.00000
   64      3.29042    0.00000
   65      3.62363    0.00000
   66      4.33716    0.00000
   67      4.66216    0.00000
   68      4.85203    0.00000
   69      5.22303    0.00000
   70      5.31362    0.00000
   71      5.72942    0.00000
   72      6.20801    0.00000
   73      6.60551    0.00000
   74      6.85120    0.00000
   75      6.93133    0.00000
   76      7.22246    0.00000
   77      7.65556    0.00000
   78      7.92299    0.00000
   79      8.15045    0.00000
   80      8.37051    0.00000
   81      8.52610    0.00000
   82      8.62137    0.00000
   83      8.75677    0.00000
   84      9.00716    0.00000
   85      9.04135    0.00000
   86      9.19246    0.00000
   87      9.35081    0.00000
   88      9.48229    0.00000
   89      9.66873    0.00000
   90      9.69644    0.00000
   91      9.92258    0.00000
   92     10.02002    0.00000
   93     10.13056    0.00000
   94     10.30000    0.00000
   95     10.37886    0.00000
   96     10.40864    0.00000
   97     10.63706    0.00000


Forces in eV/Ang:
  0 C     0.00877    0.01391    0.02435
  1 C    -0.04229   -0.01507   -0.02693
  2 C     0.03783    0.02095   -0.02475
  3 C    -0.00810   -0.00030    0.00664
  4 C     0.00428   -0.00877    0.01063
  5 C     0.03283   -0.06067   -0.01986
  6 C     0.00474    0.02471   -0.07011
  7 C    -0.00487   -0.01927   -0.00145
  8 C     0.00025    0.01508    0.03802
  9 C     0.02229    0.00141    0.04536
 10 C    -0.03244    0.00438   -0.01941
 11 C    -0.02229   -0.02824    0.00373
 12 C    -0.06218   -0.00172    0.03149
 13 C     0.01788   -0.01294   -0.00936
 14 C     0.09368    0.00531   -0.00429
 15 C    -0.04507   -0.02110    0.02136
 16 C     0.06296    0.03048    0.01956
 17 C    -0.00643    0.04719   -0.01624
 18 C    -0.01026   -0.01961    0.00891
 19 C     0.02425    0.01852   -0.02422
 20 C     0.04031   -0.00594   -0.00042
 21 C    -0.02504   -0.02246   -0.00372
 22 C    -0.00688    0.01273   -0.01007
 23 C     0.04073   -0.01794    0.01153

