
  ___ ___ ___ _ _ _  
 |   |   |_  | | | | 
 | | | | | . | | | | 
 |__ |  _|___|_____|  1.3.0b1
 |___|_|             

User:   esb@s65n82.grendel.cscaa.dk
Date:   Thu Nov  9 12:02:52 2017
Arch:   x86_64
Pid:    67528
Python: 2.7.13
gpaw:   /home/esb/DFT/gpaw_git/gpaw
_gpaw:  /home/esb/DFT/gpaw_git/build/bin.linux-x86_64-2.7/gpaw-python
ase:    /home/esb/DFT/ase_git/ase (version 3.15.0b1)
numpy:  /comm/swstack/core/python/2.7.13/lib/python2.7/site-packages/numpy (version 1.13.3)
scipy:  /comm/swstack/core/python/2.7.13/lib/python2.7/site-packages/scipy (version 0.19.1)
units:  Angstrom and eV
cores:  16
Extra parameters: {'blacs': True}

Input parameters:
  basis: dzp
  gpts: [80 80 48]
  kpts: [1 1 1]
  maxiter: 99
  mixer: {backend: pulay,
          beta: 0.05,
          method: separate,
          nmaxold: 5,
          weight: 75}
  mode: lcao
  nbands: -50
  occupations: {name: fermi-dirac,
                width: 0.1}
  poissonsolver: {eps: 1e-07,
                  name: fd,
                  nn: 3,
                  relax: GS}
  xc: PBE

System changes: positions, numbers, cell, pbc, initial_charges, initial_magmoms 

Initialize ...

C-setup:
  name: Carbon
  id: 4aa54d4b901d75f77cc0ea3eec22967b
  Z: 6
  valence: 4
  core: 2
  charge: 0.0
  file: /home/esb/DFT/gpaw-setups-0.8.7929/C.PBE.gz
  cutoffs: 0.64(comp), 1.14(filt), 1.14(core), lmax=2
  valence states:
                energy  radius
    2s(2.00)   -13.751   0.635
    2p(2.00)    -5.284   0.635
    *s          13.461   0.635
    *p          21.927   0.635
    *d           0.000   0.635

  LCAO basis set for C:
    Name: dzp
    File: /home/esb/DFT/gpaw-setups-0.8.7929/C.dzp.basis.gz
    Number of radial functions: 5
    Number of spherical harmonics: 13
      l=0, rc=5.5469 Bohr: 2s-sz confined orbital
      l=1, rc=6.6719 Bohr: 2p-sz confined orbital
      l=0, rc=3.0312 Bohr: 2s-dz split-valence wave
      l=1, rc=3.7500 Bohr: 2p-dz split-valence wave
      l=2, rc=6.6719 Bohr: d-type Gaussian polarization

Reference energy: -24663.074771

Spin-paired calculation

Occupation numbers:
  Fermi-Dirac: width=0.1000 eV

Convergence criteria:
  Maximum total energy change: 0.0005 eV / electron
  Maximum integral of absolute density change: 0.0001 electrons
  Maximum integral of absolute eigenstate change: 4e-08 eV^2
  Maximum number of iterations: 99

Symmetries present (total): 1

  ( 1  0  0)
  ( 0  1  0)
  ( 0  0  1)

1 k-point (Gamma)
1 k-point in the irreducible part of the Brillouin zone
       k-points in crystal coordinates                weights
   0:     0.00000000    0.00000000    0.00000000          1/1

Wave functions: LCAO
  Diagonalizer: Serial LAPACK
  Atomic Correction: dense with blas
  Datatype: float
  Eigensolver: None 

LCAO using direct dense diagonalizer 

Densities:
  Coarse grid: 80*80*48 grid
  Fine grid: 160*160*96 grid
  Total Charge: 0.000000 

Density mixing:
  Method: separate
  Backend: pulay
  Linear mixing parameter: 0.05
  Mixing with 5 old densities
  Damping of long wave oscillations: 75 

Hamiltonian:
  XC and Coulomb potentials evaluated on a 160*160*96 grid
  Using the PBE Exchange-Correlation functional
  Interpolation: tri-quintic (5. degree polynomial)
  Poisson solver: Gauss-Seidel solver with 6 multi-grid levels
    Coarsest grid: 5 x 5 x 3 points
    Stencil: 6*3+1=19 point O(h^6) finite-difference Laplacian
    Max iterations: 1000
    Tolerance: 1.000000e-07 

Memory estimate:
  Process memory now: 77.55 MiB
  Calculator: 15.59 MiB
    Density: 6.13 MiB
      Arrays: 3.81 MiB
      Localized functions: 0.86 MiB
      Mixer: 1.46 MiB
    Hamiltonian: 5.40 MiB
      Arrays: 2.49 MiB
      XC: 0.00 MiB
      Poisson: 2.85 MiB
      vbar: 0.07 MiB
    Wavefunctions: 4.05 MiB
      C [qnM]: 0.23 MiB
      S, T [2 x qmm]: 1.49 MiB
      P [aqMi]: 0.01 MiB
      TCI: 0.00 MiB
      BasisFunctions: 2.33 MiB
      Eigensolver: 0.00 MiB

Total number of cores used: 16
Domain decomposition: 2 x 4 x 2

Number of atoms: 24
Number of atomic orbitals: 312
Number of bands in calculation: 98
Bands to converge: occupied states only
Number of valence electrons: 96

... initialized

Initializing position-dependent things.

Density initialized from atomic densities
           .--------------------------------------.  
          /|                                      |  
         / |                                      |  
        /  |                                      |  
       /   |                                      |  
      /    |                                      |  
     /     |                                      |  
    /      |                                      |  
   /       |                                      |  
  /        |                                      |  
 *         |     C  C  C  C  C                    |  
 |         |         C   C  C    C                |  
 |         .---------C--C-----CC------------------.  
 |        /        C CC C  C                     /   
 |       /      CCC                             /    
 |      /                                      /     
 |     /                                      /      
 |    /                                      /       
 |   /                                      /        
 |  /                                      /         
 | /                                      /          
 |/                                      /           
 *--------------------------------------*            

Positions:
   0 C      7.813038    7.306786    5.140267
   1 C      8.917301    8.151583    4.950659
   2 C      6.569235    9.809763    5.185886
   3 C     11.048060    8.827978    4.617804
   4 C     10.284975    7.575192    4.804414
   5 C      7.743082   10.209563    4.987110
   6 C      9.020752    9.647616    4.845610
   7 C      5.655173    8.735896    5.357004
   8 C      6.342271    7.456986    5.312254
   9 C      4.231077    8.847378    5.537609
  10 C     10.502401    6.227793    4.872294
  11 C      9.419030    5.315235    5.066994
  12 C      8.104981    5.894490    5.177121
  13 C      8.661514    3.765395    5.692892
  14 C      7.260345    3.892734    5.306648
  15 C      6.941379    5.314865    5.231015
  16 C      6.160459    3.205060    4.767502
  17 C      4.879210    9.520964    2.150648
  18 C      4.395580    8.393926    2.488785
  19 C      6.055589   10.098330    2.481111
  20 C      4.491356    7.195101    3.206968
  21 C      4.772934    5.023213    3.949633
  22 C      5.697217    7.193218    4.154157
  23 C      5.790414    5.838085    4.604329

Unit cell:
           periodic     x           y           z      points  spacing
  1. axis:    yes   16.000000    0.000000    0.000000    80     0.2000
  2. axis:    yes    0.000000   16.000000    0.000000    80     0.2000
  3. axis:    yes    0.000000    0.000000   10.000000    48     0.2083

Effective grid spacing dv^(1/3) = 0.2027

                     log10-error:    total        iterations:
           time      wfs    density  energy       fermi  poisson
iter:   1  12:02:54          +inf  -166.189699    2      6      
iter:   2  12:02:54         -0.87  -165.237991    4      3      
iter:   3  12:02:55         -0.91  -163.785687    4      3      
iter:   4  12:02:56         -1.00  -162.776365    4      4      
iter:   5  12:02:56         -1.15  -162.417599    3      2      
iter:   6  12:02:57         -1.23  -162.273966    3      3      
iter:   7  12:02:57         -1.47  -162.178647    3      3      
iter:   8  12:02:58         -1.60  -162.088220    3      3      
iter:   9  12:02:59         -1.78  -162.055618    3      2      
iter:  10  12:02:59         -1.90  -162.037984    3      3      
iter:  11  12:03:00         -2.08  -162.033461    3      2      
iter:  12  12:03:01         -2.18  -162.028466    3      2      
iter:  13  12:03:01         -2.32  -162.025094    3      2      
iter:  14  12:03:02         -2.47  -162.021110    3      2      
iter:  15  12:03:02         -2.66  -162.031033    3      1      
iter:  16  12:03:03         -2.73  -162.020995    3      2      
iter:  17  12:03:03         -3.00  -162.025080    2      1      
iter:  18  12:03:04         -3.10  -162.019463    2      2      
iter:  19  12:03:05         -3.51  -162.015120    2      1      
iter:  20  12:03:05         -3.61  -162.017456    2      1      
iter:  21  12:03:06         -3.86  -162.019246    2      1      
iter:  22  12:03:06         -3.99  -162.017526    2      1      
iter:  23  12:03:07         -4.14  -162.018243    2      1      

Converged after 23 iterations.

Dipole moment: (0.006859, 0.103467, 0.156751) |e|*Ang

Energy contributions relative to reference atoms: (reference = -24663.074771)

Kinetic:       +112.723740
Potential:     -115.721141
External:        +0.000000
XC:            -161.663286
Entropy (-ST):   -0.408956
Local:           +2.846922
--------------------------
Free energy:   -162.222721
Extrapolated:  -162.018243

Fermi level: -4.71978

 Band  Eigenvalues  Occupancy
    0    -24.75958    2.00000
    1    -22.81930    2.00000
    2    -21.96272    2.00000
    3    -20.92573    2.00000
    4    -20.77562    2.00000
    5    -20.23387    2.00000
    6    -19.97102    2.00000
    7    -19.00695    2.00000
    8    -18.32647    2.00000
    9    -17.95074    2.00000
   10    -17.63930    2.00000
   11    -17.19630    2.00000
   12    -16.45565    2.00000
   13    -15.64481    2.00000
   14    -15.19798    2.00000
   15    -15.01885    2.00000
   16    -14.71634    2.00000
   17    -14.26679    2.00000
   18    -13.81806    2.00000
   19    -12.79085    2.00000
   20    -12.40613    2.00000
   21    -11.90807    2.00000
   22    -11.75948    2.00000
   23    -11.30702    2.00000
   24    -11.06291    2.00000
   25    -10.69543    2.00000
   26    -10.22288    2.00000
   27     -9.64443    2.00000
   28     -9.14617    2.00000
   29     -9.00814    2.00000
   30     -8.79072    2.00000
   31     -8.69857    2.00000
   32     -8.39317    2.00000
   33     -8.28312    2.00000
   34     -7.65612    2.00000
   35     -7.50036    2.00000
   36     -7.44920    2.00000
   37     -7.22432    2.00000
   38     -7.14087    2.00000
   39     -6.86991    2.00000
   40     -6.64191    2.00000
   41     -6.49579    2.00000
   42     -6.09362    2.00000
   43     -5.76908    1.99994
   44     -5.41115    1.99801
   45     -5.33445    1.99573
   46     -5.02584    1.91047
   47     -4.76091    1.20282
   48     -4.59965    0.46251
   49     -4.57190    0.37121
   50     -4.35817    0.05237
   51     -4.14311    0.00624
   52     -3.91824    0.00066
   53     -3.60926    0.00003
   54     -3.29736    0.00000
   55     -3.22209    0.00000
   56     -2.46440    0.00000
   57     -2.32970    0.00000
   58     -2.02473    0.00000
   59     -1.77616    0.00000
   60     -1.65386    0.00000
   61     -1.36075    0.00000
   62     -0.72094    0.00000
   63     -0.40128    0.00000
   64     -0.10217    0.00000
   65      0.45391    0.00000
   66      1.59823    0.00000
   67      1.96184    0.00000
   68      2.53892    0.00000
   69      2.90657    0.00000
   70      3.21567    0.00000
   71      4.28621    0.00000
   72      4.42978    0.00000
   73      4.79603    0.00000
   74      5.62400    0.00000
   75      6.04418    0.00000
   76      6.20663    0.00000
   77      6.46996    0.00000
   78      6.68471    0.00000
   79      7.07729    0.00000
   80      7.50986    0.00000
   81      7.74599    0.00000
   82      7.87056    0.00000
   83      8.15099    0.00000
   84      8.24600    0.00000
   85      8.45135    0.00000
   86      8.71443    0.00000
   87      8.98959    0.00000
   88      9.10147    0.00000
   89      9.21050    0.00000
   90      9.30777    0.00000
   91      9.41930    0.00000
   92      9.51284    0.00000
   93      9.60730    0.00000
   94      9.69931    0.00000
   95      9.74910    0.00000
   96      9.93489    0.00000
   97      9.99402    0.00000


Forces in eV/Ang:
  0 C     1.93097   -0.11947    0.81869
  1 C    -0.37414    1.93699   -0.02768
  2 C    -2.60019   -0.29233    0.16157
  3 C    -1.79759   -0.67697    0.30245
  4 C     0.46262    3.25020   -0.26158
  5 C     3.37828   -0.55777   -0.14727
  6 C    -0.42672   -2.24642    0.14534
  7 C    -2.74124    4.60722    3.42357
  8 C     2.56110    5.08718    0.28553
  9 C     2.25249    0.53055   -0.20242
 10 C    -2.28545   -3.83338    0.87094
 11 C    -0.13950   -0.91979    1.13369
 12 C     3.46833    5.70723   -0.40058
 13 C     1.92340    1.07878   -1.59597
 14 C    -1.11636   -2.41121   -0.08204
 15 C    -3.17243   -4.67857   -0.38441
 16 C     1.25261    0.68414    0.55416
 17 C     2.15943    3.56311   -0.84693
 18 C     0.03765   -5.46848    2.89181
 19 C    -1.44914   -0.12847   -0.74198
 20 C     1.32840    2.33863    0.31978
 21 C     0.86975    1.14172    0.67752
 22 C    -4.10991   -4.80008   -5.30286
 23 C    -1.42360   -3.76447   -1.60604

System changes: positions 

Initializing position-dependent things.

Density initialized from wave functions
           .--------------------------------------.  
          /|                                      |  
         / |                                      |  
        /  |                                      |  
       /   |                                      |  
      /    |                                      |  
     /     |                                      |  
    /      |                                      |  
   /       |                                      |  
  /        |                                      |  
 *         |     C  C  C  C  C                    |  
 |         |         C   C  C  C C                |  
 |         .---------C--C-----C-------------------.  
 |        /        C CC C  C                     /   
 |       /      CCC                             /    
 |      /                                      /     
 |     /                                      /      
 |    /                                      /       
 |   /                                      /        
 |  /                                      /         
 | /                                      /          
 |/                                      /           
 *--------------------------------------*            

Positions:
   0 C      7.822401    7.306207    5.144236
   1 C      8.915487    8.160975    4.950525
   2 C      6.556627    9.808346    5.186670
   3 C     11.039343    8.824695    4.619271
   4 C     10.287219    7.590951    4.803146
   5 C      7.759463   10.206858    4.986396
   6 C      9.018683    9.636724    4.846315
   7 C      5.641881    8.758236    5.373605
   8 C      6.354689    7.481653    5.313638
   9 C      4.241999    8.849950    5.536628
  10 C     10.491319    6.209205    4.876517
  11 C      9.418353    5.310775    5.072491
  12 C      8.121798    5.922164    5.175179
  13 C      8.670840    3.770626    5.685154
  14 C      7.254932    3.881042    5.306251
  15 C      6.925996    5.292179    5.229151
  16 C      6.166533    3.208377    4.770189
  17 C      4.889681    9.538241    2.146542
  18 C      4.395763    8.367410    2.502807
  19 C      6.048563   10.097708    2.477513
  20 C      4.497797    7.206440    3.208519
  21 C      4.777151    5.028749    3.952918
  22 C      5.677288    7.169943    4.128444
  23 C      5.783511    5.819832    4.596542

Unit cell:
           periodic     x           y           z      points  spacing
  1. axis:    yes   16.000000    0.000000    0.000000    80     0.2000
  2. axis:    yes    0.000000   16.000000    0.000000    80     0.2000
  3. axis:    yes    0.000000    0.000000   10.000000    48     0.2083

Effective grid spacing dv^(1/3) = 0.2027

                     log10-error:    total        iterations:
           time      wfs    density  energy       fermi  poisson
iter:   1  12:03:09          +inf  -163.698747    3      5      
iter:   2  12:03:09         -1.81  -163.631761    2      2      
iter:   3  12:03:10         -1.96  -163.586579    3      2      
iter:   4  12:03:11         -2.12  -163.566675    3      2      
iter:   5  12:03:11         -2.28  -163.561768    2      2      
iter:   6  12:03:12         -2.43  -163.559935    2      2      
iter:   7  12:03:12         -2.61  -163.559547    2      2      
iter:   8  12:03:13         -2.77  -163.558889    2      2      
iter:   9  12:03:14         -3.05  -163.558069    2      1      
iter:  10  12:03:14         -3.16  -163.558174    2      1      
iter:  11  12:03:15         -3.37  -163.559212    2      1      
iter:  12  12:03:15         -3.46  -163.559204    2      1      
iter:  13  12:03:16         -3.61  -163.559264    2      1      
iter:  14  12:03:16         -3.69  -163.559382    2      1      
iter:  15  12:03:17         -3.73  -163.559457    2      1      
iter:  16  12:03:18         -3.80  -163.559301    2      1      
iter:  17  12:03:18         -3.88  -163.559293    2      1      
iter:  18  12:03:19         -3.96  -163.559101    2      1      
iter:  19  12:03:19         -4.16  -163.559263    2      1      

Converged after 19 iterations.

Dipole moment: (0.058871, 0.051356, 0.222868) |e|*Ang

Energy contributions relative to reference atoms: (reference = -24663.074771)

Kinetic:       +109.423748
Potential:     -113.866734
External:        +0.000000
XC:            -161.755643
Entropy (-ST):   -0.397193
Local:           +2.837963
--------------------------
Free energy:   -163.757860
Extrapolated:  -163.559263

Fermi level: -4.74404

 Band  Eigenvalues  Occupancy
    0    -24.43208    2.00000
    1    -22.68219    2.00000
    2    -22.06477    2.00000
    3    -20.97423    2.00000
    4    -20.66556    2.00000
    5    -20.36071    2.00000
    6    -19.94407    2.00000
    7    -19.10343    2.00000
    8    -18.41043    2.00000
    9    -17.94965    2.00000
   10    -17.71586    2.00000
   11    -17.29531    2.00000
   12    -16.57618    2.00000
   13    -15.66807    2.00000
   14    -15.17354    2.00000
   15    -14.95996    2.00000
   16    -14.74855    2.00000
   17    -14.16595    2.00000
   18    -13.84896    2.00000
   19    -12.90056    2.00000
   20    -12.45020    2.00000
   21    -11.95738    2.00000
   22    -11.64818    2.00000
   23    -11.41107    2.00000
   24    -11.05017    2.00000
   25    -10.71369    2.00000
   26    -10.27584    2.00000
   27     -9.69601    2.00000
   28     -9.18883    2.00000
   29     -9.13523    2.00000
   30     -8.83622    2.00000
   31     -8.61915    2.00000
   32     -8.39622    2.00000
   33     -8.22946    2.00000
   34     -7.67619    2.00000
   35     -7.49678    2.00000
   36     -7.46527    2.00000
   37     -7.32357    2.00000
   38     -7.11167    2.00000
   39     -6.83081    2.00000
   40     -6.56536    2.00000
   41     -6.52137    2.00000
   42     -6.11250    2.00000
   43     -5.78661    1.99994
   44     -5.46592    1.99854
   45     -5.38471    1.99670
   46     -5.05604    1.91542
   47     -4.79483    1.24863
   48     -4.60429    0.39644
   49     -4.60128    0.38695
   50     -4.38057    0.05143
   51     -4.14471    0.00498
   52     -3.97944    0.00096
   53     -3.57815    0.00002
   54     -3.25513    0.00000
   55     -3.18233    0.00000
   56     -2.48725    0.00000
   57     -2.28006    0.00000
   58     -2.05345    0.00000
   59     -1.75188    0.00000
   60     -1.53190    0.00000
   61     -1.30769    0.00000
   62     -0.67654    0.00000
   63     -0.35220    0.00000
   64     -0.05153    0.00000
   65      0.52602    0.00000
   66      1.60527    0.00000
   67      2.07349    0.00000
   68      2.49605    0.00000
   69      2.95435    0.00000
   70      3.31577    0.00000
   71      4.32951    0.00000
   72      4.51285    0.00000
   73      4.74500    0.00000
   74      5.70655    0.00000
   75      6.10814    0.00000
   76      6.22293    0.00000
   77      6.56452    0.00000
   78      6.78816    0.00000
   79      7.14126    0.00000
   80      7.57980    0.00000
   81      7.78458    0.00000
   82      8.00706    0.00000
   83      8.19308    0.00000
   84      8.27482    0.00000
   85      8.52890    0.00000
   86      8.79717    0.00000
   87      8.99848    0.00000
   88      9.12059    0.00000
   89      9.17191    0.00000
   90      9.29578    0.00000
   91      9.41260    0.00000
   92      9.48715    0.00000
   93      9.61165    0.00000
   94      9.73613    0.00000
   95      9.80527    0.00000
   96      9.95913    0.00000
   97     10.02060    0.00000


Forces in eV/Ang:
  0 C     1.29786    0.46527    0.78955
  1 C     0.19709    1.66638   -0.07655
  2 C    -0.47766    0.82604   -0.21883
  3 C    -1.58163   -0.42494    0.25830
  4 C     0.40844    1.64405   -0.13925
  5 C     1.28119   -0.88205    0.19064
  6 C    -0.33862   -1.96807    0.11078
  7 C    -1.73297    3.59614    3.06858
  8 C     1.19848    4.48862   -1.56466
  9 C     1.38864    0.59667   -0.05217
 10 C    -1.89438   -2.34387    0.73881
 11 C    -0.38106   -1.08212    1.12642
 12 C     0.59038    3.15857   -0.19115
 13 C     1.78677    1.10558   -1.59003
 14 C    -0.22763   -2.04635    0.14437
 15 C    -0.61033   -2.69847   -0.42128
 16 C     0.76613    0.33195    0.31471
 17 C     0.29825    0.64632   -0.26754
 18 C     0.98540   -2.00738    1.50410
 19 C    -0.65823    0.23431   -0.53220
 20 C     1.07039    1.69226    0.45693
 21 C     0.48457    0.59382    0.44915
 22 C    -2.64773   -4.31899   -2.59002
 23 C    -1.05232   -3.24584   -1.50300

System changes: positions 

Initializing position-dependent things.

Density initialized from wave functions
           .--------------------------------------.  
          /|                                      |  
         / |                                      |  
        /  |                                      |  
       /   |                                      |  
      /    |                                      |  
     /     |                                      |  
    /      |                                      |  
   /       |                                      |  
  /        |                                      |  
 *         |     C  C  C  C  C                    |  
 |         |         C   C  C  C C                |  
 |         .---------C---C----C-------------------.  
 |        /        C CC  C C                     /   
 |       /      CCC                             /    
 |      /                                      /     
 |     /                                      /      
 |    /                                      /       
 |   /                                      /        
 |  /                                      /         
 | /                                      /          
 |/                                      /           
 *--------------------------------------*            

Positions:
   0 C      7.831214    7.311151    5.150380
   1 C      8.918292    8.173483    4.949815
   2 C      6.557535    9.817298    5.184113
   3 C     11.027382    8.821908    4.621205
   4 C     10.290311    7.600349    4.802320
   5 C      7.764929   10.199210    4.988637
   6 C      9.016214    9.621861    4.847110
   7 C      5.630471    8.784290    5.396952
   8 C      6.361118    7.515632    5.297269
   9 C      4.251020    8.854787    5.536548
  10 C     10.477283    6.194049    4.882035
  11 C      9.414826    5.301910    5.081332
  12 C      8.120116    5.941398    5.174136
  13 C      8.684589    3.779378    5.672665
  14 C      7.255095    3.865754    5.307883
  15 C      6.926828    5.275313    5.225757
  16 C      6.171487    3.210213    4.772137
  17 C      4.887936    9.536913    2.145711
  18 C      4.405594    8.359232    2.511584
  19 C      6.045125   10.100347    2.473790
  20 C      4.505647    7.218326    3.212413
  21 C      4.780115    5.032214    3.955948
  22 C      5.659683    7.137040    4.114041
  23 C      5.776053    5.795450    4.584950

Unit cell:
           periodic     x           y           z      points  spacing
  1. axis:    yes   16.000000    0.000000    0.000000    80     0.2000
  2. axis:    yes    0.000000   16.000000    0.000000    80     0.2000
  3. axis:    yes    0.000000    0.000000   10.000000    48     0.2083

Effective grid spacing dv^(1/3) = 0.2027

                     log10-error:    total        iterations:
           time      wfs    density  energy       fermi  poisson
iter:   1  12:03:21          +inf  -164.731645    3      5      
iter:   2  12:03:22         -1.94  -164.692580    3      2      
iter:   3  12:03:22         -2.08  -164.670889    3      2      
iter:   4  12:03:23         -2.21  -164.656239    3      2      
iter:   5  12:03:23         -2.39  -164.652644    3      2      
iter:   6  12:03:24         -2.56  -164.651617    3      2      
iter:   7  12:03:25         -2.77  -164.652080    3      2      
iter:   8  12:03:25         -2.93  -164.652050    3      2      
iter:   9  12:03:26         -3.17  -164.651313    2      1      
iter:  10  12:03:26         -3.30  -164.652028    2      1      
iter:  11  12:03:27         -3.46  -164.652654    2      1      
iter:  12  12:03:28         -3.55  -164.652184    2      1      
iter:  13  12:03:28         -3.76  -164.652599    2      1      
iter:  14  12:03:29         -3.89  -164.652637    2      1      
iter:  15  12:03:29         -3.97  -164.652370    2      1      
iter:  16  12:03:30         -4.19  -164.652727    2      1      

Converged after 16 iterations.

Dipole moment: (0.126281, 0.028701, 0.257183) |e|*Ang

Energy contributions relative to reference atoms: (reference = -24663.074771)

Kinetic:       +112.270422
Potential:     -116.627253
External:        +0.000000
XC:            -162.969488
Entropy (-ST):   -0.374857
Local:           +2.861020
--------------------------
Free energy:   -164.840156
Extrapolated:  -164.652727

Fermi level: -4.76647

 Band  Eigenvalues  Occupancy
    0    -24.18729    2.00000
    1    -22.59372    2.00000
    2    -22.16506    2.00000
    3    -21.02898    2.00000
    4    -20.66400    2.00000
    5    -20.45875    2.00000
    6    -19.94938    2.00000
    7    -19.19605    2.00000
    8    -18.43298    2.00000
    9    -17.89127    2.00000
   10    -17.80792    2.00000
   11    -17.38098    2.00000
   12    -16.65818    2.00000
   13    -15.72031    2.00000
   14    -15.17214    2.00000
   15    -14.98297    2.00000
   16    -14.71515    2.00000
   17    -14.07678    2.00000
   18    -13.86688    2.00000
   19    -12.95095    2.00000
   20    -12.50505    2.00000
   21    -11.98921    2.00000
   22    -11.55792    2.00000
   23    -11.46653    2.00000
   24    -11.05564    2.00000
   25    -10.73845    2.00000
   26    -10.34980    2.00000
   27     -9.74901    2.00000
   28     -9.34616    2.00000
   29     -9.19188    2.00000
   30     -8.91268    2.00000
   31     -8.59197    2.00000
   32     -8.41847    2.00000
   33     -8.22079    2.00000
   34     -7.71592    2.00000
   35     -7.51520    2.00000
   36     -7.46593    2.00000
   37     -7.39649    2.00000
   38     -7.06634    2.00000
   39     -6.80252    2.00000
   40     -6.61216    2.00000
   41     -6.48028    2.00000
   42     -6.12456    2.00000
   43     -5.78547    1.99992
   44     -5.45363    1.99793
   45     -5.40912    1.99677
   46     -5.11320    1.93948
   47     -4.82523    1.28559
   48     -4.62850    0.40209
   49     -4.60602    0.33469
   50     -4.37590    0.03946
   51     -4.12079    0.00313
   52     -3.99956    0.00093
   53     -3.50109    0.00001
   54     -3.21980    0.00000
   55     -3.06164    0.00000
   56     -2.49740    0.00000
   57     -2.17802    0.00000
   58     -2.01272    0.00000
   59     -1.70514    0.00000
   60     -1.43417    0.00000
   61     -1.26250    0.00000
   62     -0.62748    0.00000
   63     -0.27297    0.00000
   64      0.01248    0.00000
   65      0.68551    0.00000
   66      1.64417    0.00000
   67      2.27936    0.00000
   68      2.53368    0.00000
   69      3.04451    0.00000
   70      3.49942    0.00000
   71      4.31410    0.00000
   72      4.69253    0.00000
   73      4.89396    0.00000
   74      5.74193    0.00000
   75      6.08066    0.00000
   76      6.24652    0.00000
   77      6.59238    0.00000
   78      6.86971    0.00000
   79      7.23729    0.00000
   80      7.64174    0.00000
   81      7.86580    0.00000
   82      8.09825    0.00000
   83      8.25337    0.00000
   84      8.31924    0.00000
   85      8.61288    0.00000
   86      8.83520    0.00000
   87      8.94831    0.00000
   88      9.12784    0.00000
   89      9.15049    0.00000
   90      9.32475    0.00000
   91      9.37196    0.00000
   92      9.51652    0.00000
   93      9.62866    0.00000
   94      9.74389    0.00000
   95      9.84862    0.00000
   96      9.96717    0.00000
   97     10.05504    0.00000


Forces in eV/Ang:
  0 C     0.51485    0.88332    0.71850
  1 C     0.44138    1.23600   -0.01229
  2 C    -0.32729    0.99546   -0.18714
  3 C    -1.39231   -0.17874    0.20700
  4 C     0.38562    0.48739   -0.06063
  5 C     1.03218   -0.65227    0.22723
  6 C    -0.30299   -1.59248    0.05049
  7 C    -0.68566    2.99983    2.53083
  8 C     0.54353    4.03737   -2.47431
  9 C     0.62007    0.60989    0.08578
 10 C    -1.59909   -1.36638    0.64569
 11 C    -0.81455   -1.14239    1.14577
 12 C     0.04970    1.82315   -0.09968
 13 C     1.74751    1.13226   -1.53945
 14 C     0.43146   -1.63383    0.27510
 15 C    -0.36382   -1.80146   -0.59382
 16 C     0.46303    0.03440    0.17589
 17 C     0.25991    0.50842   -0.17331
 18 C     0.92836   -1.29869    1.04822
 19 C    -0.65766    0.23055   -0.54361
 20 C     0.73966    1.26283    0.40013
 21 C    -0.06629   -0.08052    0.14130
 22 C    -1.59376   -3.65271   -0.81593
 23 C    -0.30377   -2.86636   -1.14281

System changes: positions 

Initializing position-dependent things.

Density initialized from wave functions
           .--------------------------------------.  
          /|                                      |  
         / |                                      |  
        /  |                                      |  
       /   |                                      |  
      /    |                                      |  
     /     |                                      |  
    /      |                                      |  
   /       |                                      |  
  /        |                                      |  
 *         |     C  C  C  C  C                    |  
 |         |         C   C  C  C C                |  
 |         .---------C---C----C-------------------.  
 |        /        C CC  C C                     /   
 |       /      CCC                             /    
 |      /                                      /     
 |     /                                      /      
 |    /                                      /       
 |   /                                      /        
 |  /                                      /         
 | /                                      /          
 |/                                      /           
 *--------------------------------------*            

Positions:
   0 C      7.833967    7.319473    5.156238
   1 C      8.922677    8.182975    4.949775
   2 C      6.556360    9.826528    5.182363
   3 C     11.016206    8.820935    4.622825
   4 C     10.293453    7.601722    4.802006
   5 C      7.771842   10.193912    4.990793
   6 C      9.013799    9.609328    4.847421
   7 C      5.626914    8.807754    5.417010
   8 C      6.363838    7.548198    5.274203
   9 C      4.254525    8.859923    5.537555
  10 C     10.464650    6.185029    4.887191
  11 C      9.407269    5.292215    5.090890
  12 C      8.117943    5.953037    5.173570
  13 C      8.698988    3.788855    5.659932
  14 C      7.260197    3.852985    5.310504
  15 C      6.925763    5.262863    5.220543
  16 C      6.174596    3.209847    4.773250
  17 C      4.888877    9.539116    2.144769
  18 C      4.413830    8.351621    2.518776
  19 C      6.040149   10.102487    2.469381
  20 C      4.511161    7.227807    3.215746
  21 C      4.778524    5.030224    3.956534
  22 C      5.648864    7.107913    4.111521
  23 C      5.774842    5.772474    4.576027

Unit cell:
           periodic     x           y           z      points  spacing
  1. axis:    yes   16.000000    0.000000    0.000000    80     0.2000
  2. axis:    yes    0.000000   16.000000    0.000000    80     0.2000
  3. axis:    yes    0.000000    0.000000   10.000000    48     0.2083

Effective grid spacing dv^(1/3) = 0.2027

                     log10-error:    total        iterations:
           time      wfs    density  energy       fermi  poisson
iter:   1  12:03:32          +inf  -165.490724    3      5      
iter:   2  12:03:32         -2.07  -165.473335    2      2      
iter:   3  12:03:33         -2.20  -165.462978    2      2      
iter:   4  12:03:33         -2.33  -165.455765    2      2      
iter:   5  12:03:34         -2.50  -165.452302    3      2      
iter:   6  12:03:35         -2.74  -165.453093    2      2      
iter:   7  12:03:35         -2.89  -165.453428    2      2      
iter:   8  12:03:36         -3.12  -165.450722    2      1      
iter:   9  12:03:36         -3.26  -165.451190    2      1      
iter:  10  12:03:37         -3.51  -165.453836    2      1      
iter:  11  12:03:37         -3.59  -165.453464    2      1      
iter:  12  12:03:38         -3.73  -165.453551    2      1      
iter:  13  12:03:39         -3.87  -165.453482    2      1      
iter:  14  12:03:39         -3.99  -165.453528    2      1      
iter:  15  12:03:40         -4.18  -165.453797    2      1      

Converged after 15 iterations.

Dipole moment: (0.187599, 0.006448, 0.300842) |e|*Ang

Energy contributions relative to reference atoms: (reference = -24663.074771)

Kinetic:       +114.361213
Potential:     -118.597069
External:        +0.000000
XC:            -163.905542
Entropy (-ST):   -0.364592
Local:           +2.869897
--------------------------
Free energy:   -165.636093
Extrapolated:  -165.453797

Fermi level: -4.78135

 Band  Eigenvalues  Occupancy
    0    -24.05579    2.00000
    1    -22.54488    2.00000
    2    -22.24834    2.00000
    3    -21.07605    2.00000
    4    -20.66432    2.00000
    5    -20.49026    2.00000
    6    -19.94998    2.00000
    7    -19.25005    2.00000
    8    -18.44646    2.00000
    9    -17.86415    2.00000
   10    -17.84214    2.00000
   11    -17.44334    2.00000
   12    -16.71715    2.00000
   13    -15.74609    2.00000
   14    -15.18623    2.00000
   15    -14.99242    2.00000
   16    -14.67851    2.00000
   17    -14.03286    2.00000
   18    -13.88301    2.00000
   19    -12.96741    2.00000
   20    -12.54806    2.00000
   21    -12.02984    2.00000
   22    -11.55407    2.00000
   23    -11.49069    2.00000
   24    -11.07274    2.00000
   25    -10.77714    2.00000
   26    -10.41338    2.00000
   27     -9.79749    2.00000
   28     -9.46447    2.00000
   29     -9.21748    2.00000
   30     -8.97063    2.00000
   31     -8.58061    2.00000
   32     -8.41837    2.00000
   33     -8.20227    2.00000
   34     -7.76316    2.00000
   35     -7.54622    2.00000
   36     -7.47887    2.00000
   37     -7.42025    2.00000
   38     -7.03333    2.00000
   39     -6.78849    2.00000
   40     -6.64154    2.00000
   41     -6.41340    2.00000
   42     -6.13846    2.00000
   43     -5.78537    1.99991
   44     -5.43589    1.99713
   45     -5.41642    1.99651
   46     -5.15912    1.95527
   47     -4.84018    1.28596
   48     -4.65003    0.42389
   49     -4.61003    0.30550
   50     -4.37169    0.03272
   51     -4.10198    0.00224
   52     -4.00780    0.00087
   53     -3.41796    0.00000
   54     -3.21122    0.00000
   55     -2.94692    0.00000
   56     -2.51067    0.00000
   57     -2.12305    0.00000
   58     -1.99153    0.00000
   59     -1.68204    0.00000
   60     -1.32905    0.00000
   61     -1.18463    0.00000
   62     -0.59403    0.00000
   63     -0.21901    0.00000
   64      0.05637    0.00000
   65      0.84133    0.00000
   66      1.69134    0.00000
   67      2.43516    0.00000
   68      2.58593    0.00000
   69      3.11350    0.00000
   70      3.65972    0.00000
   71      4.29683    0.00000
   72      4.79978    0.00000
   73      5.07739    0.00000
   74      5.71702    0.00000
   75      6.05446    0.00000
   76      6.27265    0.00000
   77      6.62021    0.00000
   78      6.91015    0.00000
   79      7.29299    0.00000
   80      7.71539    0.00000
   81      7.94811    0.00000
   82      8.12338    0.00000
   83      8.28596    0.00000
   84      8.37156    0.00000
   85      8.65807    0.00000
   86      8.84607    0.00000
   87      8.90302    0.00000
   88      9.12761    0.00000
   89      9.15462    0.00000
   90      9.33668    0.00000
   91      9.36490    0.00000
   92      9.53736    0.00000
   93      9.64881    0.00000
   94      9.74253    0.00000
   95      9.89680    0.00000
   96      9.98253    0.00000
   97     10.06509    0.00000


Forces in eV/Ang:
  0 C     0.08550    0.95700    0.63981
  1 C     0.47966    0.78225    0.10335
  2 C     0.16029    1.26795   -0.22709
  3 C    -1.25193   -0.04411    0.16807
  4 C     0.30267   -0.08299   -0.02370
  5 C     0.60621   -0.49680    0.27379
  6 C    -0.20189   -1.20989   -0.01566
  7 C    -0.28902    2.50848    2.13350
  8 C     0.34662    3.67669   -2.72734
  9 C     0.23838    0.57589    0.14647
 10 C    -1.37106   -0.94645    0.60755
 11 C    -1.00779   -1.19122    1.14842
 12 C    -0.45571    1.14590   -0.03804
 13 C     1.74426    1.18357   -1.51933
 14 C     0.69562   -1.36129    0.26698
 15 C    -0.00440   -1.37418   -0.61525
 16 C     0.42933   -0.07751    0.17649
 17 C    -0.05933    0.07865   -0.10200
 18 C     0.94566   -0.48400    0.61551
 19 C    -0.41826    0.35149   -0.47634
 20 C     0.57978    0.82055    0.48758
 21 C    -0.40085   -0.51963   -0.03692
 22 C    -1.14415   -3.01993    0.07213
 23 C    -0.07044   -2.55850   -1.03922

System changes: positions 

Initializing position-dependent things.

Density initialized from wave functions
           .--------------------------------------.  
          /|                                      |  
         / |                                      |  
        /  |                                      |  
       /   |                                      |  
      /    |                                      |  
     /     |                                      |  
    /      |                                      |  
   /       |                                      |  
  /        |                                      |  
 *         |     C  C  C  C  C                    |  
 |         |         C   C  C  C C                |  
 |         .---------C---C----C-------------------.  
 |        /        C CC  C C                     /   
 |       /      CCC                             /    
 |      /                                      /     
 |     /                                      /      
 |    /                                      /       
 |   /                                      /        
 |  /                                      /         
 | /                                      /          
 |/                                      /           
 *--------------------------------------*            

Positions:
   0 C      7.833977    7.327807    5.161718
   1 C      8.926716    8.188862    4.951023
   2 C      6.558051    9.837938    5.180423
   3 C     11.005359    8.820753    4.624238
   4 C     10.295938    7.600386    4.801825
   5 C      7.777117   10.190060    4.993176
   6 C      9.012238    9.599460    4.847127
   7 C      5.624787    8.829229    5.435087
   8 C      6.367139    7.580160    5.250381
   9 C      4.256131    8.864899    5.538926
  10 C     10.452886    6.176912    4.892550
  11 C      9.397990    5.281611    5.101077
  12 C      8.114014    5.962791    5.173285
  13 C      8.714513    3.799469    5.646509
  14 C      7.266552    3.841425    5.312717
  15 C      6.925412    5.250746    5.215075
  16 C      6.178594    3.209071    4.774955
  17 C      4.888397    9.540090    2.143761
  18 C      4.421802    8.347756    2.523796
  19 C      6.036709   10.105757    2.465242
  20 C      4.516038    7.234250    3.220249
  21 C      4.774325    5.024784    3.955877
  22 C      5.639078    7.082543    4.112995
  23 C      5.774563    5.750328    4.566995

Unit cell:
           periodic     x           y           z      points  spacing
  1. axis:    yes   16.000000    0.000000    0.000000    80     0.2000
  2. axis:    yes    0.000000   16.000000    0.000000    80     0.2000
  3. axis:    yes    0.000000    0.000000   10.000000    48     0.2083

Effective grid spacing dv^(1/3) = 0.2027

                     log10-error:    total        iterations:
           time      wfs    density  energy       fermi  poisson
iter:   1  12:03:42          +inf  -166.150303    3      5      
iter:   2  12:03:42         -2.17  -166.139283    2      1      
iter:   3  12:03:43         -2.27  -166.134219    3      2      
iter:   4  12:03:43         -2.43  -166.130383    2      2      
iter:   5  12:03:44         -2.57  -166.130327    3      2      
iter:   6  12:03:45         -2.66  -166.128787    3      2      
iter:   7  12:03:45         -2.69  -166.128515    2      2      
iter:   8  12:03:46         -3.10  -166.126639    2      1      
iter:   9  12:03:46         -3.27  -166.126470    2      1      
iter:  10  12:03:47         -3.50  -166.128187    2      1      
iter:  11  12:03:47         -3.63  -166.128206    2      1      
iter:  12  12:03:48         -3.72  -166.128770    2      1      
iter:  13  12:03:49         -3.85  -166.129321    2      1      
iter:  14  12:03:49         -4.00  -166.129438    2      1      
iter:  15  12:03:50         -4.14  -166.129328    2      1      

Converged after 15 iterations.

Dipole moment: (0.235849, -0.002069, 0.329616) |e|*Ang

Energy contributions relative to reference atoms: (reference = -24663.074771)

Kinetic:       +115.717254
Potential:     -119.934124
External:        +0.000000
XC:            -164.610358
Entropy (-ST):   -0.361037
Local:           +2.878419
--------------------------
Free energy:   -166.309846
Extrapolated:  -166.129328

Fermi level: -4.78725

 Band  Eigenvalues  Occupancy
    0    -23.96237    2.00000
    1    -22.50873    2.00000
    2    -22.31282    2.00000
    3    -21.11163    2.00000
    4    -20.68929    2.00000
    5    -20.48505    2.00000
    6    -19.95152    2.00000
    7    -19.29634    2.00000
    8    -18.45228    2.00000
    9    -17.90298    2.00000
   10    -17.79358    2.00000
   11    -17.48854    2.00000
   12    -16.75595    2.00000
   13    -15.77128    2.00000
   14    -15.19208    2.00000
   15    -15.00845    2.00000
   16    -14.64849    2.00000
   17    -14.00341    2.00000
   18    -13.88489    2.00000
   19    -12.97264    2.00000
   20    -12.57890    2.00000
   21    -12.06095    2.00000
   22    -11.59664    2.00000
   23    -11.48468    2.00000
   24    -11.09476    2.00000
   25    -10.81163    2.00000
   26    -10.45531    2.00000
   27     -9.83736    2.00000
   28     -9.56437    2.00000
   29     -9.24441    2.00000
   30     -9.01644    2.00000
   31     -8.59561    2.00000
   32     -8.41188    2.00000
   33     -8.19000    2.00000
   34     -7.80995    2.00000
   35     -7.57687    2.00000
   36     -7.49318    2.00000
   37     -7.41940    2.00000
   38     -7.00798    2.00000
   39     -6.78008    2.00000
   40     -6.67152    2.00000
   41     -6.37296    2.00000
   42     -6.14768    2.00000
   43     -5.78139    1.99990
   44     -5.42819    1.99671
   45     -5.40267    1.99576
   46     -5.19070    1.96523
   47     -4.84204    1.26731
   48     -4.66641    0.45999
   49     -4.60754    0.28441
   50     -4.36261    0.02823
   51     -4.07804    0.00166
   52     -4.00466    0.00080
   53     -3.34994    0.00000
   54     -3.19611    0.00000
   55     -2.86213    0.00000
   56     -2.51128    0.00000
   57     -2.07795    0.00000
   58     -1.95917    0.00000
   59     -1.66137    0.00000
   60     -1.26180    0.00000
   61     -1.13399    0.00000
   62     -0.56470    0.00000
   63     -0.16734    0.00000
   64      0.09233    0.00000
   65      0.99591    0.00000
   66      1.75657    0.00000
   67      2.48357    0.00000
   68      2.70508    0.00000
   69      3.15538    0.00000
   70      3.80166    0.00000
   71      4.28161    0.00000
   72      4.87673    0.00000
   73      5.25108    0.00000
   74      5.66232    0.00000
   75      6.03443    0.00000
   76      6.31589    0.00000
   77      6.65166    0.00000
   78      6.95292    0.00000
   79      7.31879    0.00000
   80      7.76509    0.00000
   81      8.00889    0.00000
   82      8.14559    0.00000
   83      8.30367    0.00000
   84      8.41661    0.00000
   85      8.68842    0.00000
   86      8.83292    0.00000
   87      8.87163    0.00000
   88      9.12533    0.00000
   89      9.15398    0.00000
   90      9.33668    0.00000
   91      9.38491    0.00000
   92      9.54520    0.00000
   93      9.66408    0.00000
   94      9.73182    0.00000
   95      9.93470    0.00000
   96      9.99657    0.00000
   97     10.06590    0.00000


Forces in eV/Ang:
  0 C    -0.22884    0.92894    0.54821
  1 C     0.50452    0.50095    0.20098
  2 C     0.29210    1.36542   -0.21222
  3 C    -1.15568    0.06474    0.14653
  4 C     0.20329   -0.50288    0.01254
  5 C     0.49327   -0.32484    0.27752
  6 C    -0.07094   -0.94296   -0.07645
  7 C    -0.01934    2.18304    1.75627
  8 C     0.23115    3.23852   -2.82867
  9 C    -0.00274    0.52121    0.19475
 10 C    -1.17968   -0.66725    0.56647
 11 C    -1.10581   -1.20114    1.14065
 12 C    -0.84082    0.63174    0.01617
 13 C     1.71755    1.22733   -1.52356
 14 C     0.89919   -1.18487    0.25534
 15 C     0.23900   -1.01985   -0.60755
 16 C     0.42801   -0.17238    0.19187
 17 C    -0.15294   -0.06853   -0.07181
 18 C     0.87921   -0.11786    0.40234
 19 C    -0.30711    0.39883   -0.44481
 20 C     0.42237    0.55287    0.46942
 21 C    -0.63691   -0.82342   -0.15339
 22 C    -0.78247   -2.45437    0.69454
 23 C     0.07664   -2.22433   -0.94683

System changes: positions 

Initializing position-dependent things.

Density initialized from wave functions
           .--------------------------------------.  
          /|                                      |  
         / |                                      |  
        /  |                                      |  
       /   |                                      |  
      /    |                                      |  
     /     |                                      |  
    /      |                                      |  
   /       |                                      |  
  /        |                                      |  
 *         |     C  C  C  C  C                    |  
 |         |         C   C  C  C C                |  
 |         .---------C--C-----C-------------------.  
 |        /        C CC  C C                     /   
 |       /      CCC                             /    
 |      /                                      /     
 |     /                                      /      
 |    /                                      /       
 |   /                                      /        
 |  /                                      /         
 | /                                      /          
 |/                                      /           
 *--------------------------------------*            

Positions:
   0 C      7.831962    7.335697    5.166800
   1 C      8.930857    8.193209    4.953375
   2 C      6.559504    9.850482    5.178702
   3 C     10.994101    8.821296    4.625667
   4 C     10.297594    7.596678    4.801877
   5 C      7.783534   10.187630    4.995552
   6 C      9.011941    9.590759    4.846233
   7 C      5.623488    8.850717    5.451618
   8 C      6.371032    7.611081    5.225305
   9 C      4.256812    8.869677    5.540707
  10 C     10.441477    6.168977    4.898145
  11 C      9.387530    5.270082    5.112137
  12 C      8.107639    5.970880    5.173352
  13 C      8.731325    3.811545    5.631615
  14 C      7.274477    3.829831    5.314759
  15 C      6.926026    5.239253    5.209431
  16 C      6.183604    3.207716    4.777293
  17 C      4.888181    9.541588    2.142533
  18 C      4.429296    8.344244    2.528566
  19 C      6.033535   10.109557    2.460890
  20 C      4.520169    7.239529    3.224783
  21 C      4.768136    5.016780    3.954461
  22 C      5.630247    7.059770    4.117632
  23 C      5.774662    5.729060    4.557606

Unit cell:
           periodic     x           y           z      points  spacing
  1. axis:    yes   16.000000    0.000000    0.000000    80     0.2000
  2. axis:    yes    0.000000   16.000000    0.000000    80     0.2000
  3. axis:    yes    0.000000    0.000000   10.000000    48     0.2083

Effective grid spacing dv^(1/3) = 0.2027

                     log10-error:    total        iterations:
           time      wfs    density  energy       fermi  poisson
iter:   1  12:03:51          +inf  -166.763176    2      5      
iter:   2  12:03:52         -2.17  -166.752416    3      1      
iter:   3  12:03:53         -2.28  -166.747039    3      2      
iter:   4  12:03:53         -2.44  -166.744056    2      2      
iter:   5  12:03:54         -2.58  -166.742769    2      2      
iter:   6  12:03:54         -2.72  -166.741633    3      2      
iter:   7  12:03:55         -2.89  -166.741646    3      2      
iter:   8  12:03:56         -3.09  -166.739705    2      1      
iter:   9  12:03:56         -3.28  -166.739880    2      1      
iter:  10  12:03:57         -3.52  -166.741742    2      1      
iter:  11  12:03:57         -3.61  -166.741089    2      1      
iter:  12  12:03:58         -3.84  -166.742041    2      1      
iter:  13  12:03:58         -3.94  -166.742085    2      1      
iter:  14  12:03:59         -4.04  -166.741630    2      1      

Converged after 14 iterations.

Dipole moment: (0.277711, -0.006820, 0.355004) |e|*Ang

Energy contributions relative to reference atoms: (reference = -24663.074771)

Kinetic:       +116.292328
Potential:     -120.610162
External:        +0.000000
XC:            -165.122548
Entropy (-ST):   -0.360924
Local:           +2.879214
--------------------------
Free energy:   -166.922092
Extrapolated:  -166.741630

Fermi level: -4.78921

 Band  Eigenvalues  Occupancy
    0    -23.89789    2.00000
    1    -22.48323    2.00000
    2    -22.36658    2.00000
    3    -21.14331    2.00000
    4    -20.71645    2.00000
    5    -20.46576    2.00000
    6    -19.95072    2.00000
    7    -19.33092    2.00000
    8    -18.45662    2.00000
    9    -17.94003    2.00000
   10    -17.75213    2.00000
   11    -17.52375    2.00000
   12    -16.78839    2.00000
   13    -15.79076    2.00000
   14    -15.19109    2.00000
   15    -15.02416    2.00000
   16    -14.62258    2.00000
   17    -13.99301    2.00000
   18    -13.87256    2.00000
   19    -12.97068    2.00000
   20    -12.60471    2.00000
   21    -12.08484    2.00000
   22    -11.64415    2.00000
   23    -11.49408    2.00000
   24    -11.12225    2.00000
   25    -10.84726    2.00000
   26    -10.48673    2.00000
   27     -9.87566    2.00000
   28     -9.65022    2.00000
   29     -9.27473    2.00000
   30     -9.05031    2.00000
   31     -8.62458    2.00000
   32     -8.39779    2.00000
   33     -8.17734    2.00000
   34     -7.85658    2.00000
   35     -7.60364    2.00000
   36     -7.50526    2.00000
   37     -7.41134    2.00000
   38     -6.98913    2.00000
   39     -6.77569    2.00000
   40     -6.69940    2.00000
   41     -6.33857    2.00000
   42     -6.15512    2.00000
   43     -5.77727    1.99990
   44     -5.42568    1.99656
   45     -5.38858    1.99502
   46     -5.21405    1.97183
   47     -4.83721    1.23550
   48     -4.68175    0.50904
   49     -4.60117    0.26469
   50     -4.35421    0.02549
   51     -4.05180    0.00125
   52     -3.99658    0.00072
   53     -3.29626    0.00000
   54     -3.17243    0.00000
   55     -2.79305    0.00000
   56     -2.50189    0.00000
   57     -2.05977    0.00000
   58     -1.92067    0.00000
   59     -1.64621    0.00000
   60     -1.20987    0.00000
   61     -1.09040    0.00000
   62     -0.54555    0.00000
   63     -0.11550    0.00000
   64      0.12543    0.00000
   65      1.14218    0.00000
   66      1.84004    0.00000
   67      2.49914    0.00000
   68      2.82755    0.00000
   69      3.17640    0.00000
   70      3.91036    0.00000
   71      4.29324    0.00000
   72      4.92937    0.00000
   73      5.39981    0.00000
   74      5.59174    0.00000
   75      6.01915    0.00000
   76      6.38018    0.00000
   77      6.68069    0.00000
   78      6.99786    0.00000
   79      7.32431    0.00000
   80      7.79970    0.00000
   81      8.03599    0.00000
   82      8.16972    0.00000
   83      8.31334    0.00000
   84      8.45517    0.00000
   85      8.70548    0.00000
   86      8.80261    0.00000
   87      8.85147    0.00000
   88      9.12161    0.00000
   89      9.15337    0.00000
   90      9.33507    0.00000
   91      9.41473    0.00000
   92      9.54762    0.00000
   93      9.67046    0.00000
   94      9.71042    0.00000
   95      9.96798    0.00000
   96     10.00930    0.00000
   97     10.06472    0.00000


Forces in eV/Ang:
  0 C    -0.42837    0.91964    0.46503
  1 C     0.49104    0.22647    0.29693
  2 C     0.52845    1.45143   -0.20623
  3 C    -1.07329    0.12344    0.13276
  4 C     0.11054   -0.81235    0.04647
  5 C     0.30854   -0.20002    0.28977
  6 C     0.06137   -0.70956   -0.14399
  7 C     0.19112    1.86547    1.39413
  8 C     0.12142    2.83343   -2.80397
  9 C    -0.16513    0.46777    0.23802
 10 C    -1.04029   -0.46425    0.55786
 11 C    -1.17034   -1.15932    1.11449
 12 C    -1.05078    0.24129    0.05495
 13 C     1.66515    1.26667   -1.50593
 14 C     1.08407   -1.00611    0.22979
 15 C     0.32095   -0.80899   -0.63674
 16 C     0.45851   -0.23740    0.22413
 17 C    -0.25758   -0.24374   -0.04011
 18 C     0.83517    0.24374    0.22232
 19 C    -0.20412    0.45778   -0.42294
 20 C     0.32883    0.30672    0.47684
 21 C    -0.77713   -1.04313   -0.22353
 22 C    -0.58900   -1.87852    1.08138
 23 C     0.14884   -1.96033   -0.84376

System changes: positions 

Initializing position-dependent things.

Density initialized from wave functions
           .--------------------------------------.  
          /|                                      |  
         / |                                      |  
        /  |                                      |  
       /   |                                      |  
      /    |                                      |  
     /     |                                      |  
    /      |                                      |  
   /       |                                      |  
  /        |                                      |  
 *         |     C  C  C  C  C                    |  
 |         |         C   C  C  C C                |  
 |         .---------C--C-----C-------------------.  
 |        /        C CC  C C                     /   
 |       /      CCC                             /    
 |      /                                      /     
 |     /                                      /      
 |    /                                      /       
 |   /                                      /        
 |  /                                      /         
 | /                                      /          
 |/                                      /           
 *--------------------------------------*            

Positions:
   0 C      7.828887    7.343804    5.171610
   1 C      8.934832    8.195801    4.956899
   2 C      6.562638    9.864477    5.177010
   3 C     10.982239    8.822075    4.627197
   4 C     10.298495    7.591141    4.802193
   5 C      7.789708   10.186060    4.998143
   6 C      9.012976    9.582968    4.844584
   7 C      5.622927    8.872082    5.466633
   8 C      6.375116    7.641461    5.199608
   9 C      4.257069    8.874345    5.542959
  10 C     10.429807    6.160841    4.904426
  11 C      9.375905    5.258105    5.123984
  12 C      8.100366    5.977970    5.173648
  13 C      8.749276    3.825224    5.615368
  14 C      7.284327    3.818392    5.316557
  15 C      6.925940    5.227055    5.202935
  16 C      6.189917    3.205952    4.780433
  17 C      4.887739    9.542706    2.141223
  18 C      4.436817    8.341968    2.533093
  19 C      6.030637   10.114180    2.456171
  20 C      4.524251    7.243600    3.229779
  21 C      4.760770    5.006730    3.952673
  22 C      5.620759    7.039965    4.123713
  23 C      5.774590    5.707742    4.548087

Unit cell:
           periodic     x           y           z      points  spacing
  1. axis:    yes   16.000000    0.000000    0.000000    80     0.2000
  2. axis:    yes    0.000000   16.000000    0.000000    80     0.2000
  3. axis:    yes    0.000000    0.000000   10.000000    48     0.2083

Effective grid spacing dv^(1/3) = 0.2027

                     log10-error:    total        iterations:
           time      wfs    density  energy       fermi  poisson
iter:   1  12:04:01          +inf  -167.338036    3      5      
iter:   2  12:04:01         -2.17  -167.324145    3      2      
iter:   3  12:04:02         -2.30  -167.318762    3      2      
iter:   4  12:04:03         -2.41  -167.314786    2      2      
iter:   5  12:04:03         -2.57  -167.312291    2      2      
iter:   6  12:04:04         -2.81  -167.312180    3      2      
iter:   7  12:04:04         -2.97  -167.310055    2      1      
iter:   8  12:04:05         -3.10  -167.312141    2      2      
iter:   9  12:04:06         -3.44  -167.312517    2      1      
iter:  10  12:04:06         -3.54  -167.311489    2      1      
iter:  11  12:04:07         -3.73  -167.312193    2      1      
iter:  12  12:04:07         -3.84  -167.312363    2      1      
iter:  13  12:04:08         -3.90  -167.311970    2      1      
iter:  14  12:04:08         -4.13  -167.312328    2      1      

Converged after 14 iterations.

Dipole moment: (0.311983, -0.008232, 0.373209) |e|*Ang

Energy contributions relative to reference atoms: (reference = -24663.074771)

Kinetic:       +116.379848
Potential:     -120.880349
External:        +0.000000
XC:            -165.513791
Entropy (-ST):   -0.361728
Local:           +2.882828
--------------------------
Free energy:   -167.493191
Extrapolated:  -167.312328

Fermi level: -4.78769

 Band  Eigenvalues  Occupancy
    0    -23.84458    2.00000
    1    -22.46354    2.00000
    2    -22.41103    2.00000
    3    -21.16895    2.00000
    4    -20.73820    2.00000
    5    -20.44912    2.00000
    6    -19.94605    2.00000
    7    -19.36255    2.00000
    8    -18.46751    2.00000
    9    -17.97234    2.00000
   10    -17.71160    2.00000
   11    -17.55122    2.00000
   12    -16.81418    2.00000
   13    -15.80839    2.00000
   14    -15.18556    2.00000
   15    -15.04007    2.00000
   16    -14.60157    2.00000
   17    -13.99779    2.00000
   18    -13.84364    2.00000
   19    -12.96644    2.00000
   20    -12.62444    2.00000
   21    -12.10045    2.00000
   22    -11.69255    2.00000
   23    -11.51550    2.00000
   24    -11.14828    2.00000
   25    -10.87755    2.00000
   26    -10.50562    2.00000
   27     -9.91359    2.00000
   28     -9.72057    2.00000
   29     -9.30798    2.00000
   30     -9.07447    2.00000
   31     -8.66292    2.00000
   32     -8.38490    2.00000
   33     -8.16672    2.00000
   34     -7.89979    2.00000
   35     -7.62284    2.00000
   36     -7.51500    2.00000
   37     -7.40170    2.00000
   38     -6.97638    2.00000
   39     -6.77702    2.00000
   40     -6.72186    2.00000
   41     -6.31730    2.00000
   42     -6.16102    2.00000
   43     -5.77330    1.99990
   44     -5.42318    1.99653
   45     -5.37693    1.99449
   46     -5.22461    1.97499
   47     -4.82842    1.20085
   48     -4.69434    0.56442
   49     -4.59031    0.24396
   50     -4.34356    0.02329
   51     -4.02076    0.00093
   52     -3.98365    0.00064
   53     -3.25947    0.00000
   54     -3.13648    0.00000
   55     -2.73985    0.00000
   56     -2.47788    0.00000
   57     -2.04295    0.00000
   58     -1.87567    0.00000
   59     -1.63432    0.00000
   60     -1.17413    0.00000
   61     -1.05712    0.00000
   62     -0.53372    0.00000
   63     -0.07232    0.00000
   64      0.16007    0.00000
   65      1.26931    0.00000
   66      1.95147    0.00000
   67      2.51407    0.00000
   68      2.93435    0.00000
   69      3.18827    0.00000
   70      3.95524    0.00000
   71      4.35925    0.00000
   72      4.95063    0.00000
   73      5.46995    0.00000
   74      5.57632    0.00000
   75      6.01110    0.00000
   76      6.48326    0.00000
   77      6.69167    0.00000
   78      7.06884    0.00000
   79      7.32025    0.00000
   80      7.82868    0.00000
   81      8.04491    0.00000
   82      8.18801    0.00000
   83      8.32088    0.00000
   84      8.48907    0.00000
   85      8.69986    0.00000
   86      8.77244    0.00000
   87      8.84500    0.00000
   88      9.11844    0.00000
   89      9.15198    0.00000
   90      9.33993    0.00000
   91      9.44887    0.00000
   92      9.54613    0.00000
   93      9.65479    0.00000
   94      9.69298    0.00000
   95      9.98871    0.00000
   96     10.02591    0.00000
   97     10.07311    0.00000


Forces in eV/Ang:
  0 C    -0.59507    0.88593    0.39045
  1 C     0.46213    0.02500    0.37013
  2 C     0.60260    1.45073   -0.15932
  3 C    -1.03201    0.16481    0.13133
  4 C     0.01591   -1.06293    0.08081
  5 C     0.27732   -0.09807    0.28374
  6 C     0.19452   -0.51191   -0.20092
  7 C     0.35874    1.56338    1.04464
  8 C     0.01160    2.43139   -2.69078
  9 C    -0.24237    0.41232    0.27593
 10 C    -0.86808   -0.22308    0.52078
 11 C    -1.17388   -1.08239    1.07440
 12 C    -1.24164   -0.10030    0.07603
 13 C     1.58299    1.27987   -1.48941
 14 C     1.22795   -0.87025    0.19948
 15 C     0.42304   -0.56979   -0.62614
 16 C     0.49560   -0.27811    0.24716
 17 C    -0.31247   -0.35150   -0.02237
 18 C     0.80319    0.46746    0.11886
 19 C    -0.14053    0.51415   -0.42224
 20 C     0.23582    0.13966    0.46025
 21 C    -0.85724   -1.18331   -0.25220
 22 C    -0.37293   -1.45492    1.33937
 23 C     0.15237   -1.61788   -0.76685

System changes: positions 

Initializing position-dependent things.

Density initialized from wave functions
           .--------------------------------------.  
          /|                                      |  
         / |                                      |  
        /  |                                      |  
       /   |                                      |  
      /    |                                      |  
     /     |                                      |  
    /      |                                      |  
   /       |                                      |  
  /        |                                      |  
 *         |     C  C  C  C  C                    |  
 |         |         C   C  C  C C                |  
 |         .------------C-----C-------------------.  
 |        /        C CC  C C                     /   
 |       /      CCC                             /    
 |      /                                      /     
 |     /                                      /      
 |    /                                      /       
 |   /                                      /        
 |  /                                      /         
 | /                                      /          
 |/                                      /           
 *--------------------------------------*            

Positions:
   0 C      7.824628    7.352118    5.176281
   1 C      8.938631    8.197275    4.961470
   2 C      6.565840    9.879352    5.175841
   3 C     10.969069    8.823030    4.629003
   4 C     10.298523    7.583662    4.802852
   5 C      7.797396   10.185130    5.000823
   6 C      9.015531    9.575803    4.842206
   7 C      5.623060    8.893417    5.480133
   8 C      6.379068    7.671495    5.173486
   9 C      4.257638    8.878944    5.545750
  10 C     10.418361    6.153509    4.911076
  11 C      9.363498    5.245873    5.136688
  12 C      8.091462    5.983851    5.174018
  13 C      8.768309    3.840511    5.597389
  14 C      7.296188    3.806557    5.318111
  15 C      6.926047    5.214992    5.195956
  16 C      6.197679    3.203907    4.784288
  17 C      4.887322    9.543744    2.139739
  18 C      4.444808    8.340027    2.538034
  19 C      6.027657   10.119834    2.450739
  20 C      4.528167    7.247199    3.235059
  21 C      4.752540    4.995030    3.950866
  22 C      5.611393    7.021277    4.130791
  23 C      5.773659    5.687439    4.538005

Unit cell:
           periodic     x           y           z      points  spacing
  1. axis:    yes   16.000000    0.000000    0.000000    80     0.2000
  2. axis:    yes    0.000000   16.000000    0.000000    80     0.2000
  3. axis:    yes    0.000000    0.000000   10.000000    48     0.2083

Effective grid spacing dv^(1/3) = 0.2027

                     log10-error:    total        iterations:
           time      wfs    density  energy       fermi  poisson
iter:   1  12:04:10          +inf  -167.881958    3      5      
iter:   2  12:04:11         -2.13  -167.860648    3      2      
iter:   3  12:04:11         -2.30  -167.855271    2      2      
iter:   4  12:04:12         -2.39  -167.850540    2      2      
iter:   5  12:04:13         -2.56  -167.847980    2      2      
iter:   6  12:04:13         -2.80  -167.847970    2      2      
iter:   7  12:04:14         -2.92  -167.847796    2      2      
iter:   8  12:04:14         -3.11  -167.847714    2      2      
iter:   9  12:04:15         -3.44  -167.847379    2      1      
iter:  10  12:04:16         -3.56  -167.847465    2      1      
iter:  11  12:04:16         -3.71  -167.847460    2      1      
iter:  12  12:04:17         -3.91  -167.847507    2      1      
iter:  13  12:04:17         -4.08  -167.847861    2      1      

Converged after 13 iterations.

Dipole moment: (0.342468, -0.008274, 0.388692) |e|*Ang

Energy contributions relative to reference atoms: (reference = -24663.074771)

Kinetic:       +116.133993
Potential:     -120.863240
External:        +0.000000
XC:            -165.824296
Entropy (-ST):   -0.361475
Local:           +2.886419
--------------------------
Free energy:   -168.028599
Extrapolated:  -167.847861

Fermi level: -4.78466

 Band  Eigenvalues  Occupancy
    0    -23.80191    2.00000
    1    -22.46463    2.00000
    2    -22.43644    2.00000
    3    -21.19630    2.00000
    4    -20.75123    2.00000
    5    -20.43518    2.00000
    6    -19.93966    2.00000
    7    -19.38768    2.00000
    8    -18.48257    2.00000
    9    -18.00404    2.00000
   10    -17.67534    2.00000
   11    -17.57304    2.00000
   12    -16.83891    2.00000
   13    -15.82209    2.00000
   14    -15.17744    2.00000
   15    -15.05481    2.00000
   16    -14.58728    2.00000
   17    -14.00755    2.00000
   18    -13.81059    2.00000
   19    -12.95880    2.00000
   20    -12.64056    2.00000
   21    -12.10809    2.00000
   22    -11.73706    2.00000
   23    -11.55185    2.00000
   24    -11.17145    2.00000
   25    -10.90440    2.00000
   26    -10.51503    2.00000
   27     -9.95384    2.00000
   28     -9.77454    2.00000
   29     -9.34360    2.00000
   30     -9.09257    2.00000
   31     -8.71045    2.00000
   32     -8.37231    2.00000
   33     -8.15796    2.00000
   34     -7.93899    2.00000
   35     -7.63851    2.00000
   36     -7.52202    2.00000
   37     -7.39047    2.00000
   38     -6.96735    2.00000
   39     -6.78958    2.00000
   40     -6.73209    2.00000
   41     -6.30453    2.00000
   42     -6.16317    2.00000
   43     -5.76986    1.99989
   44     -5.42457    1.99668
   45     -5.36895    1.99422
   46     -5.22556    1.97596
   47     -4.81939    1.17192
   48     -4.70385    0.61661
   49     -4.57663    0.22205
   50     -4.33209    0.02142
   51     -3.98728    0.00069
   52     -3.96732    0.00056
   53     -3.23248    0.00000
   54     -3.09567    0.00000
   55     -2.69528    0.00000
   56     -2.44227    0.00000
   57     -2.03087    0.00000
   58     -1.83476    0.00000
   59     -1.62574    0.00000
   60     -1.14911    0.00000
   61     -1.02754    0.00000
   62     -0.52532    0.00000
   63     -0.03732    0.00000
   64      0.19913    0.00000
   65      1.36531    0.00000
   66      2.07638    0.00000
   67      2.53818    0.00000
   68      3.02060    0.00000
   69      3.19701    0.00000
   70      3.96323    0.00000
   71      4.45378    0.00000
   72      4.93853    0.00000
   73      5.43128    0.00000
   74      5.67666    0.00000
   75      6.00731    0.00000
   76      6.64480    0.00000
   77      6.67379    0.00000
   78      7.15755    0.00000
   79      7.31333    0.00000
   80      7.85236    0.00000
   81      8.04319    0.00000
   82      8.19063    0.00000
   83      8.33159    0.00000
   84      8.51892    0.00000
   85      8.67549    0.00000
   86      8.73622    0.00000
   87      8.85542    0.00000
   88      9.11748    0.00000
   89      9.15155    0.00000
   90      9.35061    0.00000
   91      9.48299    0.00000
   92      9.54125    0.00000
   93      9.61533    0.00000
   94      9.69166    0.00000
   95      9.99504    0.00000
   96     10.05109    0.00000
   97     10.09033    0.00000


Forces in eV/Ang:
  0 C    -0.70819    0.80440    0.30290
  1 C     0.40615   -0.16349    0.42558
  2 C     0.77431    1.46326   -0.11569
  3 C    -0.99626    0.22738    0.13561
  4 C    -0.07389   -1.24549    0.11353
  5 C     0.14875   -0.02631    0.29255
  6 C     0.35546   -0.37419   -0.24944
  7 C     0.44798    1.31188    0.70882
  8 C    -0.08840    2.02345   -2.48711
  9 C    -0.28427    0.34761    0.31024
 10 C    -0.74675   -0.04174    0.48991
 11 C    -1.12858   -0.91531    1.02595
 12 C    -1.35675   -0.33877    0.09205
 13 C     1.45602    1.21335   -1.40996
 14 C     1.31245   -0.72545    0.18102
 15 C     0.44920   -0.39862   -0.61798
 16 C     0.53528   -0.27015    0.26032
 17 C    -0.35539   -0.44721   -0.00711
 18 C     0.75990    0.67683   -0.00844
 19 C    -0.08516    0.56469   -0.41741
 20 C     0.16376    0.00187    0.45356
 21 C    -0.90751   -1.26339   -0.27840
 22 C    -0.23798   -1.02887    1.52954
 23 C     0.16470   -1.33868   -0.67468

System changes: positions 

Initializing position-dependent things.

Density initialized from wave functions
           .--------------------------------------.  
          /|                                      |  
         / |                                      |  
        /  |                                      |  
       /   |                                      |  
      /    |                                      |  
     /     |                                      |  
    /      |                                      |  
   /       |                                      |  
  /        |                                      |  
 *         |     C  C  C  C  C                    |  
 |         |         C   C  C    C                |  
 |         .------------C-----CC------------------.  
 |        /        C CC  C C                     /   
 |       /      CCC                             /    
 |      /                                      /     
 |     /                                      /      
 |    /                                      /       
 |   /                                      /        
 |  /                                      /         
 | /                                      /          
 |/                                      /           
 *--------------------------------------*            

Positions:
   0 C      7.819369    7.360287    5.180655
   1 C      8.942037    8.197470    4.967080
   2 C      6.570942    9.895917    5.175144
   3 C     10.954213    8.824658    4.631206
   4 C     10.297629    7.574290    4.803919
   5 C      7.805143   10.184546    5.003925
   6 C      9.020280    9.568509    4.839063
   7 C      5.623270    8.915587    5.492170
   8 C      6.382795    7.701423    5.147211
   9 C      4.258680    8.883423    5.549208
  10 C     10.406318    6.146477    4.918326
  11 C      9.350483    5.234393    5.150498
  12 C      8.081223    5.989334    5.174468
  13 C      8.788264    3.856731    5.578075
  14 C      7.309952    3.794385    5.319663
  15 C      6.925553    5.202298    5.188198
  16 C      6.207112    3.202091    4.788812
  17 C      4.886915    9.544597    2.138072
  18 C      4.453337    8.338817    2.542839
  19 C      6.024510   10.126701    2.444500
  20 C      4.532131    7.250497    3.240920
  21 C      4.743320    4.981779    3.948864
  22 C      5.601273    7.003895    4.139090
  23 C      5.772237    5.667077    4.527462

Unit cell:
           periodic     x           y           z      points  spacing
  1. axis:    yes   16.000000    0.000000    0.000000    80     0.2000
  2. axis:    yes    0.000000   16.000000    0.000000    80     0.2000
  3. axis:    yes    0.000000    0.000000   10.000000    48     0.2083

Effective grid spacing dv^(1/3) = 0.2027

                     log10-error:    total        iterations:
           time      wfs    density  energy       fermi  poisson
iter:   1  12:04:19          +inf  -168.398847    3      5      
iter:   2  12:04:20         -2.08  -168.367541    3      2      
iter:   3  12:04:20         -2.29  -168.361559    2      1      
iter:   4  12:04:21         -2.37  -168.356310    2      2      
iter:   5  12:04:21         -2.56  -168.354461    3      2      
iter:   6  12:04:22         -2.71  -168.353730    2      2      
iter:   7  12:04:23         -2.89  -168.353639    2      2      
iter:   8  12:04:23         -3.09  -168.352650    2      1      
iter:   9  12:04:24         -3.23  -168.351951    2      1      
iter:  10  12:04:24         -3.54  -168.353310    2      1      
iter:  11  12:04:25         -3.61  -168.353272    2      1      
iter:  12  12:04:26         -3.75  -168.353008    2      1      
iter:  13  12:04:26         -3.92  -168.353566    2      1      
iter:  14  12:04:27         -4.00  -168.353650    2      1      

Converged after 14 iterations.

Dipole moment: (0.369705, -0.009093, 0.400754) |e|*Ang

Energy contributions relative to reference atoms: (reference = -24663.074771)

Kinetic:       +115.784931
Potential:     -120.749891
External:        +0.000000
XC:            -166.101058
Entropy (-ST):   -0.357161
Local:           +2.890948
--------------------------
Free energy:   -168.532231
Extrapolated:  -168.353650

Fermi level: -4.78222

 Band  Eigenvalues  Occupancy
    0    -23.76500    2.00000
    1    -22.49910    2.00000
    2    -22.42670    2.00000
    3    -21.21940    2.00000
    4    -20.76106    2.00000
    5    -20.42462    2.00000
    6    -19.93054    2.00000
    7    -19.41103    2.00000
    8    -18.50340    2.00000
    9    -18.03727    2.00000
   10    -17.64037    2.00000
   11    -17.59055    2.00000
   12    -16.85890    2.00000
   13    -15.83431    2.00000
   14    -15.16957    2.00000
   15    -15.06633    2.00000
   16    -14.57729    2.00000
   17    -14.01939    2.00000
   18    -13.77342    2.00000
   19    -12.95008    2.00000
   20    -12.65239    2.00000
   21    -12.11101    2.00000
   22    -11.77491    2.00000
   23    -11.59386    2.00000
   24    -11.18672    2.00000
   25    -10.92194    2.00000
   26    -10.51651    2.00000
   27     -9.99545    2.00000
   28     -9.81648    2.00000
   29     -9.37779    2.00000
   30     -9.10627    2.00000
   31     -8.76994    2.00000
   32     -8.36203    2.00000
   33     -8.15041    2.00000
   34     -7.97421    2.00000
   35     -7.65011    2.00000
   36     -7.52751    2.00000
   37     -7.37953    2.00000
   38     -6.96296    2.00000
   39     -6.81011    2.00000
   40     -6.73089    2.00000
   41     -6.30096    2.00000
   42     -6.16135    2.00000
   43     -5.76868    1.99990
   44     -5.42809    1.99687
   45     -5.36654    1.99422
   46     -5.21613    1.97424
   47     -4.81804    1.17725
   48     -4.70690    0.64025
   49     -4.56087    0.19710
   50     -4.31865    0.01921
   51     -3.95640    0.00052
   52     -3.94243    0.00045
   53     -3.20946    0.00000
   54     -3.05230    0.00000
   55     -2.66017    0.00000
   56     -2.38574    0.00000
   57     -2.00846    0.00000
   58     -1.78937    0.00000
   59     -1.61934    0.00000
   60     -1.13171    0.00000
   61     -0.99999    0.00000
   62     -0.51930    0.00000
   63     -0.01559    0.00000
   64      0.24325    0.00000
   65      1.43537    0.00000
   66      2.18959    0.00000
   67      2.58511    0.00000
   68      3.08019    0.00000
   69      3.21785    0.00000
   70      3.95625    0.00000
   71      4.53572    0.00000
   72      4.89124    0.00000
   73      5.40194    0.00000
   74      5.77487    0.00000
   75      6.01544    0.00000
   76      6.62412    0.00000
   77      6.86371    0.00000
   78      7.22637    0.00000
   79      7.33466    0.00000
   80      7.87461    0.00000
   81      8.03891    0.00000
   82      8.17975    0.00000
   83      8.34551    0.00000
   84      8.54015    0.00000
   85      8.64492    0.00000
   86      8.70910    0.00000
   87      8.87188    0.00000
   88      9.11737    0.00000
   89      9.15140    0.00000
   90      9.36775    0.00000
   91      9.49129    0.00000
   92      9.53688    0.00000
   93      9.59644    0.00000
   94      9.69659    0.00000
   95      9.99391    0.00000
   96     10.07967    0.00000
   97     10.11643    0.00000


Forces in eV/Ang:
  0 C    -0.80679    0.74165    0.22163
  1 C     0.32130   -0.31485    0.45081
  2 C     0.80178    1.41077   -0.05505
  3 C    -0.99113    0.24234    0.11522
  4 C    -0.14437   -1.38305    0.16098
  5 C     0.17772    0.05290    0.27632
  6 C     0.49966   -0.25381   -0.28571
  7 C     0.58005    1.07831    0.38062
  8 C    -0.19946    1.56794   -2.26163
  9 C    -0.30347    0.28917    0.34718
 10 C    -0.62456    0.17431    0.44248
 11 C    -0.99639   -0.69936    0.89398
 12 C    -1.45720   -0.57086    0.10631
 13 C     1.25051    1.00033   -1.30753
 14 C     1.39152   -0.59931    0.13790
 15 C     0.47142   -0.24021   -0.60016
 16 C     0.59700   -0.26800    0.29909
 17 C    -0.37674   -0.50983   -0.00079
 18 C     0.70426    0.81271   -0.09315
 19 C    -0.03469    0.57784   -0.39965
 20 C     0.05559   -0.11286    0.38976
 21 C    -0.93596   -1.32976   -0.32803
 22 C    -0.08586   -0.61859    1.63477
 23 C     0.14672   -1.07119   -0.54936

System changes: positions 

Initializing position-dependent things.

Density initialized from wave functions
           .--------------------------------------.  
          /|                                      |  
         / |                                      |  
        /  |                                      |  
       /   |                                      |  
      /    |                                      |  
     /     |                                      |  
    /      |                                      |  
   /       |                                      |  
  /        |                                      |  
 *         |     C  C  C  C  C                    |  
 |         |         C   C  C    C                |  
 |         .------------C-----CC------------------.  
 |        /        C CC  C C                     /   
 |       /      CCC                             /    
[...]
    5    -20.01909    2.00000
    6    -19.66020    2.00000
    7    -19.37935    2.00000
    8    -18.91254    2.00000
    9    -18.12347    2.00000
   10    -17.54726    2.00000
   11    -17.16477    2.00000
   12    -17.07080    2.00000
   13    -15.97422    2.00000
   14    -15.58298    2.00000
   15    -15.02479    2.00000
   16    -14.53103    2.00000
   17    -14.13435    2.00000
   18    -13.61516    2.00000
   19    -13.14182    2.00000
   20    -12.90046    2.00000
   21    -12.67515    2.00000
   22    -12.26386    2.00000
   23    -11.48589    2.00000
   24    -11.12058    2.00000
   25    -11.01434    2.00000
   26    -10.68746    2.00000
   27    -10.60763    2.00000
   28    -10.30245    2.00000
   29    -10.09441    2.00000
   30     -9.75378    2.00000
   31     -9.49992    2.00000
   32     -8.92626    2.00000
   33     -8.69789    2.00000
   34     -8.63492    2.00000
   35     -8.16058    2.00000
   36     -7.72738    2.00000
   37     -7.36998    2.00000
   38     -7.22373    2.00000
   39     -6.97689    2.00000
   40     -6.61483    2.00000
   41     -6.34161    2.00000
   42     -5.67699    1.99975
   43     -5.37114    1.99475
   44     -5.24246    1.98112
   45     -5.16191    1.95824
   46     -4.98369    1.77501
   47     -4.93989    1.67167
   48     -4.69539    0.61259
   49     -4.20589    0.00659
   50     -3.88778    0.00027
   51     -3.33144    0.00000
   52     -3.00430    0.00000
   53     -2.74131    0.00000
   54     -2.62571    0.00000
   55     -2.43594    0.00000
   56     -1.46919    0.00000
   57     -1.22215    0.00000
   58     -0.89744    0.00000
   59     -0.21463    0.00000
   60     -0.00141    0.00000
   61      0.92965    0.00000
   62      1.66180    0.00000
   63      2.45906    0.00000
   64      2.76592    0.00000
   65      3.06506    0.00000
   66      3.53232    0.00000
   67      3.69208    0.00000
   68      4.03066    0.00000
   69      4.22582    0.00000
   70      4.51470    0.00000
   71      4.94051    0.00000
   72      5.30868    0.00000
   73      5.73348    0.00000
   74      5.87382    0.00000
   75      6.20832    0.00000
   76      6.83621    0.00000
   77      7.00724    0.00000
   78      7.08588    0.00000
   79      7.31396    0.00000
   80      7.80826    0.00000
   81      8.21635    0.00000
   82      8.46357    0.00000
   83      8.54926    0.00000
   84      8.65882    0.00000
   85      8.80076    0.00000
   86      8.97409    0.00000
   87      9.03755    0.00000
   88      9.16582    0.00000
   89      9.27694    0.00000
   90      9.37586    0.00000
   91      9.51586    0.00000
   92      9.55632    0.00000
   93      9.79280    0.00000
   94      9.88616    0.00000
   95      9.96690    0.00000
   96      9.99885    0.00000
   97     10.18732    0.00000


Forces in eV/Ang:
  0 C    -0.02173   -0.02395   -0.00958
  1 C    -0.09676   -0.00456   -0.02872
  2 C     0.17939    0.01001    0.11618
  3 C    -0.00037   -0.02904    0.07123
  4 C    -0.01499    0.06285    0.00195
  5 C    -0.12543    0.00512   -0.13196
  6 C    -0.04224    0.05721   -0.00537
  7 C     0.02044   -0.05679   -0.02278
  8 C     0.05892    0.05055   -0.02094
  9 C    -0.01373    0.01214    0.05192
 10 C     0.02311    0.00838   -0.01108
 11 C     0.03451   -0.02382   -0.00930
 12 C     0.02743   -0.02077   -0.02924
 13 C    -0.01280   -0.00367    0.00059
 14 C    -0.01631    0.02782    0.00741
 15 C     0.03635    0.01810   -0.03212
 16 C    -0.04348   -0.03004    0.01892
 17 C     0.03835    0.12279   -0.07137
 18 C     0.00860   -0.02470   -0.01650
 19 C    -0.07376   -0.05806   -0.01464
 20 C    -0.01040   -0.01029   -0.02982
 21 C     0.01348   -0.01518    0.01625
 22 C     0.03511   -0.02330    0.01200
 23 C    -0.03467    0.00380   -0.02038

System changes: positions 

Initializing position-dependent things.

Density initialized from wave functions
           .--------------------------------------.  
          /|                                      |  
         / |                                      |  
        /  |                                      |  
       /   |                                      |  
      /    |                                      |  
     /     |                                      |  
    /      |                                      |  
   /       |                                      |  
  /        |                C C C                 |  
 *         |             C  C C                   |  
 |         |           CC    C                    |  
 |         .----------C-C-C-----------------------.  
 |        /        CC    C                       /   
 |       /     C CCC  C                         /    
 |      /    CC   C                            /     
 |     /                                      /      
 |    /                                      /       
 |   /                                      /        
 |  /                                      /         
 | /                                      /          
 |/                                      /           
 *--------------------------------------*            

Positions:
   0 C      7.747398    7.209588    5.214352
   1 C      8.976373    7.890316    5.552217
   2 C      8.172570   10.827781    5.064294
   3 C     10.445715    8.386932    6.755604
   4 C     10.045624    7.063001    6.185162
   5 C      9.224532   10.515779    5.697055
   6 C      9.641365    9.183509    5.929822
   7 C      7.022938   10.354932    4.514606
   8 C      6.568006    7.794063    4.513505
   9 C      6.574836    9.190751    4.337261
  10 C     10.067662    5.732282    6.146516
  11 C      8.994033    4.961852    5.668546
  12 C      7.791230    5.764221    5.339110
  13 C      8.780681    3.593148    5.327181
  14 C      7.742504    3.089370    4.767107
  15 C      6.621775    5.095036    4.963414
  16 C      6.528964    3.693790    4.475363
  17 C      2.947786    8.946486    1.498035
  18 C      3.766559    8.281179    2.327185
  19 C      2.328815    9.691619    0.625985
  20 C      4.556973    7.649250    3.083991
  21 C      5.740934    4.314254    3.394038
  22 C      5.493926    7.008143    3.895656
  23 C      5.576208    5.597580    4.128420

Unit cell:
           periodic     x           y           z      points  spacing
  1. axis:    yes   16.000000    0.000000    0.000000    80     0.2000
  2. axis:    yes    0.000000   16.000000    0.000000    80     0.2000
  3. axis:    yes    0.000000    0.000000   10.000000    48     0.2083

Effective grid spacing dv^(1/3) = 0.2027

                     log10-error:    total        iterations:
           time      wfs    density  energy       fermi  poisson
iter:   1  12:31:16          +inf  -179.219236    3      5      
iter:   2  12:31:17         -2.44  -179.198457    3      1      
iter:   3  12:31:17         -2.85  -179.191972    3      1      
iter:   4  12:31:18         -2.96  -179.196986    2      1      
iter:   5  12:31:18         -2.92  -179.190022    3      1      
iter:   6  12:31:19         -3.03  -179.191883    3      1      
iter:   7  12:31:19         -3.41  -179.198976    3      1      
iter:   8  12:31:20         -2.96  -179.193226    3      1      
iter:   9  12:31:20         -3.76  -179.192009    2      1      
iter:  10  12:31:21         -3.75  -179.194432    2      1      
iter:  11  12:31:21         -3.41  -179.192253    2      1      
iter:  12  12:31:22         -3.95  -179.191020    2      1      
iter:  13  12:31:23         -3.56  -179.192671    2      1      
iter:  14  12:31:23         -4.04  -179.192281    2      1      

Converged after 14 iterations.

Dipole moment: (1.094042, -0.606944, -3.606452) |e|*Ang

Energy contributions relative to reference atoms: (reference = -24663.074771)

Kinetic:       +110.903153
Potential:     -118.663417
External:        +0.000000
XC:            -174.290760
Entropy (-ST):   -0.322766
Local:           +3.020125
--------------------------
Free energy:   -179.353664
Extrapolated:  -179.192281

Fermi level: -4.77945

 Band  Eigenvalues  Occupancy
    0    -23.78184    2.00000
    1    -23.29736    2.00000
    2    -21.75653    2.00000
    3    -21.61917    2.00000
    4    -20.89595    2.00000
    5    -20.01312    2.00000
    6    -19.65663    2.00000
    7    -19.38040    2.00000
    8    -18.90986    2.00000
    9    -18.11938    2.00000
   10    -17.54497    2.00000
   11    -17.16285    2.00000
   12    -17.06858    2.00000
   13    -15.97266    2.00000
   14    -15.58802    2.00000
   15    -15.01943    2.00000
   16    -14.52890    2.00000
   17    -14.13283    2.00000
   18    -13.61936    2.00000
   19    -13.13837    2.00000
   20    -12.89794    2.00000
   21    -12.67935    2.00000
   22    -12.26326    2.00000
   23    -11.48714    2.00000
   24    -11.12046    2.00000
   25    -11.01155    2.00000
   26    -10.68840    2.00000
   27    -10.60303    2.00000
   28    -10.29751    2.00000
   29    -10.09110    2.00000
   30     -9.74809    2.00000
   31     -9.49417    2.00000
   32     -8.93141    2.00000
   33     -8.69913    2.00000
   34     -8.62659    2.00000
   35     -8.15730    2.00000
   36     -7.72400    2.00000
   37     -7.36837    2.00000
   38     -7.22059    2.00000
   39     -6.97300    2.00000
   40     -6.61472    2.00000
   41     -6.34430    2.00000
   42     -5.68259    1.99976
   43     -5.36903    1.99451
   44     -5.23982    1.98017
   45     -5.16426    1.95825
   46     -4.98782    1.77862
   47     -4.94097    1.66829
   48     -4.69796    0.61373
   49     -4.20550    0.00641
   50     -3.88260    0.00025
   51     -3.31947    0.00000
   52     -2.99531    0.00000
   53     -2.74087    0.00000
   54     -2.61543    0.00000
   55     -2.43381    0.00000
   56     -1.46628    0.00000
   57     -1.22196    0.00000
   58     -0.89915    0.00000
   59     -0.21440    0.00000
   60      0.00581    0.00000
   61      0.92895    0.00000
   62      1.65540    0.00000
   63      2.45664    0.00000
   64      2.78345    0.00000
   65      3.06746    0.00000
   66      3.52478    0.00000
   67      3.68238    0.00000
   68      4.02516    0.00000
   69      4.21914    0.00000
   70      4.51566    0.00000
   71      4.92684    0.00000
   72      5.29547    0.00000
   73      5.72872    0.00000
   74      5.86664    0.00000
   75      6.21325    0.00000
   76      6.82718    0.00000
   77      7.00106    0.00000
   78      7.09549    0.00000
   79      7.31411    0.00000
   80      7.81351    0.00000
   81      8.22201    0.00000
   82      8.46398    0.00000
   83      8.55625    0.00000
   84      8.66636    0.00000
   85      8.80228    0.00000
   86      8.97115    0.00000
   87      9.03386    0.00000
   88      9.16943    0.00000
   89      9.27915    0.00000
   90      9.37425    0.00000
   91      9.52068    0.00000
   92      9.56367    0.00000
   93      9.80182    0.00000
   94      9.88990    0.00000
   95      9.97097    0.00000
   96      9.99872    0.00000
   97     10.18442    0.00000


Forces in eV/Ang:
  0 C     0.00834   -0.01187   -0.03041
  1 C    -0.04922   -0.00777   -0.02125
  2 C     0.02457    0.03688    0.02293
  3 C     0.00146   -0.01537    0.05278
  4 C    -0.02093    0.01186   -0.01702
  5 C    -0.01929   -0.00827   -0.02236
  6 C    -0.05418    0.02841   -0.00418
  7 C     0.03346   -0.04024   -0.00628
  8 C     0.04029    0.00805    0.00292
  9 C     0.00203    0.04179    0.03904
 10 C     0.00725    0.00662   -0.00868
 11 C     0.00785   -0.01200   -0.03016
 12 C     0.01483    0.00694   -0.02509
 13 C    -0.00649   -0.01052    0.01403
 14 C    -0.02852    0.01412    0.00998
 15 C     0.01067    0.02053   -0.01732
 16 C    -0.00777   -0.02582    0.01377
 17 C     0.07226    0.08580   -0.04433
 18 C     0.01939   -0.01134   -0.01765
 19 C    -0.03116   -0.07131    0.05408
 20 C    -0.01978   -0.00952   -0.00646
 21 C     0.00916   -0.01209    0.00759
 22 C     0.00967   -0.01043   -0.00690
 23 C    -0.03309   -0.00769    0.00390

System changes: positions 

Initializing position-dependent things.

Density initialized from wave functions
           .--------------------------------------.  
          /|                                      |  
         / |                                      |  
        /  |                                      |  
       /   |                                      |  
      /    |                                      |  
     /     |                                      |  
    /      |                                      |  
   /       |                                      |  
  /        |                C C C                 |  
 *         |             C  C C                   |  
 |         |           CC    C                    |  
 |         .----------C-C-C-----------------------.  
 |        /        CC    C                       /   
 |       /     C CCC  C                         /    
 |      /    CC   C                            /     
 |     /                                      /      
 |    /                                      /       
 |   /                                      /        
 |  /                                      /         
 | /                                      /          
 |/                                      /           
 *--------------------------------------*            

Positions:
   0 C      7.745067    7.208189    5.210516
   1 C      8.973922    7.892204    5.543584
   2 C      8.163665   10.833271    5.069590
   3 C     10.435381    8.389095    6.760756
   4 C     10.044168    7.068198    6.177230
   5 C      9.224611   10.514541    5.679809
   6 C      9.640316    9.185225    5.922544
   7 C      7.014740   10.353247    4.522732
   8 C      6.562457    7.792362    4.517419
   9 C      6.559449    9.191313    4.357247
  10 C     10.075363    5.737030    6.134980
  11 C      9.002438    4.963462    5.659936
  12 C      7.796826    5.763265    5.332331
  13 C      8.785401    3.595082    5.319236
  14 C      7.743936    3.090521    4.766774
  15 C      6.626444    5.093783    4.961542
  16 C      6.524851    3.688827    4.485361
  17 C      2.962339    8.959492    1.500035
  18 C      3.766979    8.281841    2.332103
  19 C      2.354566    9.709519    0.625717
  20 C      4.550012    7.643043    3.089336
  21 C      5.731789    4.306360    3.406432
  22 C      5.489339    7.003843    3.901048
  23 C      5.575124    5.594543    4.134405

Unit cell:
           periodic     x           y           z      points  spacing
  1. axis:    yes   16.000000    0.000000    0.000000    80     0.2000
  2. axis:    yes    0.000000   16.000000    0.000000    80     0.2000
  3. axis:    yes    0.000000    0.000000   10.000000    48     0.2083

Effective grid spacing dv^(1/3) = 0.2027

                     log10-error:    total        iterations:
           time      wfs    density  energy       fermi  poisson
iter:   1  12:31:25          +inf  -179.190960    3      5      
iter:   2  12:31:25         -2.75  -179.190944    2      1      
iter:   3  12:31:26         -2.84  -179.190272    2      1      
iter:   4  12:31:26         -2.96  -179.190061    2      1      
iter:   5  12:31:27         -3.06  -179.189292    3      1      
iter:   6  12:31:28         -3.27  -179.190683    2      2      
iter:   7  12:31:28         -3.53  -179.191394    2      1      
iter:   8  12:31:29         -3.67  -179.191172    2      1      
iter:   9  12:31:29         -3.82  -179.190905    2      1      
iter:  10  12:31:30         -3.96  -179.191087    2      1      
iter:  11  12:31:30         -4.09  -179.191292    2      1      

Converged after 11 iterations.

Dipole moment: (1.085983, -0.602710, -3.615388) |e|*Ang

Energy contributions relative to reference atoms: (reference = -24663.074771)

Kinetic:       +111.351881
Potential:     -119.006813
External:        +0.000000
XC:            -174.399451
Entropy (-ST):   -0.324811
Local:           +3.025497
--------------------------
Free energy:   -179.353698
Extrapolated:  -179.191292

Fermi level: -4.78236

 Band  Eigenvalues  Occupancy
    0    -23.78622    2.00000
    1    -23.29332    2.00000
    2    -21.75419    2.00000
    3    -21.61917    2.00000
    4    -20.89692    2.00000
    5    -20.01076    2.00000
    6    -19.65595    2.00000
    7    -19.38210    2.00000
    8    -18.91437    2.00000
    9    -18.11670    2.00000
   10    -17.54486    2.00000
   11    -17.16660    2.00000
   12    -17.06690    2.00000
   13    -15.97387    2.00000
   14    -15.59752    2.00000
   15    -15.01458    2.00000
   16    -14.52713    2.00000
   17    -14.13398    2.00000
   18    -13.62444    2.00000
   19    -13.13651    2.00000
   20    -12.89793    2.00000
   21    -12.68334    2.00000
   22    -12.26338    2.00000
   23    -11.49172    2.00000
   24    -11.12137    2.00000
   25    -11.01068    2.00000
   26    -10.68635    2.00000
   27    -10.59971    2.00000
   28    -10.29337    2.00000
   29    -10.08628    2.00000
   30     -9.74122    2.00000
   31     -9.49069    2.00000
   32     -8.93942    2.00000
   33     -8.70234    2.00000
   34     -8.61980    2.00000
   35     -8.15872    2.00000
   36     -7.72866    2.00000
   37     -7.36817    2.00000
   38     -7.21799    2.00000
   39     -6.96837    2.00000
   40     -6.61749    2.00000
   41     -6.34791    2.00000
   42     -5.68875    1.99977
   43     -5.36671    1.99422
   44     -5.23711    1.97904
   45     -5.16117    1.95573
   46     -4.99230    1.78169
   47     -4.94236    1.66405
   48     -4.70209    0.61893
   49     -4.20743    0.00635
   50     -3.87364    0.00023
   51     -3.30205    0.00000
   52     -2.99229    0.00000
   53     -2.73932    0.00000
   54     -2.60302    0.00000
   55     -2.42916    0.00000
   56     -1.46353    0.00000
   57     -1.22449    0.00000
   58     -0.89601    0.00000
   59     -0.20638    0.00000
   60      0.01496    0.00000
   61      0.92826    0.00000
   62      1.64936    0.00000
   63      2.45092    0.00000
   64      2.80357    0.00000
   65      3.07865    0.00000
   66      3.51691    0.00000
   67      3.68217    0.00000
   68      4.03687    0.00000
   69      4.22703    0.00000
   70      4.53265    0.00000
   71      4.92661    0.00000
   72      5.28899    0.00000
   73      5.72854    0.00000
   74      5.88079    0.00000
   75      6.21318    0.00000
   76      6.81267    0.00000
   77      6.98826    0.00000
   78      7.10201    0.00000
   79      7.31849    0.00000
   80      7.82737    0.00000
   81      8.22912    0.00000
   82      8.45672    0.00000
   83      8.56705    0.00000
   84      8.67844    0.00000
   85      8.80459    0.00000
   86      8.96506    0.00000
   87      9.03642    0.00000
   88      9.17221    0.00000
   89      9.28237    0.00000
   90      9.37048    0.00000
   91      9.52465    0.00000
   92      9.57541    0.00000
   93      9.81231    0.00000
   94      9.89477    0.00000
   95      9.97912    0.00000
   96      9.99879    0.00000
   97     10.18155    0.00000


Forces in eV/Ang:
  0 C     0.03718    0.00331   -0.04578
  1 C     0.01124   -0.00398    0.01845
  2 C    -0.04637    0.04065   -0.02553
  3 C    -0.02502    0.03153   -0.01850
  4 C     0.00686   -0.01283    0.02827
  5 C     0.04131    0.03196    0.02440
  6 C    -0.03252   -0.04867    0.03607
  7 C     0.03313    0.00275    0.00506
  8 C    -0.00215   -0.00666    0.02528
  9 C     0.00706   -0.01024    0.00133
 10 C    -0.00865   -0.01227   -0.02145
 11 C    -0.02355   -0.00234   -0.04241
 12 C    -0.01466    0.03100   -0.01741
 13 C     0.01793   -0.00336    0.02968
 14 C    -0.02639   -0.01839    0.01528
 15 C    -0.02559    0.00764    0.00624
 16 C     0.01599   -0.00377   -0.01751
 17 C     0.04396    0.04705   -0.02998
 18 C     0.02219    0.00871   -0.02359
 19 C    -0.05548   -0.07543    0.02821
 20 C     0.04252   -0.03802    0.01940
 21 C    -0.00446   -0.02567   -0.00203
 22 C    -0.01224    0.01150   -0.02444
 23 C    -0.04204   -0.01568    0.01921

