
  ___ ___ ___ _ _ _  
 |   |   |_  | | | | 
 | | | | | . | | | | 
 |__ |  _|___|_____|  1.3.0b1
 |___|_|             

User:   esb@s65n11.grendel.cscaa.dk
Date:   Thu Nov  9 09:32:27 2017
Arch:   x86_64
Pid:    74666
Python: 2.7.13
gpaw:   /home/esb/DFT/gpaw_git/gpaw
_gpaw:  /home/esb/DFT/gpaw_git/build/bin.linux-x86_64-2.7/gpaw-python
ase:    /home/esb/DFT/ase_git/ase (version 3.15.0b1)
numpy:  /comm/swstack/core/python/2.7.13/lib/python2.7/site-packages/numpy (version 1.13.3)
scipy:  /comm/swstack/core/python/2.7.13/lib/python2.7/site-packages/scipy (version 0.19.1)
units:  Angstrom and eV
cores:  16
Extra parameters: {'blacs': True}

Input parameters:
  basis: dzp
  gpts: [80 80 48]
  kpts: [1 1 1]
  maxiter: 99
  mixer: {backend: pulay,
          beta: 0.05,
          method: separate,
          nmaxold: 5,
          weight: 75}
  mode: lcao
  nbands: -50
  occupations: {name: fermi-dirac,
                width: 0.1}
  poissonsolver: {eps: 1e-07,
                  name: fd,
                  nn: 3,
                  relax: GS}
  xc: PBE

System changes: positions, numbers, cell, pbc, initial_charges, initial_magmoms 

Initialize ...

C-setup:
  name: Carbon
  id: 4aa54d4b901d75f77cc0ea3eec22967b
  Z: 6
  valence: 4
  core: 2
  charge: 0.0
  file: /home/esb/DFT/gpaw-setups-0.8.7929/C.PBE.gz
  cutoffs: 0.64(comp), 1.14(filt), 1.14(core), lmax=2
  valence states:
                energy  radius
    2s(2.00)   -13.751   0.635
    2p(2.00)    -5.284   0.635
    *s          13.461   0.635
    *p          21.927   0.635
    *d           0.000   0.635

  LCAO basis set for C:
    Name: dzp
    File: /home/esb/DFT/gpaw-setups-0.8.7929/C.dzp.basis.gz
    Number of radial functions: 5
    Number of spherical harmonics: 13
      l=0, rc=5.5469 Bohr: 2s-sz confined orbital
      l=1, rc=6.6719 Bohr: 2p-sz confined orbital
      l=0, rc=3.0312 Bohr: 2s-dz split-valence wave
      l=1, rc=3.7500 Bohr: 2p-dz split-valence wave
      l=2, rc=6.6719 Bohr: d-type Gaussian polarization

Reference energy: -24663.074771

Spin-paired calculation

Occupation numbers:
  Fermi-Dirac: width=0.1000 eV

Convergence criteria:
  Maximum total energy change: 0.0005 eV / electron
  Maximum integral of absolute density change: 0.0001 electrons
  Maximum integral of absolute eigenstate change: 4e-08 eV^2
  Maximum number of iterations: 99

Symmetries present (total): 1

  ( 1  0  0)
  ( 0  1  0)
  ( 0  0  1)

1 k-point (Gamma)
1 k-point in the irreducible part of the Brillouin zone
       k-points in crystal coordinates                weights
   0:     0.00000000    0.00000000    0.00000000          1/1

Wave functions: LCAO
  Diagonalizer: Serial LAPACK
  Atomic Correction: dense with blas
  Datatype: float
  Eigensolver: None 

LCAO using direct dense diagonalizer 

Densities:
  Coarse grid: 80*80*48 grid
  Fine grid: 160*160*96 grid
  Total Charge: 0.000000 

Density mixing:
  Method: separate
  Backend: pulay
  Linear mixing parameter: 0.05
  Mixing with 5 old densities
  Damping of long wave oscillations: 75 

Hamiltonian:
  XC and Coulomb potentials evaluated on a 160*160*96 grid
  Using the PBE Exchange-Correlation functional
  Interpolation: tri-quintic (5. degree polynomial)
  Poisson solver: Gauss-Seidel solver with 6 multi-grid levels
    Coarsest grid: 5 x 5 x 3 points
    Stencil: 6*3+1=19 point O(h^6) finite-difference Laplacian
    Max iterations: 1000
    Tolerance: 1.000000e-07 

Memory estimate:
  Process memory now: 77.57 MiB
  Calculator: 15.59 MiB
    Density: 6.13 MiB
      Arrays: 3.81 MiB
      Localized functions: 0.86 MiB
      Mixer: 1.46 MiB
    Hamiltonian: 5.40 MiB
      Arrays: 2.49 MiB
      XC: 0.00 MiB
      Poisson: 2.85 MiB
      vbar: 0.07 MiB
    Wavefunctions: 4.05 MiB
      C [qnM]: 0.23 MiB
      S, T [2 x qmm]: 1.49 MiB
      P [aqMi]: 0.01 MiB
      TCI: 0.00 MiB
      BasisFunctions: 2.33 MiB
      Eigensolver: 0.00 MiB

Total number of cores used: 16
Domain decomposition: 2 x 4 x 2

Number of atoms: 24
Number of atomic orbitals: 312
Number of bands in calculation: 98
Bands to converge: occupied states only
Number of valence electrons: 96

... initialized

Initializing position-dependent things.

Density initialized from atomic densities
           .--------------------------------------.  
          /|                                      |  
         / |                                      |  
        /  |                                      |  
       /   |                                      |  
      /    |                                      |  
     /     |                                      |  
    /      |                                      |  
   /       |                                      |  
  /        |         C C                          |  
 *         |   C C  CC    C  C                    |  
 |         | C             C    C                 |  
 |         .-----C------C-------C-----------------.  
 |        /      C C   C       C  C              /   
 |       /         C     C  C                   /    
 |      /             C                        /     
 |     /                                      /      
 |    /                                      /       
 |   /                                      /        
 |  /                                      /         
 | /                                      /          
 |/                                      /           
 *--------------------------------------*            

Positions:
   0 C      5.041381   12.134258    4.838565
   1 C      3.405582    6.559922    5.598811
   2 C      6.274730    4.533318    4.862656
   3 C      7.567119    5.330725    4.779731
   4 C     11.052407    5.231061    4.462846
   5 C      5.116442    5.281668    4.997692
   6 C      8.668653    4.274082    4.628508
   7 C      7.906437    3.027591    4.639161
   8 C     10.005737    4.489879    4.508034
   9 C      6.640152    3.162008    4.770322
  10 C     12.041217    6.180850    4.463145
  11 C      4.732581    6.472788    5.059918
  12 C      7.625917    6.738184    4.833321
  13 C     11.075207    7.158035    4.579437
  14 C      8.744317    8.020017    5.153980
  15 C      6.569842   10.046205    5.224577
  16 C     10.366398    9.405956    4.387809
  17 C     10.796407    8.178112    4.309688
  18 C      7.809452   10.175471    4.986225
  19 C      9.016181    9.454922    4.850008
  20 C      5.511718    9.104155    5.462811
  21 C      3.621566    7.860868    5.596709
  22 C      6.146601    7.817678    5.591381
  23 C      4.067361    9.110587    5.528720

Unit cell:
           periodic     x           y           z      points  spacing
  1. axis:    yes   16.000000    0.000000    0.000000    80     0.2000
  2. axis:    yes    0.000000   16.000000    0.000000    80     0.2000
  3. axis:    yes    0.000000    0.000000   10.000000    48     0.2083

Effective grid spacing dv^(1/3) = 0.2027

                     log10-error:    total        iterations:
           time      wfs    density  energy       fermi  poisson
iter:   1  09:32:28          +inf  -170.758242    3      6      
iter:   2  09:32:29         -0.84  -166.379874    3      3      
iter:   3  09:32:30         -0.90  -168.953227    34     3      
iter:   4  09:32:30         -0.82  -164.694435    3      2      
iter:   5  09:32:31         -0.88  -163.674502    4      2      
iter:   6  09:32:31         -0.94  -165.133436    5      3      
iter:   7  09:32:32         -1.03  -163.277724    4      3      
iter:   8  09:32:32         -1.09  -162.883640    5      3      
iter:   9  09:32:33         -1.03  -162.430183    34     3      
iter:  10  09:32:33         -1.23  -162.169141    3      3      
iter:  11  09:32:34         -1.28  -161.989362    34     3      
iter:  12  09:32:34         -1.45  -161.620689    3      3      
iter:  13  09:32:35         -1.66  -161.486533    3      2      
iter:  14  09:32:35         -1.88  -161.463758    3      2      
iter:  15  09:32:36         -1.96  -161.459466    3      3      
iter:  16  09:32:37         -2.10  -161.436534    3      2      
iter:  17  09:32:37         -2.31  -161.427618    3      2      
iter:  18  09:32:38         -2.58  -161.428189    3      2      
iter:  19  09:32:38         -2.82  -161.430683    2      1      
iter:  20  09:32:39         -2.90  -161.426314    3      2      
iter:  21  09:32:39         -3.13  -161.427831    2      1      
iter:  22  09:32:40         -3.21  -161.427084    2      1      
iter:  23  09:32:40         -3.40  -161.422951    2      1      
iter:  24  09:32:40         -3.49  -161.425739    2      1      
iter:  25  09:32:41         -3.52  -161.426623    2      1      
iter:  26  09:32:41         -3.58  -161.429962    2      1      
iter:  27  09:32:42         -3.73  -161.428075    2      1      
iter:  28  09:32:42         -3.87  -161.426821    2      1      
iter:  29  09:32:43         -3.93  -161.426919    2      1      
iter:  30  09:32:43         -4.03  -161.425643    2      1      

Converged after 30 iterations.

Dipole moment: (-0.017217, 0.435307, -0.049857) |e|*Ang

Energy contributions relative to reference atoms: (reference = -24663.074771)

Kinetic:       +124.739627
Potential:     -124.705651
External:        +0.000000
XC:            -164.107652
Entropy (-ST):   -0.582170
Local:           +2.939119
--------------------------
Free energy:   -161.716728
Extrapolated:  -161.425643

Fermi level: -4.64523

 Band  Eigenvalues  Occupancy
    0    -22.39846    2.00000
    1    -22.21977    2.00000
    2    -21.96850    2.00000
    3    -21.26838    2.00000
    4    -20.77452    2.00000
    5    -19.82313    2.00000
    6    -19.67747    2.00000
    7    -19.07987    2.00000
    8    -18.45162    2.00000
    9    -18.35567    2.00000
   10    -17.27698    2.00000
   11    -16.84485    2.00000
   12    -16.41929    2.00000
   13    -15.65136    2.00000
   14    -14.98250    2.00000
   15    -14.54015    2.00000
   16    -13.68399    2.00000
   17    -13.13369    2.00000
   18    -13.08773    2.00000
   19    -12.62573    2.00000
   20    -12.17673    2.00000
   21    -11.86822    2.00000
   22    -11.54482    2.00000
   23    -11.20105    2.00000
   24    -10.69200    2.00000
   25    -10.31281    2.00000
   26    -10.12805    2.00000
   27    -10.01114    2.00000
   28     -9.94620    2.00000
   29     -9.78458    2.00000
   30     -9.43279    2.00000
   31     -9.13156    2.00000
   32     -9.00882    2.00000
   33     -8.42903    2.00000
   34     -7.73088    2.00000
   35     -7.47921    2.00000
   36     -7.30049    2.00000
   37     -7.16854    2.00000
   38     -6.82869    2.00000
   39     -6.28957    2.00000
   40     -6.10393    2.00000
   41     -5.86255    1.99999
   42     -5.68107    1.99994
   43     -5.35619    1.99837
   44     -5.23017    1.99425
   45     -5.15660    1.98804
   46     -4.73292    1.41234
   47     -4.67066    1.12645
   48     -4.59472    0.75268
   49     -4.54898    0.55273
   50     -4.40904    0.17224
   51     -3.98506    0.00271
   52     -3.74126    0.00024
   53     -3.51529    0.00002
   54     -3.23925    0.00000
   55     -2.88373    0.00000
   56     -2.63783    0.00000
   57     -1.74197    0.00000
   58     -1.42002    0.00000
   59     -0.91077    0.00000
   60     -0.53095    0.00000
   61     -0.30626    0.00000
   62     -0.00870    0.00000
   63      0.39687    0.00000
   64      0.48616    0.00000
   65      0.98544    0.00000
   66      1.40533    0.00000
   67      1.86988    0.00000
   68      3.04993    0.00000
   69      3.13326    0.00000
   70      3.56730    0.00000
   71      4.10326    0.00000
   72      4.78888    0.00000
   73      5.18505    0.00000
   74      5.66290    0.00000
   75      5.90942    0.00000
   76      6.06225    0.00000
   77      6.71601    0.00000
   78      6.84748    0.00000
   79      7.09831    0.00000
   80      7.53155    0.00000
   81      7.70505    0.00000
   82      8.13702    0.00000
   83      8.26801    0.00000
   84      8.32077    0.00000
   85      8.71607    0.00000
   86      8.77784    0.00000
   87      8.87198    0.00000
   88      9.04329    0.00000
   89      9.17946    0.00000
   90      9.26509    0.00000
   91      9.45581    0.00000
   92      9.61987    0.00000
   93      9.89471    0.00000
   94      9.92547    0.00000
   95     10.00073    0.00000
   96     10.07421    0.00000
   97     10.28452    0.00000


Forces in eV/Ang:
  0 C     0.45456   -1.19473    0.20114
  1 C    -1.91439    0.67394   -0.61002
  2 C    -0.49246    0.52880    0.07240
  3 C     0.22288    0.75828    0.29660
  4 C    -0.30896   -1.13633    0.15734
  5 C     4.39921   -5.66459   -1.07520
  6 C    -0.21951   -0.49167   -0.18007
  7 C     0.21541    0.17256   -0.01132
  8 C     0.26759    0.10270    0.01813
  9 C     0.06860   -0.10520   -0.05731
 10 C    -0.82833   -1.57223    0.45429
 11 C    -0.33744    3.79559    2.14945
 12 C     0.72362    5.40202    2.16314
 13 C     9.57609  -21.78686    4.58213
 14 C    -2.45840   -3.11522   -1.15702
 15 C    -1.30512    1.39625   -0.00977
 16 C    -2.39597    3.60704   -0.43026
 17 C    -6.48712   21.49338   -4.52529
 18 C     0.83958    0.22835    0.05967
 19 C    -0.58908   -1.72590   -0.00807
 20 C     0.90925   -0.91887   -0.44915
 21 C    -1.14351    2.34752    0.62827
 22 C    -0.28158   -3.67067   -2.91745
 23 C     1.03238    0.85423    0.56628

System changes: positions 

Initializing position-dependent things.

Density initialized from wave functions
           .--------------------------------------.  
          /|                                      |  
         / |                                      |  
        /  |                                      |  
       /   |                                      |  
      /    |                                      |  
     /     |                                      |  
    /      |                                      |  
   /       |                                      |  
  /        |         C C                          |  
 *         |   C C  CC    C  C                    |  
 |         | C             C    C                 |  
 |         .-----C------C-------C-----------------.  
 |        /      C C   C       C  C              /   
 |       /         C     C  C                   /    
 |      /             C                        /     
 |     /                                      /      
 |    /                                      /       
 |   /                                      /        
 |  /                                      /         
 | /                                      /          
 |/                                      /           
 *--------------------------------------*            

Positions:
   0 C      5.042131   12.132286    4.838897
   1 C      3.402423    6.561034    5.597804
   2 C      6.273918    4.534191    4.862775
   3 C      7.567487    5.331977    4.780220
   4 C     11.051897    5.229185    4.463106
   5 C      5.123703    5.272319    4.995917
   6 C      8.668291    4.273270    4.628211
   7 C      7.906793    3.027876    4.639143
   8 C     10.006179    4.490049    4.508064
   9 C      6.640265    3.161835    4.770227
  10 C     12.039850    6.178255    4.463895
  11 C      4.732024    6.479052    5.063466
  12 C      7.627111    6.747100    4.836892
  13 C     11.091012    7.122077    4.586999
  14 C      8.740259    8.014875    5.152070
  15 C      6.567688   10.048510    5.224561
  16 C     10.362444    9.411910    4.387099
  17 C     10.785701    8.213586    4.302219
  18 C      7.810838   10.175848    4.986324
  19 C      9.015209    9.452073    4.849995
  20 C      5.513219    9.102638    5.462070
  21 C      3.619678    7.864743    5.597746
  22 C      6.146136    7.811620    5.586566
  23 C      4.069065    9.111997    5.529655

Unit cell:
           periodic     x           y           z      points  spacing
  1. axis:    yes   16.000000    0.000000    0.000000    80     0.2000
  2. axis:    yes    0.000000   16.000000    0.000000    80     0.2000
  3. axis:    yes    0.000000    0.000000   10.000000    48     0.2083

Effective grid spacing dv^(1/3) = 0.2027

                     log10-error:    total        iterations:
           time      wfs    density  energy       fermi  poisson
iter:   1  09:32:45          +inf  -163.094469    3      5      
iter:   2  09:32:46         -2.06  -163.069068    2      2      
iter:   3  09:32:46         -2.15  -163.074593    3      2      
iter:   4  09:32:47         -2.12  -163.051038    3      2      
iter:   5  09:32:47         -2.32  -163.047187    2      2      
iter:   6  09:32:48         -2.42  -163.041529    3      2      
iter:   7  09:32:48         -2.71  -163.039012    3      2      
iter:   8  09:32:49         -2.87  -163.038389    2      2      
iter:   9  09:32:49         -3.02  -163.038458    2      1      
iter:  10  09:32:50         -3.06  -163.038398    2      2      
iter:  11  09:32:50         -3.34  -163.037906    2      1      
iter:  12  09:32:51         -3.41  -163.036593    2      1      
iter:  13  09:32:51         -3.65  -163.037037    2      1      
iter:  14  09:32:52         -3.87  -163.037500    2      1      
iter:  15  09:32:52         -4.00  -163.037625    2      1      

Converged after 15 iterations.

Dipole moment: (0.082275, 0.425316, -0.061488) |e|*Ang

Energy contributions relative to reference atoms: (reference = -24663.074771)

Kinetic:       +115.423994
Potential:     -118.095353
External:        +0.000000
XC:            -162.932596
Entropy (-ST):   -0.579251
Local:           +2.855956
--------------------------
Free energy:   -163.327250
Extrapolated:  -163.037625

Fermi level: -4.61118

 Band  Eigenvalues  Occupancy
    0    -22.36871    2.00000
    1    -22.21653    2.00000
    2    -21.93454    2.00000
    3    -21.39890    2.00000
    4    -20.77472    2.00000
    5    -19.80756    2.00000
    6    -19.62034    2.00000
    7    -19.05144    2.00000
    8    -18.40028    2.00000
    9    -18.33399    2.00000
   10    -17.25365    2.00000
   11    -16.84543    2.00000
   12    -16.44863    2.00000
   13    -15.62623    2.00000
   14    -14.98107    2.00000
   15    -14.54087    2.00000
   16    -13.67047    2.00000
   17    -13.12137    2.00000
   18    -13.05896    2.00000
   19    -12.69016    2.00000
   20    -12.13479    2.00000
   21    -11.87725    2.00000
   22    -11.56429    2.00000
   23    -11.25692    2.00000
   24    -10.66612    2.00000
   25    -10.27774    2.00000
   26    -10.08607    2.00000
   27     -9.95689    2.00000
   28     -9.90470    2.00000
   29     -9.78824    2.00000
   30     -9.41916    2.00000
   31     -9.13787    2.00000
   32     -8.96222    2.00000
   33     -8.45040    2.00000
   34     -7.74918    2.00000
   35     -7.42868    2.00000
   36     -7.27051    2.00000
   37     -7.16940    2.00000
   38     -6.85340    2.00000
   39     -6.26752    2.00000
   40     -6.10736    2.00000
   41     -5.87658    1.99999
   42     -5.64894    1.99994
   43     -5.37698    1.99906
   44     -5.23953    1.99627
   45     -5.13038    1.98894
   46     -4.69225    1.38455
   47     -4.64898    1.18680
   48     -4.54738    0.69139
   49     -4.52077    0.57642
   50     -4.37618    0.17414
   51     -3.93175    0.00224
   52     -3.70221    0.00023
   53     -3.51047    0.00003
   54     -3.27270    0.00000
   55     -2.82480    0.00000
   56     -2.59009    0.00000
   57     -1.70777    0.00000
   58     -1.38750    0.00000
   59     -0.88916    0.00000
   60     -0.57561    0.00000
   61     -0.30247    0.00000
   62     -0.09527    0.00000
   63      0.39464    0.00000
   64      0.52340    0.00000
   65      0.89189    0.00000
   66      1.44729    0.00000
   67      1.84014    0.00000
   68      3.02811    0.00000
   69      3.11855    0.00000
   70      3.51905    0.00000
   71      3.84038    0.00000
   72      4.86656    0.00000
   73      5.17716    0.00000
   74      5.68133    0.00000
   75      5.93858    0.00000
   76      6.09248    0.00000
   77      6.70162    0.00000
   78      6.87760    0.00000
   79      7.13468    0.00000
   80      7.52713    0.00000
   81      7.71546    0.00000
   82      8.15443    0.00000
   83      8.28062    0.00000
   84      8.36600    0.00000
   85      8.73578    0.00000
   86      8.80841    0.00000
   87      8.90266    0.00000
   88      9.05341    0.00000
   89      9.16717    0.00000
   90      9.26122    0.00000
   91      9.48192    0.00000
   92      9.62944    0.00000
   93      9.89338    0.00000
   94      9.90030    0.00000
   95     10.01077    0.00000
   96     10.05177    0.00000
   97     10.29237    0.00000


Forces in eV/Ang:
  0 C     0.44168   -1.18694    0.20062
  1 C    -1.75548    0.72148   -0.65169
  2 C    -0.18709    0.42630    0.01560
  3 C     0.26211    0.99672    0.28582
  4 C    -0.64898   -1.37676    0.15126
  5 C     3.59734   -4.32206   -0.93577
  6 C    -0.33513   -0.49269   -0.17054
  7 C     0.20791    0.19231   -0.01423
  8 C     0.31857    0.14064    0.02378
  9 C     0.15333   -0.15909   -0.06676
 10 C     0.22848   -1.93168    0.30428
 11 C     0.03964    2.65917    2.14076
 12 C     0.56873    5.19450    2.27955
 13 C     5.55929   -9.77935    1.93934
 14 C    -2.32700   -3.31239   -1.23193
 15 C    -1.05599    1.34808   -0.04039
 16 C    -2.45265    4.50881   -0.40437
 17 C    -2.71760    9.25660   -1.87166
 18 C     0.61785    0.27592    0.08040
 19 C    -1.04363   -1.66014    0.16772
 20 C     0.94729   -0.93539   -0.41910
 21 C    -1.13390    2.31830    0.61499
 22 C    -0.33895   -3.69298   -3.03379
 23 C     1.00732    0.84506    0.56847

System changes: positions 

Initializing position-dependent things.

Density initialized from wave functions
           .--------------------------------------.  
          /|                                      |  
         / |                                      |  
        /  |                                      |  
       /   |                                      |  
      /    |                                      |  
     /     |                                      |  
    /      |                                      |  
   /       |                                      |  
  /        |         C C                          |  
 *         |   C C  CC    C  C                    |  
 |         | C             C    C                 |  
 |         .-----C------C-------CC----------------.  
 |        /      C C   C       C  C              /   
 |       /         C     C  C                   /    
 |      /             C                        /     
 |     /                                      /      
 |    /                                      /       
 |   /                                      /        
 |  /                                      /         
 | /                                      /          
 |/                                      /           
 *--------------------------------------*            

Positions:
   0 C      5.045190   12.123946    4.840310
   1 C      3.390745    6.566337    5.593020
   2 C      6.273960    4.536742    4.862632
   3 C      7.569511    5.340073    4.782189
   4 C     11.045802    5.218399    4.464146
   5 C      5.145509    5.247811    4.989937
   6 C      8.665410    4.269789    4.627050
   7 C      7.908226    3.029321    4.639029
   8 C     10.008654    4.491210    4.508257
   9 C      6.641725    3.160472    4.769714
  10 C     12.046175    6.163022    4.465373
  11 C      4.733986    6.492747    5.078532
  12 C      7.630433    6.782826    4.853495
  13 C     11.112323    7.106628    4.588896
  14 C      8.724426    7.990624    5.143044
  15 C      6.561348   10.057807    5.224140
  16 C     10.344885    9.447745    4.384362
  17 C     10.783337    8.224324    4.300847
  18 C      7.814209   10.178007    4.986984
  19 C      9.005818    9.440653    4.851962
  20 C      5.520072    9.095965    5.459247
  21 C      3.611720    7.880970    5.602026
  22 C      6.143489    7.785463    5.564641
  23 C      4.076061    9.117919    5.533676

Unit cell:
           periodic     x           y           z      points  spacing
  1. axis:    yes   16.000000    0.000000    0.000000    80     0.2000
  2. axis:    yes    0.000000   16.000000    0.000000    80     0.2000
  3. axis:    yes    0.000000    0.000000   10.000000    48     0.2083

Effective grid spacing dv^(1/3) = 0.2027

                     log10-error:    total        iterations:
           time      wfs    density  energy       fermi  poisson
iter:   1  09:32:54          +inf  -164.730902    3      5      
iter:   2  09:32:54         -1.70  -164.527783    4      2      
iter:   3  09:32:55         -1.80  -164.521701    4      2      
iter:   4  09:32:55         -1.90  -164.458077    3      2      
iter:   5  09:32:56         -2.19  -164.443553    3      2      
iter:   6  09:32:56         -2.33  -164.437922    3      2      
iter:   7  09:32:57         -2.48  -164.433034    3      2      
iter:   8  09:32:57         -2.56  -164.434397    2      2      
iter:   9  09:32:58         -2.71  -164.434079    3      2      
iter:  10  09:32:58         -2.90  -164.432696    2      2      
iter:  11  09:32:59         -3.09  -164.434012    2      1      
iter:  12  09:32:59         -3.25  -164.433022    2      1      
iter:  13  09:33:00         -3.36  -164.432198    2      1      
iter:  14  09:33:00         -3.50  -164.432869    2      1      
iter:  15  09:33:01         -3.63  -164.432404    2      1      
iter:  16  09:33:01         -3.83  -164.432621    2      1      
iter:  17  09:33:02         -3.89  -164.432466    2      1      
iter:  18  09:33:02         -4.00  -164.432395    2      1      
iter:  19  09:33:03         -4.19  -164.432746    2      1      

Converged after 19 iterations.

Dipole moment: (0.080029, 0.407899, -0.049782) |e|*Ang

Energy contributions relative to reference atoms: (reference = -24663.074771)

Kinetic:       +104.900810
Potential:     -110.497094
External:        +0.000000
XC:            -161.424603
Entropy (-ST):   -0.572864
Local:           +2.874574
--------------------------
Free energy:   -164.719178
Extrapolated:  -164.432746

Fermi level: -4.64665

 Band  Eigenvalues  Occupancy
    0    -22.29710    2.00000
    1    -22.10145    2.00000
    2    -21.87360    2.00000
    3    -21.39072    2.00000
    4    -20.65858    2.00000
    5    -19.76531    2.00000
    6    -19.57493    2.00000
    7    -19.02612    2.00000
    8    -18.33615    2.00000
    9    -18.28907    2.00000
   10    -17.28608    2.00000
   11    -16.72416    2.00000
   12    -16.52004    2.00000
   13    -15.54262    2.00000
   14    -15.09773    2.00000
   15    -14.55608    2.00000
   16    -13.65505    2.00000
   17    -13.12611    2.00000
   18    -13.10201    2.00000
   19    -12.58075    2.00000
   20    -12.08639    2.00000
   21    -11.92480    2.00000
   22    -11.56511    2.00000
   23    -11.28419    2.00000
   24    -10.65322    2.00000
   25    -10.22240    2.00000
   26    -10.05962    2.00000
   27     -9.91587    2.00000
   28     -9.86327    2.00000
   29     -9.73398    2.00000
   30     -9.40883    2.00000
   31     -9.22889    2.00000
   32     -8.91595    2.00000
   33     -8.42511    2.00000
   34     -7.70486    2.00000
   35     -7.42485    2.00000
   36     -7.24919    2.00000
   37     -7.15540    2.00000
   38     -6.81773    2.00000
   39     -6.30348    2.00000
   40     -6.13331    2.00000
   41     -5.84781    1.99999
   42     -5.62410    1.99989
   43     -5.42963    1.99920
   44     -5.27413    1.99624
   45     -5.14299    1.98612
   46     -4.74503    1.45570
   47     -4.67627    1.14699
   48     -4.57504    0.65648
   49     -4.55884    0.58712
   50     -4.40928    0.17039
   51     -3.93993    0.00170
   52     -3.69272    0.00014
   53     -3.52608    0.00003
   54     -3.30799    0.00000
   55     -2.71684    0.00000
   56     -2.55575    0.00000
   57     -1.70202    0.00000
   58     -1.35433    0.00000
   59     -0.86001    0.00000
   60     -0.56969    0.00000
   61     -0.32713    0.00000
   62     -0.02107    0.00000
   63      0.41785    0.00000
   64      0.79631    0.00000
   65      0.96484    0.00000
   66      1.56831    0.00000
   67      1.81711    0.00000
   68      2.96834    0.00000
   69      3.09153    0.00000
   70      3.49179    0.00000
   71      3.77460    0.00000
   72      4.98166    0.00000
   73      5.23440    0.00000
   74      5.60911    0.00000
   75      5.95645    0.00000
   76      6.07702    0.00000
   77      6.58512    0.00000
   78      6.89093    0.00000
   79      7.13231    0.00000
   80      7.44562    0.00000
   81      7.65385    0.00000
   82      8.16696    0.00000
   83      8.28981    0.00000
   84      8.39679    0.00000
   85      8.76390    0.00000
   86      8.78478    0.00000
   87      8.95632    0.00000
   88      9.04762    0.00000
   89      9.14653    0.00000
   90      9.26395    0.00000
   91      9.52211    0.00000
   92      9.61683    0.00000
   93      9.83226    0.00000
   94      9.85401    0.00000
   95      9.99291    0.00000
   96      9.99818    0.00000
   97     10.20060    0.00000


Forces in eV/Ang:
  0 C     0.49252   -1.26693    0.23437
  1 C    -1.13803    1.06577   -0.77291
  2 C     0.87813   -0.10404   -0.14542
  3 C     0.44809    1.27039    0.25768
  4 C     0.16093   -0.89501    0.10726
  5 C     1.46672   -1.16678   -0.51553
  6 C    -0.28169   -0.09235   -0.13633
  7 C    -0.02053    0.11144   -0.01519
  8 C    -0.50965   -0.31596    0.07316
  9 C     0.40755   -0.26662   -0.08488
 10 C     0.33166   -2.16391    0.26361
 11 C     0.80055    0.59970    2.14303
 12 C     0.39865    4.47278    2.39091
 13 C     4.30763   -5.82254    1.10794
 14 C    -2.26129   -3.10081   -1.40741
 15 C    -0.56340    1.34932   -0.13652
 16 C    -1.42058    2.43199   -0.53971
 17 C    -2.48428    7.48951   -0.88975
 18 C    -0.13130    0.23043    0.23502
 19 C    -1.11634   -1.76598    0.24890
 20 C     0.98239   -1.16802   -0.32666
 21 C    -1.19922    1.77478    0.56538
 22 C    -0.59867   -3.52765   -3.23367
 23 C     1.06360    0.89801    0.53410

System changes: positions 

Initializing position-dependent things.

Density initialized from wave functions
           .--------------------------------------.  
          /|                                      |  
         / |                                      |  
        /  |                                      |  
       /   |                                      |  
      /    |                                      |  
     /     |                                      |  
    /      |                                      |  
   /       |                                      |  
  /        |         C C                          |  
 *         |   C C  C     C  C                    |  
 |         | C       C     C    C                 |  
 |         .-----C------C-------CC----------------.  
 |        /      C C   C       C  C              /   
 |       /         C     C  C                   /    
 |      /             C                        /     
 |     /                                      /      
 |    /                                      /       
 |   /                                      /        
 |  /                                      /         
 | /                                      /          
 |/                                      /           
 *--------------------------------------*            

Positions:
   0 C      5.049074   12.113873    4.842178
   1 C      3.382281    6.575021    5.586709
   2 C      6.282100    4.535512    4.861264
   3 C      7.573232    5.351035    4.784202
   4 C     11.045993    5.210490    4.464975
   5 C      5.154247    5.243410    4.986347
   6 C      8.662775    4.269087    4.626000
   7 C      7.908016    3.030269    4.638898
   8 C     10.004692    4.488781    4.508864
   9 C      6.645286    3.158153    4.769004
  10 C     12.052449    6.144531    4.466955
  11 C      4.741726    6.493438    5.095573
  12 C      7.633062    6.817677    4.872950
  13 C     11.132754    7.101767    4.588587
  14 C      8.706870    7.965267    5.131559
  15 C      6.557760   10.068390    5.222938
  16 C     10.333471    9.470016    4.380138
  17 C     10.776489    8.241881    4.302946
  18 C      7.812333   10.180002    4.988941
  19 C      8.995361    9.426801    4.854555
  20 C      5.528031    9.086582    5.456756
  21 C      3.602195    7.894957    5.606480
  22 C      6.138499    7.757301    5.538465
  23 C      4.084453    9.125046    5.537934

Unit cell:
           periodic     x           y           z      points  spacing
  1. axis:    yes   16.000000    0.000000    0.000000    80     0.2000
  2. axis:    yes    0.000000   16.000000    0.000000    80     0.2000
  3. axis:    yes    0.000000    0.000000   10.000000    48     0.2083

Effective grid spacing dv^(1/3) = 0.2027

                     log10-error:    total        iterations:
           time      wfs    density  energy       fermi  poisson
iter:   1  09:33:04          +inf  -165.779236    3      5      
iter:   2  09:33:05         -1.76  -165.598670    3      2      
iter:   3  09:33:05         -2.02  -165.594339    3      2      
iter:   4  09:33:06         -2.02  -165.557534    3      2      
iter:   5  09:33:07         -2.25  -165.549264    3      2      
iter:   6  09:33:07         -2.42  -165.541046    2      2      
iter:   7  09:33:08         -2.61  -165.540803    2      2      
iter:   8  09:33:08         -2.69  -165.540023    2      2      
iter:   9  09:33:09         -2.86  -165.540048    2      2      
iter:  10  09:33:09         -3.03  -165.539709    2      2      
iter:  11  09:33:10         -3.27  -165.539125    2      1      
iter:  12  09:33:10         -3.37  -165.539681    2      1      
iter:  13  09:33:11         -3.42  -165.539388    2      1      
iter:  14  09:33:11         -3.61  -165.538704    2      1      
iter:  15  09:33:12         -3.67  -165.539548    2      1      
iter:  16  09:33:12         -3.95  -165.539522    2      1      
iter:  17  09:33:13         -4.10  -165.539545    2      1      

Converged after 17 iterations.

Dipole moment: (0.074135, 0.379154, -0.037188) |e|*Ang

Energy contributions relative to reference atoms: (reference = -24663.074771)

Kinetic:        +98.232302
Potential:     -105.713421
External:        +0.000000
XC:            -160.650931
Entropy (-ST):   -0.562352
Local:           +2.873681
--------------------------
Free energy:   -165.820721
Extrapolated:  -165.539545

Fermi level: -4.66373

 Band  Eigenvalues  Occupancy
    0    -22.25410    2.00000
    1    -22.00867    2.00000
    2    -21.81588    2.00000
    3    -21.35551    2.00000
    4    -20.57753    2.00000
    5    -19.75882    2.00000
    6    -19.49724    2.00000
    7    -19.04502    2.00000
    8    -18.35660    2.00000
    9    -18.20885    2.00000
   10    -17.30783    2.00000
   11    -16.66453    2.00000
   12    -16.55894    2.00000
   13    -15.50558    2.00000
   14    -15.16539    2.00000
   15    -14.57667    2.00000
   16    -13.61817    2.00000
   17    -13.12901    2.00000
   18    -13.12135    2.00000
   19    -12.51612    2.00000
   20    -12.05752    2.00000
   21    -11.91053    2.00000
   22    -11.55876    2.00000
   23    -11.31845    2.00000
   24    -10.64874    2.00000
   25    -10.18706    2.00000
   26    -10.07240    2.00000
   27     -9.91680    2.00000
   28     -9.80857    2.00000
   29     -9.67956    2.00000
   30     -9.40974    2.00000
   31     -9.34066    2.00000
   32     -8.89426    2.00000
   33     -8.39716    2.00000
   34     -7.66289    2.00000
   35     -7.44239    2.00000
   36     -7.23716    2.00000
   37     -7.15734    2.00000
   38     -6.80614    2.00000
   39     -6.37057    2.00000
   40     -6.17839    2.00000
   41     -5.85889    1.99999
   42     -5.59198    1.99981
   43     -5.44385    1.99918
   44     -5.28227    1.99589
   45     -5.14808    1.98436
   46     -4.78343    1.53599
   47     -4.68530    1.10745
   48     -4.58382    0.62043
   49     -4.57646    0.58940
   50     -4.42361    0.16617
   51     -3.92001    0.00118
   52     -3.68675    0.00011
   53     -3.54402    0.00003
   54     -3.32323    0.00000
   55     -2.62984    0.00000
   56     -2.48782    0.00000
   57     -1.69276    0.00000
   58     -1.26620    0.00000
   59     -0.85263    0.00000
   60     -0.53890    0.00000
   61     -0.31824    0.00000
   62      0.13664    0.00000
   63      0.45171    0.00000
   64      0.87748    0.00000
   65      1.19704    0.00000
   66      1.73173    0.00000
   67      1.84934    0.00000
   68      2.92523    0.00000
   69      3.09187    0.00000
   70      3.47399    0.00000
   71      3.74998    0.00000
   72      5.08905    0.00000
   73      5.26929    0.00000
   74      5.54167    0.00000
   75      5.92666    0.00000
   76      6.02278    0.00000
   77      6.51013    0.00000
   78      6.92030    0.00000
   79      7.12176    0.00000
   80      7.42129    0.00000
   81      7.64368    0.00000
   82      8.15605    0.00000
   83      8.30536    0.00000
   84      8.41566    0.00000
   85      8.77185    0.00000
   86      8.79247    0.00000
   87      9.00653    0.00000
   88      9.05299    0.00000
   89      9.10616    0.00000
   90      9.30055    0.00000
   91      9.55602    0.00000
   92      9.58172    0.00000
   93      9.72552    0.00000
   94      9.82234    0.00000
   95      9.96243    0.00000
   96     10.00681    0.00000
   97     10.11795    0.00000


Forces in eV/Ang:
  0 C     0.53252   -1.34711    0.25838
  1 C    -0.71526    1.25797   -0.81841
  2 C     0.90938    0.06285   -0.14692
  3 C     0.43083    1.23361    0.23742
  4 C    -0.01233   -1.02202    0.11476
  5 C     1.17069   -0.87573   -0.39795
  6 C    -0.32943    0.18278   -0.09855
  7 C     0.05110    0.05519   -0.03664
  8 C    -0.31537   -0.23029    0.06559
  9 C     0.30753   -0.27971   -0.08331
 10 C     0.26092   -1.79365    0.23832
 11 C     0.86568    0.69339    2.18910
 12 C     0.01517    3.80860    2.42531
 13 C     3.54154   -3.26199    0.47337
 14 C    -2.10733   -2.72792   -1.44884
 15 C    -0.71304    1.20820   -0.08641
 16 C    -1.23980    1.86324   -0.46659
 17 C    -1.76108    5.18353   -0.26944
 18 C    -0.14319    0.13278    0.25237
 19 C    -0.97992   -1.79523    0.24442
 20 C     1.04420   -1.31918   -0.28450
 21 C    -1.16575    1.51713    0.50925
 22 C    -0.73321   -3.26719   -3.33944
 23 C     1.03240    0.79152    0.49677

System changes: positions 

Initializing position-dependent things.

Density initialized from wave functions
           .--------------------------------------.  
          /|                                      |  
         / |                                      |  
        /  |                                      |  
       /   |                                      |  
      /    |                                      |  
     /     |                                      |  
    /      |                                      |  
   /       |                                      |  
  /        |         C C                          |  
 *         |   C C  C     C  C                    |  
 |         | C       C     C    C                 |  
 |         .-----C------C-------CC----------------.  
 |        /      C C   C       C  C              /   
 |       /         C     C  C                   /    
 |      /             C                        /     
 |     /                                      /      
 |    /                                      /       
 |   /                                      /        
 |  /                                      /         
 | /                                      /          
 |/                                      /           
 *--------------------------------------*            

Positions:
   0 C      5.053641   12.102303    4.844414
   1 C      3.377385    6.586120    5.579633
   2 C      6.289959    4.536562    4.859984
   3 C      7.576818    5.361718    4.786150
   4 C     11.044334    5.200770    4.465977
   5 C      5.162824    5.237879    4.983365
   6 C      8.659599    4.271183    4.625270
   7 C      7.908744    3.030663    4.638524
   8 C     10.003068    4.487369    4.509385
   9 C      6.647658    3.155696    4.768293
  10 C     12.056515    6.129755    4.468626
  11 C      4.749603    6.498337    5.114217
  12 C      7.631921    6.848063    4.893756
  13 C     11.153291    7.103030    4.586024
  14 C      8.689674    7.942688    5.119117
  15 C      6.551562   10.078139    5.222331
  16 C     10.322836    9.487075    4.376506
  17 C     10.770930    8.256031    4.307143
  18 C      7.811023   10.180977    4.991089
  19 C      8.986568    9.411703    4.856922
  20 C      5.537100    9.075083    5.454476
  21 C      3.592466    7.907315    5.610637
  22 C      6.131939    7.730219    5.509768
  23 C      4.093031    9.131413    5.542061

Unit cell:
           periodic     x           y           z      points  spacing
  1. axis:    yes   16.000000    0.000000    0.000000    80     0.2000
  2. axis:    yes    0.000000   16.000000    0.000000    80     0.2000
  3. axis:    yes    0.000000    0.000000   10.000000    48     0.2083

Effective grid spacing dv^(1/3) = 0.2027

                     log10-error:    total        iterations:
           time      wfs    density  energy       fermi  poisson
iter:   1  09:33:14          +inf  -166.651120    3      5      
iter:   2  09:33:15         -1.81  -166.516709    3      2      
iter:   3  09:33:15         -2.00  -166.525877    3      2      
iter:   4  09:33:16         -1.99  -166.484407    3      2      
iter:   5  09:33:16         -2.31  -166.474498    2      2      
iter:   6  09:33:17         -2.44  -166.469104    3      2      
iter:   7  09:33:17         -2.63  -166.465763    2      1      
iter:   8  09:33:18         -2.69  -166.466910    2      2      
iter:   9  09:33:18         -2.88  -166.467000    2      2      
iter:  10  09:33:19         -3.04  -166.466368    2      2      
iter:  11  09:33:19         -3.22  -166.465986    2      1      
iter:  12  09:33:20         -3.44  -166.466026    2      1      
iter:  13  09:33:20         -3.51  -166.466327    2      1      
iter:  14  09:33:21         -3.60  -166.466192    2      1      
iter:  15  09:33:21         -3.67  -166.466244    2      1      
iter:  16  09:33:22         -3.81  -166.466689    2      1      
iter:  17  09:33:22         -3.86  -166.466665    2      1      
iter:  18  09:33:23         -4.03  -166.466633    2      1      

Converged after 18 iterations.

Dipole moment: (0.068687, 0.360893, -0.025355) |e|*Ang

Energy contributions relative to reference atoms: (reference = -24663.074771)

Kinetic:        +93.746743
Potential:     -102.557690
External:        +0.000000
XC:            -160.256433
Entropy (-ST):   -0.550327
Local:           +2.875911
--------------------------
Free energy:   -166.741796
Extrapolated:  -166.466633

Fermi level: -4.68043

 Band  Eigenvalues  Occupancy
    0    -22.22549    2.00000
    1    -21.92886    2.00000
    2    -21.77545    2.00000
    3    -21.30904    2.00000
    4    -20.50651    2.00000
    5    -19.75082    2.00000
    6    -19.44526    2.00000
    7    -19.08326    2.00000
    8    -18.39108    2.00000
    9    -18.14366    2.00000
   10    -17.32191    2.00000
   11    -16.62830    2.00000
   12    -16.57323    2.00000
   13    -15.46373    2.00000
   14    -15.23160    2.00000
   15    -14.59624    2.00000
   16    -13.58447    2.00000
   17    -13.15535    2.00000
   18    -13.10561    2.00000
   19    -12.47531    2.00000
   20    -12.03302    2.00000
   21    -11.86445    2.00000
   22    -11.57064    2.00000
   23    -11.35719    2.00000
   24    -10.63683    2.00000
   25    -10.16998    2.00000
   26    -10.10644    2.00000
   27     -9.91276    2.00000
   28     -9.76108    2.00000
   29     -9.63251    2.00000
   30     -9.45996    2.00000
   31     -9.38758    2.00000
   32     -8.87672    2.00000
   33     -8.36827    2.00000
   34     -7.62787    2.00000
   35     -7.47289    2.00000
   36     -7.22609    2.00000
   37     -7.14180    2.00000
   38     -6.80356    2.00000
   39     -6.43842    2.00000
   40     -6.20424    2.00000
   41     -5.86319    1.99999
   42     -5.56025    1.99970
   43     -5.46722    1.99923
   44     -5.29069    1.99554
   45     -5.15844    1.98335
   46     -4.82136    1.60731
   47     -4.69506    1.07301
   48     -4.59894    0.61367
   49     -4.58746    0.56597
   50     -4.43709    0.16133
   51     -3.89584    0.00078
   52     -3.68752    0.00010
   53     -3.56661    0.00003
   54     -3.33357    0.00000
   55     -2.54262    0.00000
   56     -2.41188    0.00000
   57     -1.72076    0.00000
   58     -1.19681    0.00000
   59     -0.86021    0.00000
   60     -0.49397    0.00000
   61     -0.26926    0.00000
   62      0.36272    0.00000
   63      0.50515    0.00000
   64      0.90500    0.00000
   65      1.39451    0.00000
   66      1.77124    0.00000
   67      2.06815    0.00000
   68      2.91318    0.00000
   69      3.09721    0.00000
   70      3.46330    0.00000
   71      3.75957    0.00000
   72      5.15133    0.00000
   73      5.33531    0.00000
   74      5.45229    0.00000
   75      5.93244    0.00000
   76      5.99160    0.00000
   77      6.47715    0.00000
   78      6.99079    0.00000
   79      7.10103    0.00000
   80      7.42125    0.00000
   81      7.64582    0.00000
   82      8.16073    0.00000
   83      8.33130    0.00000
   84      8.41579    0.00000
   85      8.78547    0.00000
   86      8.81458    0.00000
   87      9.04063    0.00000
   88      9.06895    0.00000
   89      9.07388    0.00000
   90      9.33452    0.00000
   91      9.51843    0.00000
   92      9.55727    0.00000
   93      9.65673    0.00000
   94      9.83294    0.00000
   95      9.95068    0.00000
   96     10.03214    0.00000
   97     10.10121    0.00000


Forces in eV/Ang:
  0 C     0.58529   -1.47427    0.29275
  1 C    -0.39962    1.25405   -0.82777
  2 C     0.99718    0.09126   -0.16008
  3 C     0.43946    1.12027    0.25193
  4 C     0.24364   -0.89160    0.10565
  5 C     0.74298   -0.33012   -0.25297
  6 C    -0.32430    0.34504   -0.06816
  7 C     0.05368    0.06337   -0.04509
  8 C    -0.49469   -0.32011    0.07916
  9 C     0.31631   -0.25383   -0.09522
 10 C     0.05002   -1.50649    0.21958
 11 C     1.15831    0.54067    2.07820
 12 C    -0.45999    3.10603    2.30188
 13 C     3.12597   -1.87114    0.12046
 14 C    -1.85719   -2.23735   -1.40194
 15 C    -0.64575    1.12492   -0.07459
 16 C    -1.14647    1.45307   -0.38171
 17 C    -1.26855    3.85324    0.04339
 18 C    -0.26785    0.00485    0.28686
 19 C    -0.91530   -1.73898    0.21240
 20 C     0.98448   -1.41529   -0.25214
 21 C    -1.05896    1.47871    0.43988
 22 C    -0.85303   -3.06131   -3.31450
 23 C     1.00122    0.65774    0.46024

System changes: positions 

Initializing position-dependent things.

Density initialized from wave functions
           .--------------------------------------.  
          /|                                      |  
         / |                                      |  
        /  |                                      |  
       /   |                                      |  
      /    |                                      |  
     /     |                                      |  
    /      |                                      |  
   /       |                                      |  
  /        |         C C                          |  
 *         |   C C  C     C  C                    |  
 |         | C       C     C    C                 |  
 |         .-----C------C-------CC----------------.  
 |        /      C C   C       C  C              /   
 |       /         C     C  C                   /    
 |      /             C                        /     
 |     /                                      /      
 |    /                                      /       
 |   /                                      /        
 |  /                                      /         
 | /                                      /          
 |/                                      /           
 *--------------------------------------*            

Positions:
   0 C      5.058928   12.088931    4.847086
   1 C      3.374784    6.597001    5.572356
   2 C      6.298094    4.538207    4.858661
   3 C      7.580508    5.371163    4.788413
   4 C     11.045540    5.192203    4.466937
   5 C      5.169323    5.234805    4.981382
   6 C      8.656467    4.274539    4.624780
   7 C      7.909600    3.031314    4.638072
   8 C      9.999533    4.485020    4.510060
   9 C      6.650139    3.153591    4.767428
  10 C     12.057563    6.117631    4.470312
  11 C      4.760348    6.503824    5.132215
  12 C      7.625908    6.873062    4.913705
  13 C     11.174555    7.105820    4.582559
  14 C      8.674388    7.924419    5.106989
  15 C      6.545613   10.087548    5.221854
  16 C     10.311812    9.501901    4.373714
  17 C     10.767210    8.268001    4.311726
  18 C      7.808923   10.180624    4.993573
  19 C      8.978323    9.396758    4.858828
  20 C      5.545666    9.062410    5.452328
  21 C      3.583614    7.920585    5.614272
  22 C      6.124143    7.703963    5.480616
  23 C      4.101607    9.136574    5.546003

Unit cell:
           periodic     x           y           z      points  spacing
  1. axis:    yes   16.000000    0.000000    0.000000    80     0.2000
  2. axis:    yes    0.000000   16.000000    0.000000    80     0.2000
  3. axis:    yes    0.000000    0.000000   10.000000    48     0.2083

Effective grid spacing dv^(1/3) = 0.2027

                     log10-error:    total        iterations:
           time      wfs    density  energy       fermi  poisson
iter:   1  09:33:24          +inf  -167.412051    3      5      
iter:   2  09:33:25         -1.85  -167.305355    3      2      
iter:   3  09:33:25         -1.96  -167.308607    3      2      
iter:   4  09:33:26         -2.04  -167.276093    3      2      
iter:   5  09:33:26         -2.35  -167.266861    2      2      
iter:   6  09:33:27         -2.49  -167.262724    3      2      
iter:   7  09:33:27         -2.67  -167.258895    2      1      
iter:   8  09:33:28         -2.73  -167.260691    2      2      
iter:   9  09:33:28         -2.88  -167.260395    2      2      
iter:  10  09:33:29         -3.07  -167.258984    2      1      
iter:  11  09:33:29         -3.19  -167.258894    2      1      
iter:  12  09:33:30         -3.35  -167.259091    2      1      
iter:  13  09:33:30         -3.52  -167.259855    2      1      
iter:  14  09:33:31         -3.60  -167.260088    2      1      
iter:  15  09:33:31         -3.71  -167.260039    2      1      
iter:  16  09:33:32         -3.82  -167.260309    2      1      
iter:  17  09:33:32         -3.95  -167.260382    2      1      
iter:  18  09:33:33         -4.01  -167.260595    2      1      

Converged after 18 iterations.

Dipole moment: (0.075378, 0.345279, -0.016032) |e|*Ang

Energy contributions relative to reference atoms: (reference = -24663.074771)

Kinetic:        +90.602345
Potential:     -100.384295
External:        +0.000000
XC:            -160.089722
Entropy (-ST):   -0.537625
Local:           +2.879890
--------------------------
Free energy:   -167.529407
Extrapolated:  -167.260595

Fermi level: -4.69215

 Band  Eigenvalues  Occupancy
    0    -22.20683    2.00000
    1    -21.87014    2.00000
    2    -21.73995    2.00000
    3    -21.28018    2.00000
    4    -20.44041    2.00000
    5    -19.74885    2.00000
    6    -19.40464    2.00000
    7    -19.12624    2.00000
    8    -18.41561    2.00000
    9    -18.09235    2.00000
   10    -17.33295    2.00000
   11    -16.62870    2.00000
   12    -16.53535    2.00000
   13    -15.43437    2.00000
   14    -15.27586    2.00000
   15    -14.61025    2.00000
   16    -13.55946    2.00000
   17    -13.17786    2.00000
   18    -13.08496    2.00000
   19    -12.45289    2.00000
   20    -12.01476    2.00000
   21    -11.80920    2.00000
   22    -11.60800    2.00000
   23    -11.40188    2.00000
   24    -10.62067    2.00000
   25    -10.17228    2.00000
   26    -10.12838    2.00000
   27     -9.90640    2.00000
   28     -9.72295    2.00000
   29     -9.62952    2.00000
   30     -9.50796    2.00000
   31     -9.38762    2.00000
   32     -8.86720    2.00000
   33     -8.33561    2.00000
   34     -7.60743    2.00000
   35     -7.48821    2.00000
   36     -7.21779    2.00000
   37     -7.12177    2.00000
   38     -6.80336    2.00000
   39     -6.50597    2.00000
   40     -6.21973    2.00000
   41     -5.87149    1.99998
   42     -5.53453    1.99956
   43     -5.47849    1.99923
   44     -5.29783    1.99533
   45     -5.16481    1.98244
   46     -4.85531    1.67279
   47     -4.70014    1.03995
   48     -4.61089    0.61466
   49     -4.59223    0.53821
   50     -4.44598    0.15718
   51     -3.86996    0.00054
   52     -3.68855    0.00009
   53     -3.58663    0.00003
   54     -3.33283    0.00000
   55     -2.47144    0.00000
   56     -2.32665    0.00000
   57     -1.74335    0.00000
   58     -1.15346    0.00000
   59     -0.86670    0.00000
   60     -0.46020    0.00000
   61     -0.19742    0.00000
   62      0.52355    0.00000
   63      0.64496    0.00000
   64      0.92992    0.00000
   65      1.53016    0.00000
   66      1.82459    0.00000
   67      2.27452    0.00000
   68      2.91724    0.00000
   69      3.11992    0.00000
   70      3.45879    0.00000
   71      3.77374    0.00000
   72      5.16292    0.00000
   73      5.37815    0.00000
   74      5.41199    0.00000
   75      5.93605    0.00000
   76      5.99705    0.00000
   77      6.45031    0.00000
   78      7.05484    0.00000
   79      7.09489    0.00000
   80      7.44952    0.00000
   81      7.64289    0.00000
   82      8.17028    0.00000
   83      8.32721    0.00000
   84      8.42493    0.00000
   85      8.79417    0.00000
   86      8.84878    0.00000
   87      9.03319    0.00000
   88      9.06201    0.00000
   89      9.10321    0.00000
   90      9.34038    0.00000
   91      9.43843    0.00000
   92      9.54619    0.00000
   93      9.65631    0.00000
   94      9.83520    0.00000
   95      9.96719    0.00000
   96     10.07240    0.00000
   97     10.11842    0.00000


Forces in eV/Ang:
  0 C     0.62902   -1.58704    0.32415
  1 C    -0.11318    1.32332   -0.80263
  2 C     0.93438    0.13634   -0.14996
  3 C     0.37516    0.97892    0.26766
  4 C     0.11792   -1.02537    0.08295
  5 C     0.52216   -0.04138   -0.15561
  6 C    -0.34244    0.43402   -0.03764
  7 C     0.07158    0.07249   -0.05152
  8 C    -0.28698   -0.20134    0.07115
  9 C     0.28826   -0.21074   -0.10712
 10 C     0.02955   -1.33666    0.20361
 11 C     1.40259    0.55835    2.01628
 12 C    -1.03631    2.40130    2.13129
 13 C     2.74020   -0.73242   -0.11203
 14 C    -1.48469   -1.67167   -1.29737
 15 C    -0.70241    1.01478   -0.07994
 16 C    -1.02644    1.03685   -0.31337
 17 C    -0.90926    2.98769    0.26924
 18 C    -0.28084   -0.11842    0.29274
 19 C    -0.88272   -1.62529    0.18644
 20 C     0.93373   -1.42445   -0.26741
 21 C    -1.02943    1.29370    0.37324
 22 C    -0.99300   -2.87452   -3.21983
 23 C     1.03093    0.63334    0.42736

System changes: positions 

Initializing position-dependent things.

Density initialized from wave functions
           .--------------------------------------.  
          /|                                      |  
         / |                                      |  
        /  |                                      |  
       /   |                                      |  
      /    |                                      |  
     /     |                                      |  
    /      |                                      |  
   /       |                                      |  
  /        |         C C                          |  
 *         |   C C  C     C  C                    |  
 |         | C       C     C    C                 |  
 |         .-----C------C-------CC----------------.  
 |        /      C C   C       C  C              /   
 |       /         C     C  C                   /    
 |      /             C                        /     
 |     /                                      /      
 |    /                                      /       
 |   /                                      /        
 |  /                                      /         
 | /                                      /          
 |/                                      /           
 *--------------------------------------*            

Positions:
   0 C      5.064786   12.074048    4.850132
   1 C      3.374098    6.608780    5.565196
   2 C      6.305319    4.540296    4.857478
   3 C      7.583559    5.379454    4.790964
   4 C     11.045100    5.181678    4.467688
   5 C      5.175359    5.232543    4.979907
   6 C      8.653086    4.278322    4.624509
   7 C      7.910640    3.032173    4.637572
   8 C      9.998448    4.484066    4.510644
   9 C      6.652443    3.151916    4.766415
  10 C     12.058490    6.106146    4.472008
  11 C      4.773503    6.510662    5.150348
  12 C      7.614381    6.893223    4.932576
  13 C     11.195627    7.111026    4.578830
  14 C      8.662117    7.910658    5.095626
  15 C      6.538679   10.096415    5.221233
  16 C     10.301140    9.514082    4.371373
  17 C     10.764299    8.280522    4.316596
  18 C      7.807040   10.179172    4.996105
  19 C      8.969991    9.382473    4.860494
  20 C      5.553982    9.049548    5.449772
  21 C      3.574527    7.932788    5.617490
  22 C      6.114867    7.678071    5.451572
  23 C      4.110972    9.142033    5.549844

Unit cell:
           periodic     x           y           z      points  spacing
  1. axis:    yes   16.000000    0.000000    0.000000    80     0.2000
  2. axis:    yes    0.000000   16.000000    0.000000    80     0.2000
  3. axis:    yes    0.000000    0.000000   10.000000    48     0.2083

Effective grid spacing dv^(1/3) = 0.2027

                     log10-error:    total        iterations:
           time      wfs    density  energy       fermi  poisson
iter:   1  09:33:34          +inf  -168.085631    3      5      
iter:   2  09:33:35         -1.90  -168.001442    3      2      
iter:   3  09:33:35         -2.00  -168.005845    3      2      
iter:   4  09:33:36         -2.09  -167.981207    3      2      
iter:   5  09:33:36         -2.37  -167.972873    2      2      
iter:   6  09:33:37         -2.51  -167.969247    3      2      
iter:   7  09:33:37         -2.70  -167.965488    2      1      
iter:   8  09:33:38         -2.76  -167.967480    2      2      
iter:   9  09:33:38         -2.92  -167.967278    2      2      
iter:  10  09:33:39         -3.12  -167.965880    2      1      
iter:  11  09:33:39         -3.26  -167.965323    2      1      
iter:  12  09:33:40         -3.40  -167.966579    2      1      
iter:  13  09:33:40         -3.51  -167.967003    2      1      
iter:  14  09:33:41         -3.63  -167.966823    2      1      
iter:  15  09:33:41         -3.75  -167.967134    2      1      
iter:  16  09:33:42         -3.82  -167.967769    2      1      
iter:  17  09:33:42         -3.87  -167.967712    2      1      
iter:  18  09:33:43         -4.18  -167.967333    1      1      

Converged after 18 iterations.

Dipole moment: (0.084116, 0.333723, -0.009556) |e|*Ang

Energy contributions relative to reference atoms: (reference = -24663.074771)

Kinetic:        +88.265037
Potential:      -98.814087
External:        +0.000000
XC:            -160.038496
Entropy (-ST):   -0.523248
Local:           +2.881838
--------------------------
Free energy:   -168.228957
Extrapolated:  -167.967333

Fermi level: -4.70051

 Band  Eigenvalues  Occupancy
    0    -22.19457    2.00000
    1    -21.81394    2.00000
    2    -21.70982    2.00000
    3    -21.24455    2.00000
    4    -20.38081    2.00000
    5    -19.75106    2.00000
    6    -19.38129    2.00000
    7    -19.14718    2.00000
    8    -18.42673    2.00000
    9    -18.04346    2.00000
   10    -17.33925    2.00000
   11    -16.63467    2.00000
   12    -16.49611    2.00000
   13    -15.42364    2.00000
   14    -15.29809    2.00000
   15    -14.62140    2.00000
   16    -13.54102    2.00000
   17    -13.19872    2.00000
   18    -13.06505    2.00000
   19    -12.44513    2.00000
   20    -11.99937    2.00000
   21    -11.76343    2.00000
   22    -11.63363    2.00000
   23    -11.43501    2.00000
   24    -10.60066    2.00000
   25    -10.18934    2.00000
   26    -10.13119    2.00000
   27     -9.92688    2.00000
   28     -9.68952    2.00000
   29     -9.65547    2.00000
   30     -9.49467    2.00000
   31     -9.37779    2.00000
   32     -8.85542    2.00000
   33     -8.30453    2.00000
   34     -7.60531    2.00000
   35     -7.47761    2.00000
   36     -7.21176    2.00000
   37     -7.10111    2.00000
   38     -6.81011    2.00000
   39     -6.56728    2.00000
   40     -6.23063    2.00000
   41     -5.87741    1.99998
   42     -5.52247    1.99946
   43     -5.49422    1.99929
   44     -5.30235    1.99514
   45     -5.17203    1.98224
   46     -4.88756    1.73305
   47     -4.70245    1.00970
   48     -4.61955    0.61596
   49     -4.59449    0.51456
   50     -4.44936    0.15012
   51     -3.83743    0.00036
   52     -3.69050    0.00008
   53     -3.60247    0.00003
   54     -3.33650    0.00000
   55     -2.40970    0.00000
   56     -2.24071    0.00000
   57     -1.76295    0.00000
   58     -1.14460    0.00000
   59     -0.87131    0.00000
   60     -0.41683    0.00000
   61     -0.11538    0.00000
   62      0.56660    0.00000
   63      0.84817    0.00000
   64      1.04086    0.00000
   65      1.59158    0.00000
   66      1.96320    0.00000
   67      2.42837    0.00000
   68      2.93141    0.00000
   69      3.16481    0.00000
   70      3.46604    0.00000
   71      3.80211    0.00000
   72      5.13982    0.00000
   73      5.36191    0.00000
   74      5.47273    0.00000
   75      5.93167    0.00000
   76      6.03563    0.00000
   77      6.41488    0.00000
   78      7.09299    0.00000
   79      7.12325    0.00000
   80      7.46987    0.00000
   81      7.64251    0.00000
   82      8.17774    0.00000
   83      8.29948    0.00000
   84      8.46067    0.00000
   85      8.80331    0.00000
   86      8.87734    0.00000
   87      9.01045    0.00000
   88      9.07068    0.00000
   89      9.12423    0.00000
   90      9.30970    0.00000
   91      9.38147    0.00000
   92      9.56903    0.00000
   93      9.67026    0.00000
   94      9.82917    0.00000
   95      9.98644    0.00000
   96     10.09503    0.00000
   97     10.15682    0.00000


Forces in eV/Ang:
  0 C     0.71211   -1.74185    0.35184
  1 C     0.13494    1.29534   -0.75764
  2 C     0.84749    0.14438   -0.13217
  3 C     0.30003    0.83051    0.28199
  4 C     0.38283   -0.89618    0.03051
  5 C     0.30570    0.20870   -0.05846
  6 C    -0.25289    0.48453   -0.01373
  7 C     0.11583    0.09982   -0.05920
  8 C    -0.51042   -0.29968    0.08441
  9 C     0.25433   -0.16028   -0.11971
 10 C    -0.16494   -1.12842    0.22834
 11 C     1.61595    0.59999    1.86597
 12 C    -1.49942    1.77682    1.91833
 13 C     2.47406    0.07495   -0.31267
 14 C    -1.16456   -1.18230   -1.14824
 15 C    -0.70057    0.92341   -0.09817
 16 C    -0.95409    0.71866   -0.24018
 17 C    -0.52534    2.20525    0.39338
 18 C    -0.35703   -0.21998    0.29786
 19 C    -0.82973   -1.49973    0.15107
 20 C     0.82891   -1.39295   -0.26627
 21 C    -0.94382    1.24293    0.31524
 22 C    -1.12030   -2.70192   -3.06810
 23 C     0.99182    0.57940    0.37795

System changes: positions 

Initializing position-dependent things.

Density initialized from wave functions
           .--------------------------------------.  
          /|                                      |  
         / |                                      |  
        /  |                                      |  
       /   |                                      |  
      /    |                                      |  
     /     |                                      |  
    /      |                                      |  
   /       |                                      |  
  /        |         C C                          |  
 *         |   C C  C     C  C                    |  
 |         | C       C     C    C                 |  
 |         .-----C------C-------CC----------------.  
 |        /      C C   C       C  C              /   
 |       /         C     C  C                   /    
 |      /             C                        /     
 |     /                                      /      
 |    /                                      /       
 |   /                                      /        
 |  /                                      /         
 | /                                      /          
 |/                                      /           
 *--------------------------------------*            

Positions:
   0 C      5.071699   12.057130    4.853511
   1 C      3.374894    6.620440    5.558282
   2 C      6.311538    4.542445    4.856497
   3 C      7.585922    5.386715    4.793769
   4 C     11.047649    5.172299    4.467905
   5 C      5.180895    5.230758    4.978936
   6 C      8.650691    4.282199    4.624374
   7 C      7.912209    3.033413    4.636999
   8 C      9.994576    4.481846    4.511401
   9 C      6.654487    3.150687    4.765252
  10 C     12.057338    6.095720    4.474189
  11 C      4.788625    6.519034    5.167763
  12 C      7.598944    6.909855    4.950191
  13 C     11.217379    7.116948    4.574640
  14 C      8.651899    7.900059    5.085343
  15 C      6.531413   10.105024    5.220346
  16 C     10.290210    9.524964    4.369507
  17 C     10.763090    8.292348    4.321125
  18 C      7.804571   10.176937    4.998702
  19 C      8.961769    9.368778    4.861866
  20 C      5.561554    9.036804    5.447040
  21 C      3.565812    7.945587    5.620443
  22 C      6.104249    7.652214    5.422959
  23 C      4.120304    9.147422    5.553417

Unit cell:
           periodic     x           y           z      points  spacing
  1. axis:    yes   16.000000    0.000000    0.000000    80     0.2000
  2. axis:    yes    0.000000   16.000000    0.000000    80     0.2000
  3. axis:    yes    0.000000    0.000000   10.000000    48     0.2083

Effective grid spacing dv^(1/3) = 0.2027

                     log10-error:    total        iterations:
           time      wfs    density  energy       fermi  poisson
iter:   1  09:33:44          +inf  -168.714318    3      5      
iter:   2  09:33:45         -1.93  -168.647484    3      2      
iter:   3  09:33:46         -1.98  -168.645234    3      2      
iter:   4  09:33:46         -2.14  -168.625502    3      2      
iter:   5  09:33:47         -2.40  -168.617123    2      2      
iter:   6  09:33:47         -2.56  -168.614582    3      2      
iter:   7  09:33:48         -2.73  -168.611003    2      1      
iter:   8  09:33:48         -2.80  -168.612840    2      2      
iter:   9  09:33:49         -2.93  -168.612481    2      2      
iter:  10  09:33:49         -3.16  -168.611550    2      1      
iter:  11  09:33:50         -3.27  -168.611016    2      1      
iter:  12  09:33:50         -3.43  -168.611559    2      1      
iter:  13  09:33:51         -3.59  -168.612234    2      1      
iter:  14  09:33:51         -3.67  -168.612635    2      1      
iter:  15  09:33:51         -3.82  -168.612452    2      1      
iter:  16  09:33:52         -3.94  -168.612543    2      1      
iter:  17  09:33:52         -4.16  -168.612991    2      1      

Converged after 17 iterations.

Dipole moment: (0.103340, 0.324098, -0.005394) |e|*Ang

Energy contributions relative to reference atoms: (reference = -24663.074771)

Kinetic:        +86.207703
Potential:      -97.432259
External:        +0.000000
XC:            -160.018565
Entropy (-ST):   -0.507788
Local:           +2.884024
--------------------------
Free energy:   -168.866885
Extrapolated:  -168.612991

Fermi level: -4.70438

 Band  Eigenvalues  Occupancy
    0    -22.18634    2.00000
    1    -21.77144    2.00000
    2    -21.68193    2.00000
    3    -21.22137    2.00000
    4    -20.32274    2.00000
    5    -19.76025    2.00000
    6    -19.36601    2.00000
    7    -19.14184    2.00000
    8    -18.42366    2.00000
    9    -18.00292    2.00000
   10    -17.34657    2.00000
   11    -16.62799    2.00000
   12    -16.45718    2.00000
   13    -15.44070    2.00000
   14    -15.28516    2.00000
   15    -14.62923    2.00000
   16    -13.53121    2.00000
   17    -13.21785    2.00000
   18    -13.05039    2.00000
   19    -12.44925    2.00000
   20    -11.99477    2.00000
   21    -11.75642    2.00000
   22    -11.64160    2.00000
   23    -11.45632    2.00000
   24    -10.57882    2.00000
   25    -10.20608    2.00000
   26    -10.13515    2.00000
   27     -9.97532    2.00000
   28     -9.66439    2.00000
   29     -9.65312    2.00000
   30     -9.47422    2.00000
   31     -9.36374    2.00000
   32     -8.84632    2.00000
   33     -8.27149    2.00000
   34     -7.61006    2.00000
   35     -7.45138    2.00000
   36     -7.20943    2.00000
   37     -7.07549    2.00000
   38     -6.81777    2.00000
   39     -6.62216    2.00000
   40     -6.23262    2.00000
   41     -5.88697    1.99999
   42     -5.52350    1.99945
   43     -5.49008    1.99923
   44     -5.30223    1.99495
   45     -5.17563    1.98220
   46     -4.91866    1.78999
   47     -4.70008    0.97852
   48     -4.62328    0.61537
   49     -4.59437    0.49944
   50     -4.44610    0.14051
   51     -3.80661    0.00025
   52     -3.68894    0.00008
   53     -3.61089    0.00004
   54     -3.33305    0.00000
   55     -2.35850    0.00000
   56     -2.15922    0.00000
   57     -1.76836    0.00000
   58     -1.16683    0.00000
   59     -0.86084    0.00000
   60     -0.39497    0.00000
   61     -0.04076    0.00000
   62      0.57942    0.00000
   63      0.89656    0.00000
   64      1.30655    0.00000
   65      1.60472    0.00000
   66      2.15686    0.00000
   67      2.54608    0.00000
   68      2.97037    0.00000
   69      3.22598    0.00000
   70      3.48376    0.00000
   71      3.82730    0.00000
   72      5.09137    0.00000
   73      5.37007    0.00000
   74      5.51685    0.00000
   75      5.92586    0.00000
   76      6.08922    0.00000
   77      6.37761    0.00000
   78      7.11000    0.00000
   79      7.18572    0.00000
   80      7.49612    0.00000
   81      7.64650    0.00000
   82      8.18950    0.00000
   83      8.27332    0.00000
   84      8.49878    0.00000
   85      8.81295    0.00000
   86      8.89281    0.00000
   87      8.98300    0.00000
   88      9.08568    0.00000
   89      9.12921    0.00000
   90      9.28331    0.00000
   91      9.36611    0.00000
   92      9.60060    0.00000
   93      9.69630    0.00000
   94      9.82499    0.00000
   95     10.00423    0.00000
   96     10.10660    0.00000
   97     10.19398    0.00000


Forces in eV/Ang:
  0 C     0.77938   -1.88814    0.41314
  1 C     0.38344    1.33696   -0.70348
  2 C     0.79906    0.12633   -0.11640
  3 C     0.20046    0.73511    0.30051
  4 C     0.18399   -1.08711    0.02318
  5 C     0.07056    0.47742    0.03648
  6 C    -0.27915    0.50213    0.02078
  7 C     0.09979    0.11000   -0.06028
  8 C    -0.20411   -0.13981    0.06465
  9 C     0.26180   -0.11756   -0.13752
 10 C    -0.21127   -0.93337    0.22462
 11 C     1.78868    0.57785    1.67773
 12 C    -1.85131    1.23332    1.69539
 13 C     2.18595    0.79640   -0.45684
 14 C    -0.91588   -0.79802   -1.02003
 15 C    -0.75214    0.83535   -0.09455
 16 C    -0.86217    0.43099   -0.17331
 17 C    -0.17984    1.61337    0.47785
 18 C    -0.39653   -0.31290    0.28466
 19 C    -0.80621   -1.35740    0.09575
 20 C     0.73427   -1.34376   -0.30094
 21 C    -0.88182    1.12183    0.24604
 22 C    -1.19834   -2.47900   -2.84243
 23 C     0.97407    0.54607    0.33481

System changes: positions 

Initializing position-dependent things.

Density initialized from wave functions
           .--------------------------------------.  
          /|                                      |  
         / |                                      |  
        /  |                                      |  
       /   |                                      |  
      /    |                                      |  
     /     |                                      |  
    /      |                                      |  
   /       |                                      |  
  /        |         C C                          |  
 *         |   C C  C     C  C                    |  
 |         | C       C     C    C                 |  
 |         .-----C------C-------CC----------------.  
 |        /      C C   C       C  C              /   
 |       /         C     C  C                   /    
 |      /             C                        /     
 |     /                                      /      
 |    /                                      /       
 |   /                                      /        
 |  /                                      /         
 | /                                      /          
 |/                                      /           
 *--------------------------------------*            

Positions:
   0 C      5.079674   12.037772    4.857749
   1 C      3.377370    6.633215    5.551484
   2 C      6.317677    4.544318    4.855622
   3 C      7.587440    5.393851    4.796958
   4 C     11.047755    5.159980    4.468165
   5 C      5.185338    5.230377    4.978530
   6 C      8.647761    4.286014    4.624515
   7 C      7.913553    3.034842    4.636416
   8 C      9.994146    4.481369    4.511956
   9 C      6.656911    3.149748    4.763834
  10 C     12.055869    6.085946    4.476534
  11 C      4.805861    6.527923    5.184471
  12 C      7.580429    6.924179    4.966969
  13 C     11.239754    7.124048    4.570248
  14 C      8.642568    7.891118    5.075519
  15 C      6.523092   10.113661    5.219438
  16 C     10.279108    9.534873    4.367987
  17 C     10.763349    8.305101    4.325297
  18 C      7.801721   10.173922    5.001258
  19 C      8.953052    9.355447    4.862745
  20 C      5.568732    9.023920    5.443650
  21 C      3.556961    7.958438    5.623050
  22 C      6.092545    7.626343    5.394787
  23 C      4.130130    9.153082    5.556894

Unit cell:
           periodic     x           y           z      points  spacing
  1. axis:    yes   16.000000    0.000000    0.000000    80     0.2000
  2. axis:    yes    0.000000   16.000000    0.000000    80     0.2000
  3. axis:    yes    0.000000    0.000000   10.000000    48     0.2083

Effective grid spacing dv^(1/3) = 0.2027

                     log10-error:    total        iterations:
           time      wfs    density  energy       fermi  poisson
iter:   1  09:33:54          +inf  -169.318218    3      5      
iter:   2  09:33:55         -1.95  -169.260093    3      2      
iter:   3  09:33:55         -2.00  -169.256728    3      2      
iter:   4  09:33:56         -2.16  -169.239364    2      2      
iter:   5  09:33:56         -2.39  -169.229984    3      2      
iter:   6  09:33:57         -2.57  -169.227947    3      2      
iter:   7  09:33:57         -2.73  -169.224330    2      1      
iter:   8  09:33:58         -2.80  -169.226235    2      2      
iter:   9  09:33:58         -2.93  -169.225931    2      2      
iter:  10  09:33:59         -3.19  -169.224626    2      1      
iter:  11  09:33:59         -3.31  -169.224142    2      1      
iter:  12  09:34:00         -3.49  -169.225935    2      1      
iter:  13  09:34:00         -3.53  -169.225884    2      1      
iter:  14  09:34:01         -3.63  -169.226269    2      1      
iter:  15  09:34:01         -3.79  -169.225885    2      1      
iter:  16  09:34:02         -3.88  -169.226084    2      1      
iter:  17  09:34:02         -4.08  -169.226432    2      1      

Converged after 17 iterations.

Dipole moment: (0.121524, 0.313844, -0.002573) |e|*Ang

Energy contributions relative to reference atoms: (reference = -24663.074771)

Kinetic:        +84.723748
Potential:      -96.502097
External:        +0.000000
XC:            -160.089699
Entropy (-ST):   -0.489889
Local:           +2.886561
--------------------------
Free energy:   -169.471377
Extrapolated:  -169.226432

Fermi level: -4.70347

 Band  Eigenvalues  Occupancy
    0    -22.18209    2.00000
    1    -21.72536    2.00000
    2    -21.65501    2.00000
    3    -21.18478    2.00000
    4    -20.26909    2.00000
    5    -19.77134    2.00000
    6    -19.35342    2.00000
    7    -19.12055    2.00000
    8    -18.41417    2.00000
    9    -17.96059    2.00000
   10    -17.36356    2.00000
   11    -16.62833    2.00000
   12    -16.42219    2.00000
   13    -15.47875    2.00000
   14    -15.25316    2.00000
   15    -14.63053    2.00000
   16    -13.52538    2.00000
   17    -13.23661    2.00000
   18    -13.03711    2.00000
   19    -12.46015    2.00000
   20    -12.00106    2.00000
   21    -11.78143    2.00000
   22    -11.61098    2.00000
   23    -11.45925    2.00000
   24    -10.56308    2.00000
   25    -10.21072    2.00000
   26    -10.15194    2.00000
   27    -10.03139    2.00000
   28     -9.63915    2.00000
   29     -9.62519    2.00000
   30     -9.45289    2.00000
   31     -9.33668    2.00000
   32     -8.83383    2.00000
   33     -8.23931    2.00000
   34     -7.61704    2.00000
   35     -7.41918    2.00000
   36     -7.20864    2.00000
   37     -7.05504    2.00000
   38     -6.82651    2.00000
   39     -6.67267    2.00000
   40     -6.23933    2.00000
   41     -5.89502    1.99999
   42     -5.54657    1.99956
   43     -5.49141    1.99924
   44     -5.29798    1.99478
   45     -5.18091    1.98326
   46     -4.94996    1.84330
   47     -4.69349    0.95018
   48     -4.62236    0.61534
   49     -4.59000    0.48659
   50     -4.43475    0.12748
   51     -3.76997    0.00018
   52     -3.68839    0.00008
   53     -3.61263    0.00004
   54     -3.34069    0.00000
   55     -2.31094    0.00000
   56     -2.08441    0.00000
   57     -1.76088    0.00000
   58     -1.21274    0.00000
   59     -0.84302    0.00000
   60     -0.35884    0.00000
   61      0.03081    0.00000
   62      0.59586    0.00000
   63      0.91975    0.00000
   64      1.58148    0.00000
   65      1.62690    0.00000
   66      2.34119    0.00000
   67      2.63482    0.00000
   68      3.05404    0.00000
   69      3.30700    0.00000
   70      3.52320    0.00000
   71      3.86906    0.00000
   72      5.05545    0.00000
   73      5.40495    0.00000
   74      5.53171    0.00000
   75      5.91410    0.00000
   76      6.16343    0.00000
   77      6.34627    0.00000
   78      7.13103    0.00000
   79      7.25081    0.00000
   80      7.50186    0.00000
   81      7.65408    0.00000
   82      8.19656    0.00000
   83      8.26959    0.00000
   84      8.53280    0.00000
   85      8.82341    0.00000
   86      8.89393    0.00000
   87      8.95007    0.00000
   88      9.12037    0.00000
   89      9.12189    0.00000
   90      9.28803    0.00000
   91      9.35849    0.00000
   92      9.63172    0.00000
   93      9.73020    0.00000
   94      9.83065    0.00000
   95     10.02181    0.00000
   96     10.11387    0.00000
   97     10.22333    0.00000


Forces in eV/Ang:
  0 C     0.82951   -2.04429    0.44587
  1 C     0.61024    1.31335   -0.64021
  2 C     0.65020    0.15675   -0.08517
  3 C     0.11643    0.60732    0.31705
  4 C     0.54765   -0.86684    0.01639
[...]

Kinetic:       +111.097707
Potential:     -118.266543
External:        +0.000000
XC:            -175.977414
Entropy (-ST):   -0.165624
Local:           +3.015959
--------------------------
Free energy:   -180.295916
Extrapolated:  -180.213104

Fermi level: -4.13554

 Band  Eigenvalues  Occupancy
    0    -23.27561    2.00000
    1    -22.15574    2.00000
    2    -21.40463    2.00000
    3    -21.08598    2.00000
    4    -20.86822    2.00000
    5    -19.94197    2.00000
    6    -19.73645    2.00000
    7    -19.12914    2.00000
    8    -18.46714    2.00000
    9    -18.36206    2.00000
   10    -17.71678    2.00000
   11    -17.05335    2.00000
   12    -16.42424    2.00000
   13    -16.22304    2.00000
   14    -15.16277    2.00000
   15    -15.08639    2.00000
   16    -14.44254    2.00000
   17    -13.65734    2.00000
   18    -13.42636    2.00000
   19    -13.09746    2.00000
   20    -12.61832    2.00000
   21    -12.35162    2.00000
   22    -11.83025    2.00000
   23    -11.60200    2.00000
   24    -11.11887    2.00000
   25    -10.67115    2.00000
   26    -10.39407    2.00000
   27    -10.09521    2.00000
   28     -9.84569    2.00000
   29     -9.79047    2.00000
   30     -9.63955    2.00000
   31     -9.41589    2.00000
   32     -9.21952    2.00000
   33     -9.06573    2.00000
   34     -8.47414    2.00000
   35     -7.84278    2.00000
   36     -7.53157    2.00000
   37     -7.42909    2.00000
   38     -7.03442    2.00000
   39     -6.62785    2.00000
   40     -6.26309    2.00000
   41     -5.91214    2.00000
   42     -5.66744    2.00000
   43     -5.61218    2.00000
   44     -5.50657    2.00000
   45     -5.11538    1.99989
   46     -4.73364    1.99496
   47     -4.32336    1.73481
   48     -3.94616    0.26163
   49     -3.56548    0.00667
   50     -3.44019    0.00191
   51     -3.16534    0.00012
   52     -2.93395    0.00001
   53     -2.76127    0.00000
   54     -2.59437    0.00000
   55     -2.06010    0.00000
   56     -1.53463    0.00000
   57     -1.28611    0.00000
   58     -0.64436    0.00000
   59     -0.40008    0.00000
   60      0.76338    0.00000
   61      0.96543    0.00000
   62      1.38440    0.00000
   63      2.26700    0.00000
   64      2.94300    0.00000
   65      3.64305    0.00000
   66      4.07896    0.00000
   67      4.40507    0.00000
   68      4.54778    0.00000
   69      4.61381    0.00000
   70      5.05080    0.00000
   71      5.39208    0.00000
   72      5.76635    0.00000
   73      5.93538    0.00000
   74      6.07157    0.00000
   75      6.77715    0.00000
   76      7.04244    0.00000
   77      7.36923    0.00000
   78      7.82841    0.00000
   79      8.08395    0.00000
   80      8.53108    0.00000
   81      8.55845    0.00000
   82      8.78106    0.00000
   83      8.84712    0.00000
   84      8.90327    0.00000
   85      9.24087    0.00000
   86      9.34531    0.00000
   87      9.35920    0.00000
   88      9.48193    0.00000
   89      9.56451    0.00000
   90      9.62598    0.00000
   91      9.77557    0.00000
   92      9.83105    0.00000
   93     10.03631    0.00000
   94     10.16824    0.00000
   95     10.38495    0.00000
   96     10.48531    0.00000
   97     10.55004    0.00000


Forces in eV/Ang:
  0 C    -0.04259    0.04714   -0.03465
  1 C     0.01749    0.00535   -0.00083
  2 C     0.03039    0.01431    0.05640
  3 C     0.05325    0.02137    0.01807
  4 C     0.02527   -0.06241    0.00096
  5 C    -0.03315   -0.04783    0.00019
  6 C    -0.01164   -0.05368   -0.02733
  7 C    -0.06259   -0.06022   -0.01132
  8 C    -0.02356    0.03837   -0.03907
  9 C    -0.02211   -0.02147   -0.00352
 10 C     0.03561   -0.07259   -0.02024
 11 C     0.09628   -0.00844    0.03688
 12 C    -0.07090    0.06391   -0.03757
 13 C    -0.01551    0.05967   -0.00141
 14 C     0.03291    0.05904    0.01539
 15 C    -0.04781    0.01567    0.02438
 16 C     0.02915   -0.01929   -0.00104
 17 C     0.04488   -0.04228    0.03133
 18 C    -0.02032    0.05235   -0.04098
 19 C    -0.00109    0.08193    0.01943
 20 C    -0.00546   -0.06013    0.06846
 21 C    -0.06361    0.00105   -0.04878
 22 C    -0.05714   -0.10380    0.01244
 23 C     0.06141    0.02147    0.02844

System changes: positions 

Initializing position-dependent things.

Density initialized from wave functions
           .--------------------------------------.  
          /|                                      |  
         / |                                      |  
        /  |                                      |  
       /   |                                      |  
      /    |                                      |  
     /     |                                      |  
    /      |                                      |  
   /       |                                      |  
  /        |      C C                             |  
 *         |   C    C  C  C                       |  
 |         |  C     C     C C   C C               |  
 |         .----C------C------------C-------------.  
 |        /     C  C  C     C  C  C              /   
 |       /         C  C  C                      /    
 |      /                                      /     
 |     /                                      /      
 |    /                                      /       
 |   /                                      /        
 |  /                                      /         
 | /                                      /          
 |/                                      /           
 *--------------------------------------*            

Positions:
   0 C      5.139938   10.544482    4.995358
   1 C      3.516938    7.290953    5.516947
   2 C      6.131200    4.576882    4.942646
   3 C      7.343967    5.422483    4.866148
   4 C     11.030547    5.327588    4.470107
   5 C      4.870409    5.108433    5.064899
   6 C      8.525659    4.505363    4.727256
   7 C      7.996781    3.158479    4.724984
   8 C      9.839565    4.905403    4.590834
   9 C      6.718271    3.239097    4.790926
  10 C     11.882755    6.347027    4.377341
  11 C      4.678973    6.493798    5.233499
  12 C      7.219155    6.855042    4.888298
  13 C     12.254701    7.570680    4.372447
  14 C      8.326150    7.713926    4.750701
  15 C      6.516902    9.908769    5.179165
  16 C     10.295177    9.227496    4.599447
  17 C     11.388002    8.616829    4.459389
  18 C      7.821370    9.878523    4.905488
  19 C      8.904232    8.979112    4.741473
  20 C      5.684947    8.734649    5.401252
  21 C      3.380000    8.541510    5.722677
  22 C      5.851263    7.384159    5.104263
  23 C      4.452198    9.449820    5.654374

Unit cell:
           periodic     x           y           z      points  spacing
  1. axis:    yes   16.000000    0.000000    0.000000    80     0.2000
  2. axis:    yes    0.000000   16.000000    0.000000    80     0.2000
  3. axis:    yes    0.000000    0.000000   10.000000    48     0.2083

Effective grid spacing dv^(1/3) = 0.2027

                     log10-error:    total        iterations:
           time      wfs    density  energy       fermi  poisson
iter:   1  09:42:38          +inf  -180.215959    2      4      
iter:   2  09:42:38         -3.13  -180.215223    2      1      
iter:   3  09:42:39         -3.28  -180.214546    2      1      
iter:   4  09:42:39         -3.53  -180.214758    2      1      
iter:   5  09:42:40         -3.68  -180.214694    2      1      
iter:   6  09:42:40         -3.83  -180.215540    2      1      
iter:   7  09:42:41         -3.64  -180.215012    2      1      
iter:   8  09:42:41         -4.22  -180.214832    2      1      

Converged after 8 iterations.

Dipole moment: (0.575450, 0.208932, 0.118709) |e|*Ang

Energy contributions relative to reference atoms: (reference = -24663.074771)

Kinetic:       +111.161059
Potential:     -118.317696
External:        +0.000000
XC:            -175.980266
Entropy (-ST):   -0.165797
Local:           +3.004969
--------------------------
Free energy:   -180.297731
Extrapolated:  -180.214832

Fermi level: -4.13579

 Band  Eigenvalues  Occupancy
    0    -23.27489    2.00000
    1    -22.15229    2.00000
    2    -21.40197    2.00000
    3    -21.08794    2.00000
    4    -20.86942    2.00000
    5    -19.94063    2.00000
    6    -19.73509    2.00000
    7    -19.12641    2.00000
    8    -18.46864    2.00000
    9    -18.36072    2.00000
   10    -17.71657    2.00000
   11    -17.05173    2.00000
   12    -16.42383    2.00000
   13    -16.22047    2.00000
   14    -15.16101    2.00000
   15    -15.08571    2.00000
   16    -14.44163    2.00000
   17    -13.65693    2.00000
   18    -13.42979    2.00000
   19    -13.09744    2.00000
   20    -12.61767    2.00000
   21    -12.34788    2.00000
   22    -11.83088    2.00000
   23    -11.60049    2.00000
   24    -11.12166    2.00000
   25    -10.66742    2.00000
   26    -10.38869    2.00000
   27    -10.09226    2.00000
   28     -9.84572    2.00000
   29     -9.78872    2.00000
   30     -9.64054    2.00000
   31     -9.41731    2.00000
   32     -9.22101    2.00000
   33     -9.06470    2.00000
   34     -8.47648    2.00000
   35     -7.84228    2.00000
   36     -7.53174    2.00000
   37     -7.42830    2.00000
   38     -7.03207    2.00000
   39     -6.62694    2.00000
   40     -6.26373    2.00000
   41     -5.91532    2.00000
   42     -5.66774    2.00000
   43     -5.61423    2.00000
   44     -5.50390    2.00000
   45     -5.11608    1.99989
   46     -4.73198    1.99486
   47     -4.32356    1.73468
   48     -3.94647    0.26175
   49     -3.56714    0.00676
   50     -3.44120    0.00192
   51     -3.16795    0.00013
   52     -2.93044    0.00001
   53     -2.76462    0.00000
   54     -2.59635    0.00000
   55     -2.06068    0.00000
   56     -1.52418    0.00000
   57     -1.28708    0.00000
   58     -0.64146    0.00000
   59     -0.41328    0.00000
   60      0.76346    0.00000
   61      0.96695    0.00000
   62      1.38777    0.00000
   63      2.27303    0.00000
   64      2.94473    0.00000
   65      3.64043    0.00000
   66      4.08064    0.00000
   67      4.40327    0.00000
   68      4.54338    0.00000
   69      4.61586    0.00000
   70      5.05684    0.00000
   71      5.38947    0.00000
   72      5.76750    0.00000
   73      5.92632    0.00000
   74      6.07265    0.00000
   75      6.77943    0.00000
   76      7.04692    0.00000
   77      7.36439    0.00000
   78      7.82767    0.00000
   79      8.09213    0.00000
   80      8.52932    0.00000
   81      8.55827    0.00000
   82      8.78246    0.00000
   83      8.84755    0.00000
   84      8.90507    0.00000
   85      9.24357    0.00000
   86      9.34515    0.00000
   87      9.35974    0.00000
   88      9.48315    0.00000
   89      9.56954    0.00000
   90      9.62531    0.00000
   91      9.78025    0.00000
   92      9.83211    0.00000
   93     10.03807    0.00000
   94     10.16770    0.00000
   95     10.38476    0.00000
   96     10.48420    0.00000
   97     10.54966    0.00000


Forces in eV/Ang:
  0 C    -0.03303    0.07364   -0.04703
  1 C    -0.00750    0.01298   -0.00077
  2 C     0.01867    0.01862    0.04765
  3 C     0.03003    0.03319    0.01821
  4 C     0.01804   -0.06552    0.00411
  5 C    -0.01286   -0.04508    0.00049
  6 C    -0.01999   -0.02981   -0.02713
  7 C    -0.05429   -0.05507   -0.00897
  8 C    -0.00331    0.03234   -0.04136
  9 C    -0.01545   -0.03279   -0.00307
 10 C     0.03060   -0.09687   -0.01628
 11 C     0.08652   -0.02618    0.03968
 12 C    -0.02712    0.04093   -0.02415
 13 C    -0.00528    0.06835   -0.00612
 14 C    -0.00838    0.04236    0.00926
 15 C    -0.01016    0.01784    0.01355
 16 C     0.01642   -0.00797    0.00344
 17 C     0.05880   -0.02589    0.02649
 18 C    -0.04095    0.04367   -0.03319
 19 C     0.00578    0.05021    0.01869
 20 C    -0.00021   -0.05728    0.06516
 21 C    -0.05355    0.02149   -0.04693
 22 C    -0.01798   -0.08123   -0.00662
 23 C     0.01621   -0.01030    0.04756

System changes: positions 

Initializing position-dependent things.

Density initialized from wave functions
           .--------------------------------------.  
          /|                                      |  
         / |                                      |  
        /  |                                      |  
       /   |                                      |  
      /    |                                      |  
     /     |                                      |  
    /      |                                      |  
   /       |                                      |  
  /        |      C C                             |  
 *         |   C    C  C  C                       |  
 |         |  C     C     C C   C C               |  
 |         .----C------C------------C-------------.  
 |        /     C  C  C     C  C  C              /   
 |       /         C  C  C                      /    
 |      /                                      /     
 |     /                                      /      
 |    /                                      /       
 |   /                                      /        
 |  /                                      /         
 | /                                      /          
 |/                                      /           
 *--------------------------------------*            

Positions:
   0 C      5.135155   10.554156    5.001931
   1 C      3.518718    7.287229    5.518744
   2 C      6.137364    4.579475    4.947633
   3 C      7.352912    5.424432    4.870645
   4 C     11.038623    5.308672    4.469376
   5 C      4.876461    5.109199    5.067718
   6 C      8.529919    4.498248    4.725463
   7 C      7.993316    3.153189    4.717448
   8 C      9.844156    4.895164    4.586795
   9 C      6.716215    3.240150    4.786766
  10 C     11.882664    6.335645    4.380726
  11 C      4.684132    6.493144    5.237322
  12 C      7.222144    6.859153    4.888800
  13 C     12.239966    7.563070    4.376665
  14 C      8.328957    7.723248    4.754591
  15 C      6.512508    9.912988    5.179936
  16 C     10.292186    9.235495    4.593619
  17 C     11.378100    8.609921    4.459421
  18 C      7.817013    9.892669    4.906159
  19 C      8.901278    8.993430    4.742513
  20 C      5.683939    8.733973    5.400198
  21 C      3.378287    8.538980    5.713727
  22 C      5.852580    7.382879    5.108070
  23 C      4.450727    9.448170    5.649078

Unit cell:
           periodic     x           y           z      points  spacing
  1. axis:    yes   16.000000    0.000000    0.000000    80     0.2000
  2. axis:    yes    0.000000   16.000000    0.000000    80     0.2000
  3. axis:    yes    0.000000    0.000000   10.000000    48     0.2083

Effective grid spacing dv^(1/3) = 0.2027

                     log10-error:    total        iterations:
           time      wfs    density  energy       fermi  poisson
iter:   1  09:42:43          +inf  -180.218292    2      5      
iter:   2  09:42:44         -2.68  -180.218002    2      1      
iter:   3  09:42:44         -2.81  -180.218288    1      1      
iter:   4  09:42:45         -3.00  -180.218178    2      1      
iter:   5  09:42:45         -3.14  -180.219140    2      1      
iter:   6  09:42:46         -3.41  -180.218354    2      1      
iter:   7  09:42:46         -3.55  -180.218340    2      1      
iter:   8  09:42:47         -3.76  -180.218009    2      1      
iter:   9  09:42:47         -3.86  -180.217880    2      1      
iter:  10  09:42:48         -4.03  -180.217807    2      1      

Converged after 10 iterations.

Dipole moment: (0.584758, 0.197300, 0.119219) |e|*Ang

Energy contributions relative to reference atoms: (reference = -24663.074771)

Kinetic:       +110.923351
Potential:     -118.176457
External:        +0.000000
XC:            -175.879340
Entropy (-ST):   -0.166417
Local:           +2.997848
--------------------------
Free energy:   -180.301015
Extrapolated:  -180.217807

Fermi level: -4.13608

 Band  Eigenvalues  Occupancy
    0    -23.24156    2.00000
    1    -22.14024    2.00000
    2    -21.38967    2.00000
    3    -21.08713    2.00000
    4    -20.86688    2.00000
    5    -19.94031    2.00000
    6    -19.72844    2.00000
    7    -19.12430    2.00000
    8    -18.47124    2.00000
    9    -18.35473    2.00000
   10    -17.72017    2.00000
   11    -17.04252    2.00000
   12    -16.41928    2.00000
   13    -16.21961    2.00000
   14    -15.15237    2.00000
   15    -15.08368    2.00000
   16    -14.44126    2.00000
   17    -13.65810    2.00000
   18    -13.43243    2.00000
   19    -13.09521    2.00000
   20    -12.61796    2.00000
   21    -12.34339    2.00000
   22    -11.83144    2.00000
   23    -11.59325    2.00000
   24    -11.11900    2.00000
   25    -10.64679    2.00000
   26    -10.35991    2.00000
   27    -10.08505    2.00000
   28     -9.84107    2.00000
   29     -9.78121    2.00000
   30     -9.64437    2.00000
   31     -9.42030    2.00000
   32     -9.22435    2.00000
   33     -9.05918    2.00000
   34     -8.47865    2.00000
   35     -7.84363    2.00000
   36     -7.53761    2.00000
   37     -7.42277    2.00000
   38     -7.02868    2.00000
   39     -6.62390    2.00000
   40     -6.26659    2.00000
   41     -5.92581    2.00000
   42     -5.66880    2.00000
   43     -5.62174    2.00000
   44     -5.49668    2.00000
   45     -5.11874    1.99989
   46     -4.72642    1.99455
   47     -4.32370    1.73435
   48     -3.94675    0.26174
   49     -3.57470    0.00727
   50     -3.44736    0.00204
   51     -3.17990    0.00014
   52     -2.91885    0.00001
   53     -2.78234    0.00000
   54     -2.60384    0.00000
   55     -2.06013    0.00000
   56     -1.50585    0.00000
   57     -1.29122    0.00000
   58     -0.63686    0.00000
   59     -0.47004    0.00000
   60      0.76074    0.00000
   61      0.96853    0.00000
   62      1.39740    0.00000
   63      2.29026    0.00000
   64      2.94969    0.00000
   65      3.62949    0.00000
   66      4.07712    0.00000
   67      4.38963    0.00000
   68      4.52278    0.00000
   69      4.61892    0.00000
   70      5.06681    0.00000
   71      5.36690    0.00000
   72      5.76021    0.00000
   73      5.89994    0.00000
   74      6.08621    0.00000
   75      6.77037    0.00000
   76      7.05091    0.00000
   77      7.34910    0.00000
   78      7.82975    0.00000
   79      8.11939    0.00000
   80      8.52820    0.00000
   81      8.55908    0.00000
   82      8.78660    0.00000
   83      8.85500    0.00000
   84      8.91495    0.00000
   85      9.25168    0.00000
   86      9.34789    0.00000
   87      9.36351    0.00000
   88      9.48257    0.00000
   89      9.57916    0.00000
   90      9.63146    0.00000
   91      9.79703    0.00000
   92      9.83586    0.00000
   93     10.04420    0.00000
   94     10.16686    0.00000
   95     10.38349    0.00000
   96     10.48146    0.00000
   97     10.54733    0.00000


Forces in eV/Ang:
  0 C    -0.03071    0.03253   -0.02678
  1 C    -0.01458    0.02200   -0.01387
  2 C     0.02005    0.01965    0.01071
  3 C    -0.04434    0.00440    0.01313
  4 C     0.00691   -0.04511    0.00940
  5 C    -0.01001   -0.04432    0.00999
  6 C    -0.05973    0.03395   -0.03009
  7 C     0.01338   -0.00819   -0.00091
  8 C    -0.00078   -0.00326   -0.02521
  9 C    -0.02748   -0.03538    0.00221
 10 C     0.02197   -0.08336   -0.01839
 11 C    -0.01232   -0.03365    0.04815
 12 C     0.09485    0.00433    0.02019
 13 C     0.01737    0.04015   -0.00691
 14 C    -0.08303    0.03901   -0.01480
 15 C    -0.07270    0.00320    0.02524
 16 C     0.03294    0.01322    0.01468
 17 C     0.04336    0.04512    0.02468
 18 C    -0.00193    0.02145   -0.04455
 19 C    -0.03867   -0.05304    0.02396
 20 C     0.01826    0.01727    0.04940
 21 C    -0.02941    0.04018   -0.01651
 22 C     0.07989   -0.01181   -0.03495
 23 C     0.01146    0.02380    0.01936

