
  ___ ___ ___ _ _ _  
 |   |   |_  | | | | 
 | | | | | . | | | | 
 |__ |  _|___|_____|  1.3.0b1
 |___|_|             

User:   esb@s65n31.grendel.cscaa.dk
Date:   Thu Nov  9 09:52:30 2017
Arch:   x86_64
Pid:    15974
Python: 2.7.13
gpaw:   /home/esb/DFT/gpaw_git/gpaw
_gpaw:  /home/esb/DFT/gpaw_git/build/bin.linux-x86_64-2.7/gpaw-python
ase:    /home/esb/DFT/ase_git/ase (version 3.15.0b1)
numpy:  /comm/swstack/core/python/2.7.13/lib/python2.7/site-packages/numpy (version 1.13.3)
scipy:  /comm/swstack/core/python/2.7.13/lib/python2.7/site-packages/scipy (version 0.19.1)
units:  Angstrom and eV
cores:  16
Extra parameters: {'blacs': True}

Input parameters:
  basis: dzp
  gpts: [80 80 48]
  kpts: [1 1 1]
  maxiter: 99
  mixer: {backend: pulay,
          beta: 0.05,
          method: separate,
          nmaxold: 5,
          weight: 75}
  mode: lcao
  nbands: -50
  occupations: {name: fermi-dirac,
                width: 0.1}
  poissonsolver: {eps: 1e-07,
                  name: fd,
                  nn: 3,
                  relax: GS}
  xc: PBE

System changes: positions, numbers, cell, pbc, initial_charges, initial_magmoms 

Initialize ...

C-setup:
  name: Carbon
  id: 4aa54d4b901d75f77cc0ea3eec22967b
  Z: 6
  valence: 4
  core: 2
  charge: 0.0
  file: /home/esb/DFT/gpaw-setups-0.8.7929/C.PBE.gz
  cutoffs: 0.64(comp), 1.14(filt), 1.14(core), lmax=2
  valence states:
                energy  radius
    2s(2.00)   -13.751   0.635
    2p(2.00)    -5.284   0.635
    *s          13.461   0.635
    *p          21.927   0.635
    *d           0.000   0.635

  LCAO basis set for C:
    Name: dzp
    File: /home/esb/DFT/gpaw-setups-0.8.7929/C.dzp.basis.gz
    Number of radial functions: 5
    Number of spherical harmonics: 13
      l=0, rc=5.5469 Bohr: 2s-sz confined orbital
      l=1, rc=6.6719 Bohr: 2p-sz confined orbital
      l=0, rc=3.0312 Bohr: 2s-dz split-valence wave
      l=1, rc=3.7500 Bohr: 2p-dz split-valence wave
      l=2, rc=6.6719 Bohr: d-type Gaussian polarization

Reference energy: -24663.074771

Spin-paired calculation

Occupation numbers:
  Fermi-Dirac: width=0.1000 eV

Convergence criteria:
  Maximum total energy change: 0.0005 eV / electron
  Maximum integral of absolute density change: 0.0001 electrons
  Maximum integral of absolute eigenstate change: 4e-08 eV^2
  Maximum number of iterations: 99

Symmetries present (total): 1

  ( 1  0  0)
  ( 0  1  0)
  ( 0  0  1)

1 k-point (Gamma)
1 k-point in the irreducible part of the Brillouin zone
       k-points in crystal coordinates                weights
   0:     0.00000000    0.00000000    0.00000000          1/1

Wave functions: LCAO
  Diagonalizer: Serial LAPACK
  Atomic Correction: dense with blas
  Datatype: float
  Eigensolver: None 

LCAO using direct dense diagonalizer 

Densities:
  Coarse grid: 80*80*48 grid
  Fine grid: 160*160*96 grid
  Total Charge: 0.000000 

Density mixing:
  Method: separate
  Backend: pulay
  Linear mixing parameter: 0.05
  Mixing with 5 old densities
  Damping of long wave oscillations: 75 

Hamiltonian:
  XC and Coulomb potentials evaluated on a 160*160*96 grid
  Using the PBE Exchange-Correlation functional
  Interpolation: tri-quintic (5. degree polynomial)
  Poisson solver: Gauss-Seidel solver with 6 multi-grid levels
    Coarsest grid: 5 x 5 x 3 points
    Stencil: 6*3+1=19 point O(h^6) finite-difference Laplacian
    Max iterations: 1000
    Tolerance: 1.000000e-07 

Memory estimate:
  Process memory now: 77.57 MiB
  Calculator: 15.59 MiB
    Density: 6.13 MiB
      Arrays: 3.81 MiB
      Localized functions: 0.86 MiB
      Mixer: 1.46 MiB
    Hamiltonian: 5.40 MiB
      Arrays: 2.49 MiB
      XC: 0.00 MiB
      Poisson: 2.85 MiB
      vbar: 0.07 MiB
    Wavefunctions: 4.05 MiB
      C [qnM]: 0.23 MiB
      S, T [2 x qmm]: 1.49 MiB
      P [aqMi]: 0.01 MiB
      TCI: 0.00 MiB
      BasisFunctions: 2.33 MiB
      Eigensolver: 0.00 MiB

Total number of cores used: 16
Domain decomposition: 2 x 4 x 2

Number of atoms: 24
Number of atomic orbitals: 312
Number of bands in calculation: 98
Bands to converge: occupied states only
Number of valence electrons: 96

... initialized

Initializing position-dependent things.

Density initialized from atomic densities
           .--------------------------------------.  
          /|                                      |  
         / |                                      |  
        /  |                                      |  
       /   |                                      |  
      /    |                                      |  
     /     |                                      |  
    /      |                                      |  
   /       |                                      |  
  /        |           C                          |  
 *         |  C C   C      C  C C                 |  
 |         | C       C      C   C                 |  
 |         .---C---C-C---C-------C----------------.  
 |        /    C    C   C        C               /   
 |       /       C      C   C  C                /    
 |      /                                      /     
 |     /                                      /      
 |    /                                      /       
 |   /                                      /        
 |  /                                      /         
 | /                                      /          
 |/                                      /           
 *--------------------------------------*            

Positions:
   0 C      5.495636    8.689150    5.818119
   1 C      5.610078    3.318896    5.305737
   2 C      3.537909    7.528178    5.687544
   3 C      6.375922    9.789677    5.940044
   4 C      5.833599    6.079579    5.484298
   5 C      4.474201    5.498887    5.461761
   6 C      6.313855    7.469667    5.597377
   7 C      6.950910    3.769821    5.309245
   8 C      4.071908    8.709465    5.847802
   9 C      4.616837    4.088007    5.355297
  10 C      3.259175    6.251518    5.560335
  11 C      7.010492    5.237664    5.381104
  12 C     10.411743    8.224185    4.590560
  13 C      8.209131    9.116301    4.894501
  14 C      9.176732   10.156395    4.837818
  15 C      7.862051    5.373453    4.735827
  16 C     10.952966    4.740367    4.385995
  17 C      8.973515    7.857468    4.765100
  18 C      8.537420    4.075329    4.618014
  19 C      9.920320    4.012459    4.481606
  20 C     11.501752    5.963904    4.353978
  21 C     10.354348    9.664102    4.630652
  22 C     11.354136    7.221803    4.406927
  23 C      8.068162    6.783381    4.793334

Unit cell:
           periodic     x           y           z      points  spacing
  1. axis:    yes   16.000000    0.000000    0.000000    80     0.2000
  2. axis:    yes    0.000000   16.000000    0.000000    80     0.2000
  3. axis:    yes    0.000000    0.000000   10.000000    48     0.2083

Effective grid spacing dv^(1/3) = 0.2027

                     log10-error:    total        iterations:
           time      wfs    density  energy       fermi  poisson
iter:   1  09:52:32          +inf  -174.702061    2      6      
iter:   2  09:52:32         -0.88  -173.621342    3      3      
iter:   3  09:52:33         -0.92  -170.285588    32     4      
iter:   4  09:52:34         -1.14  -169.806801    4      3      
iter:   5  09:52:34         -1.22  -169.574942    35     3      
iter:   6  09:52:35         -1.45  -169.528013    4      3      
iter:   7  09:52:35         -1.61  -169.470722    3      2      
iter:   8  09:52:36         -1.68  -169.406265    4      3      
iter:   9  09:52:37         -1.95  -169.393082    3      2      
iter:  10  09:52:37         -2.07  -169.384023    4      2      
iter:  11  09:52:38         -2.26  -169.376208    4      2      
iter:  12  09:52:38         -2.50  -169.374207    3      2      
iter:  13  09:52:39         -2.63  -169.369269    3      2      
iter:  14  09:52:40         -2.90  -169.369333    2      2      
iter:  15  09:52:40         -3.00  -169.360323    3      1      
iter:  16  09:52:41         -3.22  -169.363416    3      1      
iter:  17  09:52:41         -3.33  -169.360330    3      1      
iter:  18  09:52:42         -3.49  -169.364533    3      1      
iter:  19  09:52:42         -3.58  -169.373223    3      1      
iter:  20  09:52:43         -3.77  -169.370006    2      1      
iter:  21  09:52:44         -3.82  -169.368666    2      1      
iter:  22  09:52:44         -4.01  -169.371285    2      1      

Converged after 22 iterations.

Dipole moment: (0.613206, -0.684710, -0.154865) |e|*Ang

Energy contributions relative to reference atoms: (reference = -24663.074771)

Kinetic:       +137.986123
Potential:     -134.419240
External:        +0.000000
XC:            -175.773303
Entropy (-ST):   -0.343288
Local:           +3.006779
--------------------------
Free energy:   -169.542929
Extrapolated:  -169.371285

Fermi level: -4.38248

 Band  Eigenvalues  Occupancy
    0    -24.51199    2.00000
    1    -22.09066    2.00000
    2    -21.54990    2.00000
    3    -20.79749    2.00000
    4    -20.65496    2.00000
    5    -19.94368    2.00000
    6    -19.49203    2.00000
    7    -19.29264    2.00000
    8    -18.58229    2.00000
    9    -17.90610    2.00000
   10    -17.44899    2.00000
   11    -17.14637    2.00000
   12    -16.44381    2.00000
   13    -16.22671    2.00000
   14    -15.18336    2.00000
   15    -14.79727    2.00000
   16    -14.15201    2.00000
   17    -13.59654    2.00000
   18    -13.13740    2.00000
   19    -12.80638    2.00000
   20    -12.49345    2.00000
   21    -12.08025    2.00000
   22    -11.69110    2.00000
   23    -11.51754    2.00000
   24    -11.34832    2.00000
   25    -10.64204    2.00000
   26    -10.18955    2.00000
   27     -9.71891    2.00000
   28     -9.59023    2.00000
   29     -9.34063    2.00000
   30     -8.94058    2.00000
   31     -8.86055    2.00000
   32     -8.57624    2.00000
   33     -8.48825    2.00000
   34     -7.84776    2.00000
   35     -7.79291    2.00000
   36     -7.42432    2.00000
   37     -7.17887    2.00000
   38     -7.11090    2.00000
   39     -7.05982    2.00000
   40     -6.42021    2.00000
   41     -6.28583    2.00000
   42     -6.06382    2.00000
   43     -5.92068    2.00000
   44     -5.40298    1.99993
   45     -4.96292    1.99399
   46     -4.56834    1.73027
   47     -4.47752    1.44239
   48     -4.34697    0.82431
   49     -3.83553    0.00839
   50     -3.56997    0.00059
   51     -3.41430    0.00012
   52     -3.15297    0.00001
   53     -2.67060    0.00000
   54     -2.29939    0.00000
   55     -1.63764    0.00000
   56     -1.53616    0.00000
   57     -1.43164    0.00000
   58     -1.18675    0.00000
   59     -1.02230    0.00000
   60     -0.74707    0.00000
   61     -0.18771    0.00000
   62      0.56957    0.00000
   63      1.20638    0.00000
   64      1.86936    0.00000
   65      2.63725    0.00000
   66      2.99572    0.00000
   67      3.60530    0.00000
   68      3.96063    0.00000
   69      4.27557    0.00000
   70      5.45971    0.00000
   71      5.61293    0.00000
   72      5.66711    0.00000
   73      5.90532    0.00000
   74      6.39284    0.00000
   75      6.58451    0.00000
   76      7.18643    0.00000
   77      7.42233    0.00000
   78      7.74153    0.00000
   79      7.81544    0.00000
   80      8.23417    0.00000
   81      8.54326    0.00000
   82      8.59012    0.00000
   83      8.61518    0.00000
   84      8.87797    0.00000
   85      9.02412    0.00000
   86      9.24374    0.00000
   87      9.27987    0.00000
   88      9.52294    0.00000
   89      9.54839    0.00000
   90      9.59894    0.00000
   91      9.69928    0.00000
   92      9.91882    0.00000
   93     10.02105    0.00000
   94     10.09733    0.00000
   95     10.17251    0.00000
   96     10.25772    0.00000
   97     10.39413    0.00000


Forces in eV/Ang:
  0 C     2.56053   -0.06801   -0.73569
  1 C     3.01113   -1.01513   -0.58633
  2 C    -0.17304    0.06735    0.16837
  3 C     2.05422   -0.52297   -1.30707
  4 C     0.62131    3.02968    1.93380
  5 C    -1.09926   -0.88617    0.28560
  6 C    -0.84011   -3.93829   -2.03193
  7 C     0.17593   -1.81386    0.05734
  8 C    -0.28216    0.07604    0.22175
  9 C    -1.32971    1.16137    0.53042
 10 C     0.44312   -0.30053   -0.33040
 11 C   -30.85197   -7.98178   18.90503
 12 C     0.80973   -0.30822   -0.28854
 13 C    -2.00896    2.57743    2.13461
 14 C     0.46671    0.23271   -0.18089
 15 C    29.38999    8.16451  -18.97686
 16 C     1.08086    1.14657   -0.39725
 17 C    -2.14046   -1.21075    0.01120
 18 C    -0.13760   -0.69291    0.36703
 19 C    -2.60980   -1.11740    0.51787
 20 C    -0.16212   -1.28297    0.07809
 21 C     0.03353   -0.18450   -0.12858
 22 C    -0.51587    0.90346    0.08680
 23 C     1.48870    3.94094   -0.39185

System changes: positions 

Initializing position-dependent things.

Density initialized from wave functions
           .--------------------------------------.  
          /|                                      |  
         / |                                      |  
        /  |                                      |  
       /   |                                      |  
      /    |                                      |  
     /     |                                      |  
    /      |                                      |  
   /       |                                      |  
  /        |           C                          |  
 *         |  C C   C      C  C C                 |  
 |         | C       C      C   C                 |  
 |         .---C---C-C---C-------C----------------.  
 |        /    C    C   C        C               /   
 |       /       C      C   C  C                /    
 |      /                                      /     
 |     /                                      /      
 |    /                                      /       
 |   /                                      /        
 |  /                                      /         
 | /                                      /          
 |/                                      /           
 *--------------------------------------*            

Positions:
   0 C      5.498400    8.689077    5.817325
   1 C      5.613328    3.317801    5.305104
   2 C      3.537723    7.528250    5.687726
   3 C      6.378140    9.789112    5.938633
   4 C      5.834270    6.082850    5.486385
   5 C      4.473014    5.497930    5.462070
   6 C      6.312948    7.465416    5.595183
   7 C      6.951100    3.767863    5.309306
   8 C      4.071604    8.709547    5.848042
   9 C      4.615401    4.089261    5.355870
  10 C      3.259654    6.251193    5.559978
  11 C      6.977186    5.229048    5.401512
  12 C     10.412617    8.223853    4.590248
  13 C      8.206962    9.119083    4.896805
  14 C      9.177236   10.156646    4.837622
  15 C      7.893779    5.382267    4.715341
  16 C     10.954133    4.741604    4.385566
  17 C      8.971204    7.856161    4.765112
  18 C      8.537271    4.074581    4.618410
  19 C      9.917503    4.011253    4.482165
  20 C     11.501577    5.962519    4.354062
  21 C     10.354384    9.663903    4.630514
  22 C     11.353579    7.222778    4.407021
  23 C      8.069769    6.787635    4.792911

Unit cell:
           periodic     x           y           z      points  spacing
  1. axis:    yes   16.000000    0.000000    0.000000    80     0.2000
  2. axis:    yes    0.000000   16.000000    0.000000    80     0.2000
  3. axis:    yes    0.000000    0.000000   10.000000    48     0.2083

Effective grid spacing dv^(1/3) = 0.2027

                     log10-error:    total        iterations:
           time      wfs    density  energy       fermi  poisson
iter:   1  09:52:46          +inf  -171.803167    3      5      
iter:   2  09:52:47         -2.20  -171.782042    3      2      
iter:   3  09:52:47         -2.37  -171.772008    3      2      
iter:   4  09:52:48         -2.49  -171.767424    3      2      
iter:   5  09:52:49         -2.59  -171.763193    2      2      
iter:   6  09:52:49         -2.75  -171.762468    3      2      
iter:   7  09:52:50         -2.94  -171.762992    2      1      
iter:   8  09:52:50         -3.17  -171.761135    2      1      
iter:   9  09:52:51         -3.30  -171.760159    2      1      
iter:  10  09:52:51         -3.48  -171.760025    2      1      
iter:  11  09:52:52         -3.60  -171.757917    2      1      
iter:  12  09:52:53         -3.42  -171.760535    2      1      
iter:  13  09:52:53         -3.85  -171.759670    2      1      
iter:  14  09:52:54         -3.98  -171.758522    2      1      
iter:  15  09:52:54         -4.01  -171.759625    2      1      

Converged after 15 iterations.

Dipole moment: (0.593674, -0.691981, -0.147292) |e|*Ang

Energy contributions relative to reference atoms: (reference = -24663.074771)

Kinetic:       +126.233734
Potential:     -126.475164
External:        +0.000000
XC:            -174.307267
Entropy (-ST):   -0.326286
Local:           +2.952215
--------------------------
Free energy:   -171.922768
Extrapolated:  -171.759625

Fermi level: -4.38767

 Band  Eigenvalues  Occupancy
    0    -24.18131    2.00000
    1    -22.06229    2.00000
    2    -21.54319    2.00000
    3    -20.78602    2.00000
    4    -20.62488    2.00000
    5    -19.90464    2.00000
    6    -19.50095    2.00000
    7    -19.25106    2.00000
    8    -18.61650    2.00000
    9    -17.89266    2.00000
   10    -17.42149    2.00000
   11    -17.11419    2.00000
   12    -16.43747    2.00000
   13    -16.20302    2.00000
   14    -15.18109    2.00000
   15    -14.78116    2.00000
   16    -14.16790    2.00000
   17    -13.58548    2.00000
   18    -13.09097    2.00000
   19    -12.80541    2.00000
   20    -12.49430    2.00000
   21    -12.06970    2.00000
   22    -11.72097    2.00000
   23    -11.30897    2.00000
   24    -11.20098    2.00000
   25    -10.63769    2.00000
   26    -10.21864    2.00000
   27     -9.70550    2.00000
   28     -9.59014    2.00000
   29     -9.28315    2.00000
   30     -9.02061    2.00000
   31     -8.86756    2.00000
   32     -8.55664    2.00000
   33     -8.49833    2.00000
   34     -7.86853    2.00000
   35     -7.79356    2.00000
   36     -7.42516    2.00000
   37     -7.18893    2.00000
   38     -7.11301    2.00000
   39     -7.05491    2.00000
   40     -6.43703    2.00000
   41     -6.26407    2.00000
   42     -6.03084    2.00000
   43     -5.91076    2.00000
   44     -5.39458    1.99992
   45     -4.96161    1.99359
   46     -4.58476    1.75542
   47     -4.50204    1.51670
   48     -4.33135    0.72561
   49     -3.83395    0.00784
   50     -3.60229    0.00078
   51     -3.43118    0.00014
   52     -3.15022    0.00001
   53     -2.68468    0.00000
   54     -2.27993    0.00000
   55     -1.62532    0.00000
   56     -1.49823    0.00000
   57     -1.41026    0.00000
   58     -1.16736    0.00000
   59     -1.02938    0.00000
   60     -0.74508    0.00000
   61     -0.20741    0.00000
   62      0.39803    0.00000
   63      1.18733    0.00000
   64      1.87715    0.00000
   65      2.66784    0.00000
   66      2.98327    0.00000
   67      3.60213    0.00000
   68      3.96702    0.00000
   69      4.28202    0.00000
   70      5.51189    0.00000
   71      5.54856    0.00000
   72      5.79935    0.00000
   73      5.97530    0.00000
   74      6.50945    0.00000
   75      6.57329    0.00000
   76      7.20518    0.00000
   77      7.40688    0.00000
   78      7.76558    0.00000
   79      7.88192    0.00000
   80      8.24716    0.00000
   81      8.55986    0.00000
   82      8.61561    0.00000
   83      8.66564    0.00000
   84      8.88615    0.00000
   85      9.06997    0.00000
   86      9.25130    0.00000
   87      9.29327    0.00000
   88      9.51177    0.00000
   89      9.53504    0.00000
   90      9.59286    0.00000
   91      9.68325    0.00000
   92      9.92779    0.00000
   93      9.99249    0.00000
   94     10.10688    0.00000
   95     10.16180    0.00000
   96     10.26189    0.00000
   97     10.38462    0.00000


Forces in eV/Ang:
  0 C     2.49422   -0.21394   -0.72888
  1 C     2.50943   -0.86236   -0.56457
  2 C    -0.18101    0.05760    0.17500
  3 C     2.11350   -0.48559   -1.32080
  4 C     0.13125    2.76224    1.96461
  5 C    -1.20646   -0.87026    0.30661
  6 C    -0.78740   -3.56148   -2.04281
  7 C     0.15253   -1.36143    0.06387
  8 C    -0.21522    0.07629    0.22237
  9 C    -1.09211    0.86682    0.53604
 10 C     0.40163   -0.27540   -0.33787
 11 C   -18.65349   -6.23567   10.25131
 12 C     0.60506   -0.35110   -0.26463
 13 C    -1.95241    2.52361    2.14465
 14 C     0.48230    0.22006   -0.21453
 15 C    17.77929    6.09080  -10.41696
 16 C     0.74278    0.77266   -0.38150
 17 C    -1.90680   -0.76066    0.00545
 18 C    -0.24578   -0.37931    0.37723
 19 C    -2.07415   -1.00212    0.47152
 20 C    -0.15067   -1.01958    0.08951
 21 C     0.02450   -0.10766   -0.09777
 22 C    -0.42737    0.72538    0.06555
 23 C     1.41372    3.38746   -0.33534

System changes: positions 

Initializing position-dependent things.

Density initialized from wave functions
           .--------------------------------------.  
          /|                                      |  
         / |                                      |  
        /  |                                      |  
       /   |                                      |  
      /    |                                      |  
     /     |                                      |  
    /      |                                      |  
   /       |                                      |  
  /        |           C                          |  
 *         |  C C   C      C  C C                 |  
 |         | C       C      C   C                 |  
 |         .---C---C-C---C-------C----------------.  
 |        /    C    C   C        C               /   
 |       /       C      C   C  C                /    
 |      /                                      /     
 |     /                                      /      
 |    /                                      /       
 |   /                                      /        
 |  /                                      /         
 | /                                      /          
 |/                                      /           
 *--------------------------------------*            

Positions:
   0 C      5.515431    8.686321    5.812240
   1 C      5.626749    3.313021    5.301306
   2 C      3.536377    7.528573    5.689017
   3 C      6.393558    9.786005    5.929197
   4 C      5.831010    6.100054    5.500510
   5 C      4.463587    5.491926    5.464412
   6 C      6.307843    7.443506    5.580677
   7 C      6.951976    3.762122    5.309813
   8 C      4.070657    8.710088    5.849616
   9 C      4.609725    4.092861    5.359700
  10 C      3.262133    6.249465    5.557530
  11 C      6.949769    5.199966    5.399926
  12 C     10.415138    8.221009    4.588586
  13 C      8.193670    9.136429    4.912023
  14 C      9.180772   10.158091    4.835821
  15 C      7.920049    5.407528    4.714958
  16 C     10.956486    4.743862    4.383009
  17 C      8.959746    7.854638    4.765101
  18 C      8.534613    4.074584    4.621159
  19 C      9.907443    4.005167    4.485096
  20 C     11.500612    5.957575    4.354791
  21 C     10.354480    9.663800    4.630087
  22 C     11.351319    7.226375    4.407302
  23 C      8.079104    6.806808    4.791028

Unit cell:
           periodic     x           y           z      points  spacing
  1. axis:    yes   16.000000    0.000000    0.000000    80     0.2000
  2. axis:    yes    0.000000   16.000000    0.000000    80     0.2000
  3. axis:    yes    0.000000    0.000000   10.000000    48     0.2083

Effective grid spacing dv^(1/3) = 0.2027

                     log10-error:    total        iterations:
           time      wfs    density  energy       fermi  poisson
iter:   1  09:52:56          +inf  -173.461697    3      5      
iter:   2  09:52:57         -2.03  -173.429812    3      2      
iter:   3  09:52:58         -2.14  -173.402761    3      2      
iter:   4  09:52:58         -2.35  -173.401000    3      2      
iter:   5  09:52:59         -2.52  -173.399650    3      2      
iter:   6  09:52:59         -2.60  -173.395206    3      2      
iter:   7  09:53:00         -2.89  -173.395995    2      2      
iter:   8  09:53:00         -3.07  -173.397275    2      1      
iter:   9  09:53:01         -3.23  -173.397103    2      1      
iter:  10  09:53:02         -3.33  -173.396753    2      1      
iter:  11  09:53:02         -3.55  -173.396828    2      1      
iter:  12  09:53:03         -3.66  -173.396133    2      1      
iter:  13  09:53:03         -3.85  -173.396193    2      1      
iter:  14  09:53:04         -3.97  -173.396260    2      1      
iter:  15  09:53:04         -4.12  -173.396203    2      1      

Converged after 15 iterations.

Dipole moment: (0.587266, -0.699939, -0.153250) |e|*Ang

Energy contributions relative to reference atoms: (reference = -24663.074771)

Kinetic:       +118.403151
Potential:     -121.234901
External:        +0.000000
XC:            -173.351030
Entropy (-ST):   -0.304738
Local:           +2.938945
--------------------------
Free energy:   -173.548572
Extrapolated:  -173.396203

Fermi level: -4.39823

 Band  Eigenvalues  Occupancy
    0    -23.87423    2.00000
    1    -22.00884    2.00000
    2    -21.49717    2.00000
    3    -20.73692    2.00000
    4    -20.59148    2.00000
    5    -19.85705    2.00000
    6    -19.48681    2.00000
    7    -19.21986    2.00000
    8    -18.70455    2.00000
    9    -17.89750    2.00000
   10    -17.39991    2.00000
   11    -17.08226    2.00000
   12    -16.39434    2.00000
   13    -16.17324    2.00000
   14    -15.19510    2.00000
   15    -14.78543    2.00000
   16    -14.14239    2.00000
   17    -13.61681    2.00000
   18    -13.04395    2.00000
   19    -12.78444    2.00000
   20    -12.44056    2.00000
   21    -12.03309    2.00000
   22    -11.76034    2.00000
   23    -11.15372    2.00000
   24    -11.07285    2.00000
   25    -10.58366    2.00000
   26    -10.25906    2.00000
   27     -9.69794    2.00000
   28     -9.58853    2.00000
   29     -9.26255    2.00000
   30     -9.15792    2.00000
   31     -8.84611    2.00000
   32     -8.54595    2.00000
   33     -8.48665    2.00000
   34     -7.87928    2.00000
   35     -7.82215    2.00000
   36     -7.42087    2.00000
   37     -7.17355    2.00000
   38     -7.10308    2.00000
   39     -7.05009    2.00000
   40     -6.47756    2.00000
   41     -6.24136    2.00000
   42     -5.99775    2.00000
   43     -5.89969    2.00000
   44     -5.41754    1.99993
   45     -4.98279    1.99423
   46     -4.61775    1.79963
   47     -4.52463    1.55942
   48     -4.32286    0.64001
   49     -3.81966    0.00612
   50     -3.57963    0.00056
   51     -3.38694    0.00008
   52     -3.21672    0.00001
   53     -2.75366    0.00000
   54     -2.24854    0.00000
   55     -1.57413    0.00000
   56     -1.45206    0.00000
   57     -1.37065    0.00000
   58     -1.10069    0.00000
   59     -0.99031    0.00000
   60     -0.70753    0.00000
   61     -0.14219    0.00000
   62      0.35840    0.00000
   63      1.21904    0.00000
   64      1.88873    0.00000
   65      2.75806    0.00000
   66      2.99731    0.00000
   67      3.60956    0.00000
   68      3.94461    0.00000
   69      4.25565    0.00000
   70      5.36755    0.00000
   71      5.52714    0.00000
   72      5.81394    0.00000
   73      6.18234    0.00000
   74      6.50583    0.00000
   75      6.75572    0.00000
   76      7.26789    0.00000
   77      7.50693    0.00000
   78      7.81275    0.00000
   79      7.91500    0.00000
   80      8.28376    0.00000
   81      8.59559    0.00000
   82      8.62985    0.00000
   83      8.76106    0.00000
   84      8.88383    0.00000
   85      9.07256    0.00000
   86      9.25475    0.00000
   87      9.38878    0.00000
   88      9.48984    0.00000
   89      9.54769    0.00000
   90      9.59554    0.00000
   91      9.71255    0.00000
   92      9.91466    0.00000
   93      9.99646    0.00000
   94     10.11040    0.00000
   95     10.17011    0.00000
   96     10.25895    0.00000
   97     10.39866    0.00000


Forces in eV/Ang:
  0 C     1.91704   -0.36666   -0.77418
  1 C     0.90181   -0.15704   -0.49096
  2 C    -0.19366   -0.03899    0.14222
  3 C     2.21922   -0.59490   -1.41204
  4 C     0.01113    1.03016    1.58747
  5 C    -0.94444   -0.66192    0.36463
  6 C    -0.51046   -2.44321   -1.81492
  7 C     0.41446   -1.24682   -0.14630
  8 C     0.38979    0.05376    0.22851
  9 C     0.02355   -0.19958    0.47550
 10 C     0.16535    0.01038   -0.28899
 11 C   -13.02848   -4.28150    6.15109
 12 C     0.11808   -0.12088   -0.20927
 13 C    -1.71301    2.32211    2.10599
 14 C     0.28268    0.12597   -0.21428
 15 C    12.23921    4.71732   -6.26579
 16 C    -0.09813   -0.01043   -0.28952
 17 C    -1.17260    0.53246    0.00691
 18 C    -0.31923    0.03236    0.42624
 19 C    -1.02579   -0.51894    0.37907
 20 C    -0.17736   -0.37535    0.10787
 21 C     0.19239   -0.15376   -0.07380
 22 C    -0.18950    0.13977    0.01760
 23 C     0.48290    2.17194   -0.03388

System changes: positions 

Initializing position-dependent things.

Density initialized from wave functions
           .--------------------------------------.  
          /|                                      |  
         / |                                      |  
        /  |                                      |  
       /   |                                      |  
      /    |                                      |  
     /     |                                      |  
    /      |                                      |  
   /       |                                      |  
  /        |           C                          |  
 *         |  C C   C      C  C C                 |  
 |         | C       C      C   C                 |  
 |         .---C---C-C---C-------C----------------.  
 |        /    C    C   C        C               /   
 |       /       C      C   C  C                /    
 |      /                                      /     
 |     /                                      /      
 |    /                                      /       
 |   /                                      /        
 |  /                                      /         
 | /                                      /          
 |/                                      /           
 *--------------------------------------*            

Positions:
   0 C      5.532259    8.681239    5.804473
   1 C      5.627468    3.314616    5.296806
   2 C      3.534365    7.527831    5.690374
   3 C      6.416284    9.780030    5.914827
   4 C      5.827446    6.103256    5.515327
   5 C      4.454284    5.486095    5.468345
   6 C      6.303969    7.425186    5.563291
   7 C      6.956715    3.753161    5.307775
   8 C      4.076793    8.710555    5.851905
   9 C      4.614918    4.085685    5.364272
  10 C      3.262782    6.250596    5.554761
  11 C      6.919948    5.175186    5.390094
  12 C     10.413461    8.220212    4.586838
  13 C      8.177784    9.158487    4.932859
  14 C      9.183081   10.158972    4.833470
  15 C      7.946272    5.436160    4.723171
  16 C     10.950700    4.738877    4.380521
  17 C      8.951904    7.866848    4.765135
  18 C      8.530495    4.078262    4.625602
  19 C      9.904043    4.002252    4.488264
  20 C     11.498851    5.957570    4.355993
  21 C     10.356832    9.662656    4.629636
  22 C     11.350754    7.224797    4.407189
  23 C      8.080588    6.820951    4.791980

Unit cell:
           periodic     x           y           z      points  spacing
  1. axis:    yes   16.000000    0.000000    0.000000    80     0.2000
  2. axis:    yes    0.000000   16.000000    0.000000    80     0.2000
  3. axis:    yes    0.000000    0.000000   10.000000    48     0.2083

Effective grid spacing dv^(1/3) = 0.2027

                     log10-error:    total        iterations:
           time      wfs    density  energy       fermi  poisson
iter:   1  09:53:06          +inf  -174.574731    3      5      
iter:   2  09:53:07         -2.02  -174.545355    3      2      
iter:   3  09:53:08         -2.19  -174.530370    3      2      
iter:   4  09:53:08         -2.35  -174.523787    3      2      
iter:   5  09:53:09         -2.51  -174.521923    2      2      
iter:   6  09:53:09         -2.73  -174.519975    3      2      
iter:   7  09:53:10         -2.95  -174.519342    2      1      
iter:   8  09:53:11         -3.07  -174.520545    2      2      
iter:   9  09:53:11         -3.27  -174.521068    2      1      
iter:  10  09:53:12         -3.38  -174.521113    2      1      
iter:  11  09:53:12         -3.51  -174.521533    2      1      
iter:  12  09:53:13         -3.61  -174.521403    2      1      
iter:  13  09:53:13         -3.76  -174.520906    2      1      
iter:  14  09:53:14         -3.90  -174.520788    2      1      
iter:  15  09:53:15         -4.02  -174.520758    2      1      

Converged after 15 iterations.

Dipole moment: (0.551739, -0.694867, -0.148792) |e|*Ang

Energy contributions relative to reference atoms: (reference = -24663.074771)

Kinetic:       +113.525948
Potential:     -117.933665
External:        +0.000000
XC:            -172.904807
Entropy (-ST):   -0.306572
Local:           +2.945053
--------------------------
Free energy:   -174.674044
Extrapolated:  -174.520758

Fermi level: -4.42435

 Band  Eigenvalues  Occupancy
    0    -23.65697    2.00000
    1    -21.95502    2.00000
    2    -21.47128    2.00000
    3    -20.74500    2.00000
    4    -20.55264    2.00000
    5    -19.82767    2.00000
    6    -19.49481    2.00000
    7    -19.19852    2.00000
    8    -18.72855    2.00000
    9    -17.85118    2.00000
   10    -17.39525    2.00000
   11    -17.06852    2.00000
   12    -16.37104    2.00000
   13    -16.16121    2.00000
   14    -15.20168    2.00000
   15    -14.79498    2.00000
   16    -14.13923    2.00000
   17    -13.62513    2.00000
   18    -12.99931    2.00000
   19    -12.75914    2.00000
   20    -12.40295    2.00000
   21    -12.02230    2.00000
   22    -11.78431    2.00000
   23    -11.08813    2.00000
   24    -10.99866    2.00000
   25    -10.55573    2.00000
   26    -10.26348    2.00000
   27     -9.67418    2.00000
   28     -9.60483    2.00000
   29     -9.25302    2.00000
   30     -9.20165    2.00000
   31     -8.81429    2.00000
   32     -8.54241    2.00000
   33     -8.49661    2.00000
   34     -7.97204    2.00000
   35     -7.83831    2.00000
   36     -7.42262    2.00000
   37     -7.19182    2.00000
   38     -7.10392    2.00000
   39     -7.04202    2.00000
   40     -6.51285    2.00000
   41     -6.24345    2.00000
   42     -5.99129    2.00000
   43     -5.90554    2.00000
   44     -5.39616    1.99988
   45     -5.00839    1.99420
   46     -4.64942    1.80942
   47     -4.54205    1.52881
   48     -4.35428    0.66330
   49     -3.80022    0.00389
   50     -3.58200    0.00044
   51     -3.36186    0.00005
   52     -3.15609    0.00001
   53     -2.69957    0.00000
   54     -2.23972    0.00000
   55     -1.53896    0.00000
   56     -1.42426    0.00000
   57     -1.30671    0.00000
   58     -1.00512    0.00000
   59     -0.91611    0.00000
   60     -0.65672    0.00000
   61     -0.06362    0.00000
   62      0.39097    0.00000
   63      1.25096    0.00000
   64      1.91098    0.00000
   65      2.84633    0.00000
   66      2.99926    0.00000
   67      3.57925    0.00000
   68      3.95015    0.00000
   69      4.27690    0.00000
   70      5.25597    0.00000
   71      5.52830    0.00000
   72      5.78141    0.00000
   73      6.30632    0.00000
   74      6.55950    0.00000
   75      6.86225    0.00000
   76      7.20413    0.00000
   77      7.59262    0.00000
   78      7.81997    0.00000
   79      7.88133    0.00000
   80      8.25269    0.00000
   81      8.57498    0.00000
   82      8.63101    0.00000
   83      8.85598    0.00000
   84      8.87232    0.00000
   85      9.07324    0.00000
   86      9.27201    0.00000
   87      9.44439    0.00000
   88      9.48469    0.00000
   89      9.58055    0.00000
   90      9.58459    0.00000
   91      9.73796    0.00000
   92      9.90663    0.00000
   93      9.98440    0.00000
   94     10.10976    0.00000
   95     10.19001    0.00000
   96     10.27598    0.00000
   97     10.41638    0.00000


Forces in eV/Ang:
  0 C     1.58199   -0.43230   -0.77784
  1 C     0.99655   -0.56657   -0.48773
  2 C    -0.04607    0.27787    0.17016
  3 C     2.41184   -0.75497   -1.53463
  4 C    -0.37735   -0.10200    1.22963
  5 C    -0.72300   -0.66644    0.42661
  6 C    -0.16707   -1.60298   -1.62684
  7 C     0.59473   -0.99664   -0.37075
  8 C     0.60810   -0.19559    0.17006
  9 C    -0.47779    0.12209    0.47216
 10 C     0.06058   -0.04354   -0.24286
 11 C    -8.81738   -2.73571    3.55564
 12 C    -0.07218    0.04276   -0.19106
 13 C    -1.53657    2.18056    2.05003
 14 C     0.26147   -0.00042   -0.18426
 15 C     8.30767    2.93833   -3.56177
 16 C     0.12433    0.25835   -0.27926
 17 C    -1.07403    0.99499    0.09101
 18 C    -0.37059    0.37669    0.47472
 19 C    -1.01108   -0.59884    0.36221
 20 C    -0.30997   -0.65518    0.10325
 21 C     0.16266   -0.05372   -0.05168
 22 C    -0.23367    0.15295    0.02096
 23 C     0.08436    2.02291    0.23658

System changes: positions 

Initializing position-dependent things.

Density initialized from wave functions
           .--------------------------------------.  
          /|                                      |  
         / |                                      |  
        /  |                                      |  
       /   |                                      |  
      /    |                                      |  
     /     |                                      |  
    /      |                                      |  
   /       |                                      |  
  /        |           C                          |  
 *         |  C C   C      C  C C                 |  
 |         | C       C      C   C                 |  
 |         .---C---C-C---C-------C----------------.  
 |        /    C    C   C        C               /   
 |       /       C      C   C  C                /    
 |      /                                      /     
 |     /                                      /      
 |    /                                      /       
 |   /                                      /        
 |  /                                      /         
 | /                                      /          
 |/                                      /           
 *--------------------------------------*            

Positions:
   0 C      5.549743    8.674833    5.794939
   1 C      5.633621    3.309743    5.291139
   2 C      3.533831    7.531167    5.692431
   3 C      6.446320    9.770702    5.895793
   4 C      5.819732    6.096219    5.529442
   5 C      4.445601    5.478498    5.473814
   6 C      6.303020    7.410566    5.544021
   7 C      6.964500    3.743840    5.302707
   8 C      4.085967    8.707964    5.853954
   9 C      4.612379    4.083575    5.369923
  10 C      3.262735    6.250764    5.551896
  11 C      6.892159    5.156286    5.376958
  12 C     10.410346    8.221094    4.584767
  13 C      8.159990    9.184241    4.957761
  14 C      9.185916   10.158619    4.831067
  15 C      7.971349    5.456846    4.735910
  16 C     10.948793    4.738563    4.377403
  17 C      8.941674    7.884378    4.766271
  18 C      8.525217    4.085609    4.631572
  19 C      9.896794    3.996535    4.492223
  20 C     11.494994    5.952164    4.357347
  21 C     10.359097    9.662380    4.629235
  22 C     11.348850    7.224491    4.407232
  23 C      8.079004    6.839990    4.795971

Unit cell:
           periodic     x           y           z      points  spacing
  1. axis:    yes   16.000000    0.000000    0.000000    80     0.2000
  2. axis:    yes    0.000000   16.000000    0.000000    80     0.2000
  3. axis:    yes    0.000000    0.000000   10.000000    48     0.2083

Effective grid spacing dv^(1/3) = 0.2027

                     log10-error:    total        iterations:
           time      wfs    density  energy       fermi  poisson
iter:   1  09:53:17          +inf  -175.503223    3      5      
iter:   2  09:53:17         -1.93  -175.436210    4      2      
iter:   3  09:53:18         -2.21  -175.422557    3      2      
iter:   4  09:53:18         -2.32  -175.410658    3      2      
iter:   5  09:53:19         -2.50  -175.408475    3      2      
iter:   6  09:53:20         -2.70  -175.406627    2      2      
iter:   7  09:53:20         -2.85  -175.406272    2      2      
iter:   8  09:53:21         -3.02  -175.406758    2      2      
iter:   9  09:53:21         -3.34  -175.406838    2      1      
iter:  10  09:53:22         -3.39  -175.407061    2      1      
iter:  11  09:53:22         -3.61  -175.406780    2      1      
iter:  12  09:53:23         -3.69  -175.406470    2      1      
iter:  13  09:53:24         -3.91  -175.406728    2      1      
iter:  14  09:53:24         -4.09  -175.406596    2      1      

Converged after 14 iterations.

Dipole moment: (0.521304, -0.675070, -0.142923) |e|*Ang

Energy contributions relative to reference atoms: (reference = -24663.074771)

Kinetic:       +107.959616
Potential:     -113.879521
External:        +0.000000
XC:            -172.271988
Entropy (-ST):   -0.310237
Local:           +2.940415
--------------------------
Free energy:   -175.561715
Extrapolated:  -175.406596

Fermi level: -4.44006

 Band  Eigenvalues  Occupancy
    0    -23.51380    2.00000
    1    -21.92776    2.00000
    2    -21.45952    2.00000
    3    -20.73176    2.00000
    4    -20.51509    2.00000
    5    -19.81599    2.00000
    6    -19.48612    2.00000
    7    -19.15785    2.00000
    8    -18.74315    2.00000
    9    -17.84731    2.00000
   10    -17.40748    2.00000
   11    -17.03560    2.00000
   12    -16.34975    2.00000
   13    -16.13302    2.00000
   14    -15.23904    2.00000
   15    -14.77719    2.00000
   16    -14.13647    2.00000
   17    -13.63069    2.00000
   18    -12.98456    2.00000
   19    -12.75904    2.00000
   20    -12.38421    2.00000
   21    -12.02781    2.00000
   22    -11.78574    2.00000
   23    -11.07318    2.00000
   24    -10.94800    2.00000
   25    -10.58765    2.00000
   26    -10.26034    2.00000
   27     -9.66440    2.00000
   28     -9.61748    2.00000
   29     -9.23233    2.00000
   30     -9.19112    2.00000
   31     -8.78947    2.00000
   32     -8.56838    2.00000
   33     -8.48955    2.00000
   34     -8.12188    2.00000
   35     -7.86269    2.00000
   36     -7.42839    2.00000
   37     -7.20404    2.00000
   38     -7.10983    2.00000
   39     -7.01487    2.00000
   40     -6.54404    2.00000
   41     -6.21263    2.00000
   42     -5.98289    2.00000
   43     -5.87600    2.00000
   44     -5.39794    1.99986
   45     -5.03119    1.99460
   46     -4.67162    1.82032
   47     -4.54569    1.48395
   48     -4.37779    0.69832
   49     -3.77691    0.00263
   50     -3.55022    0.00027
   51     -3.36547    0.00004
   52     -3.15973    0.00001
   53     -2.71556    0.00000
   54     -2.23130    0.00000
   55     -1.53487    0.00000
   56     -1.40768    0.00000
   57     -1.23852    0.00000
   58     -0.95872    0.00000
   59     -0.77776    0.00000
   60     -0.56441    0.00000
   61      0.02873    0.00000
   62      0.42917    0.00000
   63      1.24832    0.00000
   64      1.93932    0.00000
   65      2.88609    0.00000
   66      2.99776    0.00000
   67      3.51271    0.00000
   68      3.95264    0.00000
   69      4.28108    0.00000
   70      5.21756    0.00000
   71      5.47336    0.00000
   72      5.72361    0.00000
   73      6.22961    0.00000
   74      6.71676    0.00000
   75      6.86574    0.00000
   76      7.19264    0.00000
   77      7.61370    0.00000
   78      7.83460    0.00000
   79      7.86102    0.00000
   80      8.26373    0.00000
   81      8.57998    0.00000
   82      8.63225    0.00000
   83      8.88087    0.00000
   84      8.92746    0.00000
   85      9.08569    0.00000
   86      9.26688    0.00000
   87      9.44255    0.00000
   88      9.48190    0.00000
   89      9.58169    0.00000
   90      9.62986    0.00000
   91      9.75942    0.00000
   92      9.88566    0.00000
   93      9.97740    0.00000
   94     10.10453    0.00000
   95     10.20786    0.00000
   96     10.29151    0.00000
   97     10.43601    0.00000


Forces in eV/Ang:
  0 C     1.41693   -0.38170   -0.79899
  1 C     0.24292   -0.25699   -0.41231
  2 C    -0.03756    0.07616    0.15805
  3 C     2.63935   -0.95356   -1.69299
  4 C    -0.45749   -0.47401    0.82887
  5 C    -0.65577   -0.47814    0.48583
  6 C     0.07284   -1.29027   -1.48215
  7 C     0.59875   -0.77879   -0.55462
  8 C     0.86188   -0.21073    0.12027
  9 C    -0.01055   -0.55339    0.38230
 10 C    -0.02733    0.16574   -0.17921
 11 C    -5.73815   -1.54285    2.05958
 12 C    -0.20638    0.13564   -0.17198
 13 C    -1.46948    2.13601    2.02391
 14 C     0.14609   -0.03671   -0.11681
 15 C     5.45079    1.84878   -1.90979
 16 C    -0.41494   -0.30515   -0.21599
 17 C    -0.96064    1.26025    0.19699
 18 C    -0.32246    0.52446    0.50916
 19 C    -0.41659   -0.33707    0.26154
 20 C    -0.30164   -0.10155    0.11855
 21 C     0.23483    0.05531   -0.06546
 22 C    -0.24400   -0.12016    0.00767
 23 C    -0.38557    1.62622    0.45714

System changes: positions 

Initializing position-dependent things.

Density initialized from wave functions
           .--------------------------------------.  
          /|                                      |  
         / |                                      |  
        /  |                                      |  
       /   |                                      |  
      /    |                                      |  
     /     |                                      |  
    /      |                                      |  
   /       |                                      |  
  /        |           C                          |  
 *         |  C C   C      C  C C                 |  
 |         | C       C      C   C                 |  
 |         .---C---C-C---C-------C----------------.  
 |        /    C    C   C        C               /   
 |       /       C      C   C  C                /    
 |      /                                      /     
 |     /                                      /      
 |    /                                      /       
 |   /                                      /        
 |  /                                      /         
 | /                                      /          
 |/                                      /           
 *--------------------------------------*            

Positions:
   0 C      5.566726    8.669440    5.785190
   1 C      5.634684    3.307180    5.286127
   2 C      3.533327    7.532256    5.694391
   3 C      6.478651    9.759357    5.875155
   4 C      5.812188    6.088916    5.539988
   5 C      4.437196    5.472590    5.479805
   6 C      6.303985    7.396482    5.525782
   7 C      6.971860    3.735934    5.296054
   8 C      4.096785    8.705387    5.855488
   9 C      4.613185    4.075900    5.374700
  10 C      3.262220    6.252786    5.549623
  11 C      6.870190    5.144009    5.367082
  12 C     10.406915    8.222588    4.582763
  13 C      8.142273    9.210120    4.982583
  14 C      9.187805   10.158113    4.829424
  15 C      7.991952    5.471704    4.747087
  16 C     10.942585    4.733612    4.374794
  17 C      8.931079    7.901936    4.768538
  18 C      8.520743    4.093323    4.637830
  19 C      9.893660    3.992798    4.495310
  20 C     11.491323    5.951638    4.358835
  21 C     10.361931    9.663219    4.628586
  22 C     11.346345    7.222342    4.407233
  23 C      8.074075    6.857543    4.801687

Unit cell:
           periodic     x           y           z      points  spacing
  1. axis:    yes   16.000000    0.000000    0.000000    80     0.2000
  2. axis:    yes    0.000000   16.000000    0.000000    80     0.2000
  3. axis:    yes    0.000000    0.000000   10.000000    48     0.2083

Effective grid spacing dv^(1/3) = 0.2027

                     log10-error:    total        iterations:
           time      wfs    density  energy       fermi  poisson
iter:   1  09:53:26          +inf  -176.214641    3      5      
iter:   2  09:53:27         -1.88  -176.123838    4      2      
iter:   3  09:53:27         -2.25  -176.112310    3      1      
iter:   4  09:53:28         -2.35  -176.099263    3      2      
iter:   5  09:53:29         -2.53  -176.099571    3      2      
iter:   6  09:53:29         -2.65  -176.099209    3      2      
iter:   7  09:53:30         -2.47  -176.095358    3      2      
iter:   8  09:53:30         -3.01  -176.095124    2      1      
iter:   9  09:53:31         -3.19  -176.095542    2      1      
iter:  10  09:53:32         -3.38  -176.095836    2      1      
iter:  11  09:53:32         -3.47  -176.095643    2      1      
iter:  12  09:53:33         -3.68  -176.095893    2      1      
iter:  13  09:53:33         -3.74  -176.095791    2      1      
iter:  14  09:53:34         -3.98  -176.095792    2      1      
iter:  15  09:53:34         -4.15  -176.095785    2      1      

Converged after 15 iterations.

Dipole moment: (0.484376, -0.654383, -0.133105) |e|*Ang

Energy contributions relative to reference atoms: (reference = -24663.074771)

Kinetic:       +103.580838
Potential:     -110.632823
External:        +0.000000
XC:            -171.838367
Entropy (-ST):   -0.315007
Local:           +2.952070
--------------------------
Free energy:   -176.253289
Extrapolated:  -176.095785

Fermi level: -4.45273

 Band  Eigenvalues  Occupancy
    0    -23.42653    2.00000
    1    -21.89512    2.00000
    2    -21.45271    2.00000
    3    -20.72659    2.00000
    4    -20.47766    2.00000
    5    -19.80934    2.00000
    6    -19.48461    2.00000
    7    -19.13784    2.00000
    8    -18.75532    2.00000
    9    -17.81138    2.00000
   10    -17.42972    2.00000
   11    -17.00213    2.00000
   12    -16.33773    2.00000
   13    -16.11392    2.00000
   14    -15.27789    2.00000
   15    -14.76395    2.00000
   16    -14.13550    2.00000
   17    -13.62799    2.00000
   18    -12.98394    2.00000
   19    -12.74890    2.00000
   20    -12.37032    2.00000
   21    -12.03892    2.00000
   22    -11.76802    2.00000
   23    -11.08513    2.00000
   24    -10.91598    2.00000
   25    -10.63474    2.00000
   26    -10.24956    2.00000
   27     -9.66085    2.00000
   28     -9.62352    2.00000
   29     -9.22817    2.00000
   30     -9.13966    2.00000
   31     -8.77892    2.00000
   32     -8.62491    2.00000
   33     -8.47279    2.00000
   34     -8.26731    2.00000
   35     -7.89678    2.00000
   36     -7.43962    2.00000
   37     -7.22551    2.00000
   38     -7.12123    2.00000
   39     -6.99477    2.00000
   40     -6.57661    2.00000
   41     -6.20604    2.00000
   42     -5.97839    2.00000
   43     -5.86616    2.00000
   44     -5.37855    1.99981
   45     -5.05344    1.99509
   46     -4.69511    1.83725
   47     -4.54099    1.41470
   48     -4.40189    0.75115
   49     -3.74996    0.00177
   50     -3.52790    0.00019
   51     -3.36840    0.00004
   52     -3.11184    0.00000
   53     -2.67899    0.00000
   54     -2.23744    0.00000
   55     -1.54105    0.00000
   56     -1.39535    0.00000
   57     -1.15703    0.00000
   58     -0.91291    0.00000
   59     -0.68228    0.00000
   60     -0.39629    0.00000
   61      0.10418    0.00000
   62      0.48623    0.00000
   63      1.28300    0.00000
   64      1.97518    0.00000
   65      2.89588    0.00000
   66      2.99110    0.00000
   67      3.43524    0.00000
   68      3.95294    0.00000
   69      4.28949    0.00000
   70      5.18120    0.00000
   71      5.40719    0.00000
   72      5.63680    0.00000
   73      6.16312    0.00000
   74      6.78239    0.00000
   75      6.84977    0.00000
   76      7.20172    0.00000
   77      7.58063    0.00000
   78      7.78369    0.00000
   79      7.85317    0.00000
   80      8.26188    0.00000
   81      8.53759    0.00000
   82      8.62720    0.00000
   83      8.89226    0.00000
   84      8.97278    0.00000
   85      9.09567    0.00000
   86      9.25622    0.00000
   87      9.41883    0.00000
   88      9.47924    0.00000
   89      9.56298    0.00000
   90      9.66307    0.00000
   91      9.77631    0.00000
   92      9.88601    0.00000
   93      9.96347    0.00000
   94     10.09077    0.00000
   95     10.22498    0.00000
   96     10.30148    0.00000
   97     10.44559    0.00000


Forces in eV/Ang:
  0 C     1.30259   -0.35634   -0.80963
  1 C     0.23977   -0.34876   -0.38178
  2 C     0.06977    0.22886    0.19070
  3 C     2.89682   -1.17015   -1.89020
  4 C    -0.53577   -0.73706    0.52346
  5 C    -0.59691   -0.49115    0.49640
  6 C     0.30129   -0.95375   -1.32304
  7 C     0.54177   -0.50124   -0.65151
  8 C     0.98993   -0.36232    0.03731
  9 C    -0.16546   -0.52884    0.34296
 10 C    -0.05663    0.10431   -0.14429
 11 C    -3.61645   -0.87678    1.21780
 12 C    -0.32892    0.29976   -0.13910
 13 C    -1.45896    2.12295    2.04042
 14 C     0.04375   -0.08710   -0.03349
 15 C     3.47424    1.10640   -0.90731
 16 C    -0.29003   -0.12884   -0.20965
 17 C    -0.91277    1.40383    0.26747
 18 C    -0.28405    0.60147    0.51150
 19 C    -0.36679   -0.36466    0.21268
 20 C    -0.38422   -0.26248    0.11555
 21 C     0.26318    0.08237   -0.08529
 22 C    -0.32768   -0.09160    0.01223
 23 C    -0.75669    1.33009    0.59321

System changes: positions 

Initializing position-dependent things.

Density initialized from wave functions
           .--------------------------------------.  
          /|                                      |  
         / |                                      |  
        /  |                                      |  
       /   |                                      |  
      /    |                                      |  
     /     |                                      |  
    /      |                                      |  
   /       |                                      |  
  /        |           C                          |  
 *         |  C C   C      C  C C                 |  
 |         | C       C      C  C                  |  
 |         .---C---C-C---C-------C----------------.  
 |        /    C    C   C        C               /   
 |       /       C      C   C  C                /    
 |      /                                      /     
 |     /                                      /      
 |    /                                      /       
 |   /                                      /        
 |  /                                      /         
 | /                                      /          
 |/                                      /           
 *--------------------------------------*            

Positions:
   0 C      5.581898    8.664926    5.776139
   1 C      5.636918    3.303787    5.281732
   2 C      3.533796    7.534641    5.696509
   3 C      6.510576    9.747035    5.854442
   4 C      5.805321    6.081746    5.547351
   5 C      4.429770    5.466821    5.485284
   6 C      6.306531    7.385188    5.510247
   7 C      6.977791    3.730691    5.289377
   8 C      4.107389    8.701764    5.856153
   9 C      4.612050    4.069753    5.378777
  10 C      3.261727    6.253829    5.547782
  11 C      6.854199    5.135098    5.360870
  12 C     10.403114    8.225346    4.581185
  13 C      8.125724    9.234087    5.005675
  14 C      9.188658   10.157337    4.828703
  15 C      8.007251    5.482451    4.755956
  16 C     10.938780    4.731460    4.372362
  17 C      8.921229    7.918132    4.771180
  18 C      8.517140    4.100372    4.643513
  19 C      9.890138    3.988750    4.497805
  20 C     11.487244    5.949049    4.360154
  21 C     10.364762    9.664042    4.627743
  22 C     11.343105    7.221141    4.407317
  23 C      8.066874    6.871910    4.807749

Unit cell:
           periodic     x           y           z      points  spacing
  1. axis:    yes   16.000000    0.000000    0.000000    80     0.2000
  2. axis:    yes    0.000000   16.000000    0.000000    80     0.2000
  3. axis:    yes    0.000000    0.000000   10.000000    48     0.2083

Effective grid spacing dv^(1/3) = 0.2027

                     log10-error:    total        iterations:
           time      wfs    density  energy       fermi  poisson
iter:   1  09:53:36          +inf  -176.802341    3      5      
iter:   2  09:53:37         -1.84  -176.682444    4      2      
iter:   3  09:53:38         -2.30  -176.673197    3      1      
iter:   4  09:53:38         -2.39  -176.660515    3      2      
iter:   5  09:53:39         -2.58  -176.660419    2      2      
iter:   6  09:53:39         -2.70  -176.661365    3      2      
iter:   7  09:53:40         -2.43  -176.656386    3      2      
iter:   8  09:53:41         -2.85  -176.656064    2      1      
iter:   9  09:53:41         -3.15  -176.656800    2      1      
iter:  10  09:53:42         -3.36  -176.657359    2      1      
iter:  11  09:53:42         -3.50  -176.657410    2      1      
iter:  12  09:53:43         -3.57  -176.657062    2      1      
iter:  13  09:53:43         -3.71  -176.657187    2      1      
iter:  14  09:53:44         -3.80  -176.656994    2      1      
iter:  15  09:53:45         -3.99  -176.656954    2      1      
iter:  16  09:53:45         -4.17  -176.657125    2      1      

Converged after 16 iterations.

Dipole moment: (0.455734, -0.630544, -0.122973) |e|*Ang

Energy contributions relative to reference atoms: (reference = -24663.074771)

Kinetic:        +99.584288
Potential:     -107.598943
External:        +0.000000
XC:            -171.438281
Entropy (-ST):   -0.315531
Local:           +2.953577
--------------------------
Free energy:   -176.814890
Extrapolated:  -176.657125

Fermi level: -4.45651

 Band  Eigenvalues  Occupancy
    0    -23.37421    2.00000
    1    -21.87199    2.00000
    2    -21.44649    2.00000
    3    -20.71887    2.00000
    4    -20.45068    2.00000
    5    -19.80641    2.00000
    6    -19.47834    2.00000
    7    -19.11521    2.00000
    8    -18.75050    2.00000
    9    -17.79510    2.00000
   10    -17.46297    2.00000
   11    -16.96846    2.00000
   12    -16.32762    2.00000
   13    -16.09020    2.00000
   14    -15.32618    2.00000
   15    -14.74221    2.00000
   16    -14.13230    2.00000
   17    -13.62387    2.00000
   18    -13.00680    2.00000
   19    -12.73747    2.00000
   20    -12.36313    2.00000
   21    -12.04919    2.00000
   22    -11.74881    2.00000
   23    -11.10298    2.00000
   24    -10.90115    2.00000
   25    -10.66881    2.00000
   26    -10.24745    2.00000
   27     -9.66352    2.00000
   28     -9.61919    2.00000
   29     -9.23249    2.00000
   30     -9.09473    2.00000
   31     -8.83930    2.00000
   32     -8.66818    2.00000
   33     -8.46092    2.00000
   34     -8.36519    2.00000
   35     -7.93240    2.00000
   36     -7.44856    2.00000
   37     -7.24193    2.00000
   38     -7.12876    2.00000
   39     -6.97490    2.00000
   40     -6.59217    2.00000
   41     -6.19328    2.00000
   42     -5.96492    2.00000
   43     -5.84445    2.00000
   44     -5.37271    1.99979
   45     -5.06644    1.99552
   46     -4.71718    1.86258
   47     -4.52875    1.34625
   48     -4.41478    0.79433
   49     -3.72659    0.00135
   50     -3.49932    0.00014
   51     -3.37177    0.00004
   52     -3.08748    0.00000
   53     -2.66974    0.00000
   54     -2.24309    0.00000
   55     -1.55707    0.00000
   56     -1.38467    0.00000
   57     -1.07634    0.00000
   58     -0.86602    0.00000
   59     -0.64084    0.00000
   60     -0.21900    0.00000
   61      0.15323    0.00000
   62      0.57086    0.00000
   63      1.35810    0.00000
   64      2.02426    0.00000
   65      2.89250    0.00000
   66      2.98590    0.00000
   67      3.37811    0.00000
   68      3.93920    0.00000
   69      4.28718    0.00000
   70      5.14849    0.00000
   71      5.32837    0.00000
   72      5.53501    0.00000
   73      6.11288    0.00000
   74      6.74068    0.00000
   75      6.91003    0.00000
   76      7.20682    0.00000
   77      7.55064    0.00000
   78      7.73144    0.00000
   79      7.86854    0.00000
   80      8.27674    0.00000
   81      8.51453    0.00000
   82      8.63207    0.00000
   83      8.90513    0.00000
   84      8.98896    0.00000
   85      9.11281    0.00000
   86      9.22810    0.00000
   87      9.39559    0.00000
   88      9.47700    0.00000
   89      9.54934    0.00000
   90      9.66622    0.00000
   91      9.78173    0.00000
   92      9.88885    0.00000
   93      9.96509    0.00000
   94     10.07483    0.00000
   95     10.24036    0.00000
   96     10.30611    0.00000
   97     10.45022    0.00000


Forces in eV/Ang:
  0 C     1.21685   -0.31727   -0.78030
  1 C     0.04808   -0.27945   -0.34038
  2 C     0.10347    0.15825    0.19338
  3 C     3.14705   -1.34776   -2.08714
  4 C    -0.54891   -0.84546    0.30213
  5 C    -0.54013   -0.43941    0.50700
  6 C     0.43045   -0.74986   -1.23526
  7 C     0.49193   -0.32412   -0.70813
  8 C     1.12806   -0.37895   -0.01173
  9 C    -0.09918   -0.70017    0.29843
 10 C    -0.07945    0.15694   -0.10637
 11 C    -2.22186   -0.40676    0.72360
 12 C    -0.39614    0.34853   -0.11948
 13 C    -1.51518    2.03414    2.05551
 14 C     0.04934   -0.12100    0.03587
 15 C     2.13340    0.68367   -0.30341
 16 C    -0.43205   -0.28728   -0.18073
 17 C    -0.96555    1.36347    0.35653
 18 C    -0.22718    0.59981    0.51059
 19 C    -0.17776   -0.29473    0.16764
 20 C    -0.38938   -0.06056    0.10956
 21 C     0.19461    0.18475   -0.08514
 22 C    -0.39585   -0.16767    0.01182
 23 C    -0.99131    1.17541    0.65306

System changes: positions 

Initializing position-dependent things.

Density initialized from wave functions
           .--------------------------------------.  
          /|                                      |  
         / |                                      |  
        /  |                                      |  
       /   |                                      |  
      /    |                                      |  
     /     |                                      |  
    /      |                                      |  
   /       |                                      |  
  /        |           C                          |  
 *         |  C C   C      C  C C                 |  
 |         | C       C      C  C                  |  
 |         .---C---C-C---C-------C----------------.  
 |        /    C    C   C        C               /   
 |       /       C      C   C  C                /    
 |      /                                      /     
 |     /                                      /      
 |    /                                      /       
 |   /                                      /        
 |  /                                      /         
 | /                                      /          
 |/                                      /           
 *--------------------------------------*            

Positions:
   0 C      5.595680    8.661161    5.768057
   1 C      5.638330    3.300999    5.277932
   2 C      3.534421    7.536109    5.698482
   3 C      6.542228    9.734243    5.833597
   4 C      5.799249    6.075439    5.552824
   5 C      4.423225    5.461765    5.490389
   6 C      6.309569    7.375455    5.496277
   7 C      6.982758    3.726859    5.282967
   8 C      4.118043    8.698468    5.856421
   9 C      4.611141    4.063195    5.382256
  10 C      3.261252    6.255142    5.546338
  11 C      6.841541    5.128271    5.357138
  12 C     10.399407    8.228054    4.579833
  13 C      8.109563    9.255647    5.027333
  14 C      9.189778   10.156418    4.828589
  15 C      8.019164    5.491457    4.762949
  16 C     10.934441    4.728440    4.370296
  17 C      8.911064    7.931767    4.774351
  18 C      8.514350    4.106394    4.648730
  19 C      9.887712    3.985335    4.499858
  20 C     11.483516    5.948170    4.361302
  21 C     10.366571    9.665684    4.626971
  22 C     11.339414    7.219687    4.407417
  23 C      8.059004    6.884965    4.813486

Unit cell:
           periodic     x           y           z      points  spacing
  1. axis:    yes   16.000000    0.000000    0.000000    80     0.2000
  2. axis:    yes    0.000000   16.000000    0.000000    80     0.2000
  3. axis:    yes    0.000000    0.000000   10.000000    48     0.2083

Effective grid spacing dv^(1/3) = 0.2027

                     log10-error:    total        iterations:
           time      wfs    density  energy       fermi  poisson
iter:   1  09:53:47          +inf  -177.322745    3      5      
iter:   2  09:53:48         -1.81  -177.180264    4      2      
iter:   3  09:53:48         -2.32  -177.171773    2      1      
iter:   4  09:53:49         -2.42  -177.160348    3      2      
iter:   5  09:53:50         -2.61  -177.159954    3      2      
iter:   6  09:53:50         -2.71  -177.163048    3      2      
iter:   7  09:53:51         -2.40  -177.178220    3      2      
iter:   8  09:53:51         -2.29  -177.157537    3      2      
iter:   9  09:53:52         -3.15  -177.156677    2      1      
iter:  10  09:53:52         -3.31  -177.156636    2      1      
iter:  11  09:53:53         -3.56  -177.157141    2      1      
iter:  12  09:53:54         -3.61  -177.157145    2      1      
iter:  13  09:53:54         -3.71  -177.157001    2      1      
iter:  14  09:53:55         -3.83  -177.157039    2      1      
iter:  15  09:53:55         -3.88  -177.156780    2      1      
iter:  16  09:53:56         -3.98  -177.156904    2      1      
iter:  17  09:53:56         -4.06  -177.157093    2      1      

Converged after 17 iterations.

Dipole moment: (0.428318, -0.607180, -0.111994) |e|*Ang

Energy contributions relative to reference atoms: (reference = -24663.074771)

Kinetic:        +96.359722
Potential:     -105.144056
External:        +0.000000
XC:            -171.165427
Entropy (-ST):   -0.312386
Local:           +2.948861
--------------------------
Free energy:   -177.313286
Extrapolated:  -177.157093

Fermi level: -4.45619

 Band  Eigenvalues  Occupancy
    0    -23.33508    2.00000
    1    -21.84781    2.00000
    2    -21.44093    2.00000
    3    -20.71211    2.00000
    4    -20.42783    2.00000
    5    -19.80452    2.00000
    6    -19.47594    2.00000
    7    -19.10067    2.00000
    8    -18.75029    2.00000
    9    -17.77150    2.00000
   10    -17.50257    2.00000
   11    -16.93646    2.00000
   12    -16.31886    2.00000
   13    -16.06963    2.00000
   14    -15.37818    2.00000
   15    -14.72126    2.00000
   16    -14.12815    2.00000
   17    -13.61968    2.00000
   18    -13.04320    2.00000
   19    -12.72111    2.00000
   20    -12.35902    2.00000
   21    -12.05992    2.00000
   22    -11.72410    2.00000
   23    -11.12491    2.00000
   24    -10.89698    2.00000
   25    -10.68648    2.00000
   26    -10.25326    2.00000
   27     -9.66602    2.00000
   28     -9.61842    2.00000
   29     -9.24284    2.00000
   30     -9.10724    2.00000
   31     -8.92590    2.00000
   32     -8.66724    2.00000
   33     -8.45043    2.00000
   34     -8.42046    2.00000
   35     -7.96286    2.00000
   36     -7.45813    2.00000
   37     -7.25836    2.00000
   38     -7.13646    2.00000
   39     -6.96002    2.00000
   40     -6.60577    2.00000
   41     -6.18456    2.00000
   42     -5.94883    2.00000
   43     -5.83045    2.00000
   44     -5.36355    1.99977
   45     -5.07924    1.99607
   46     -4.74230    1.89178
   47     -4.51431    1.28267
   48     -4.42156    0.82858
   49     -3.69477    0.00099
   50     -3.47387    0.00011
   51     -3.36779    0.00004
   52     -3.05763    0.00000
   53     -2.65165    0.00000
   54     -2.25671    0.00000
   55     -1.57509    0.00000
   56     -1.37737    0.00000
   57     -1.00164    0.00000
   58     -0.81767    0.00000
   59     -0.60712    0.00000
   60     -0.07482    0.00000
   61      0.17824    0.00000
   62      0.66196    0.00000
   63      1.49176    0.00000
   64      2.11519    0.00000
   65      2.88869    0.00000
   66      2.98512    0.00000
   67      3.32733    0.00000
   68      3.92150    0.00000
   69      4.28325    0.00000
   70      5.11193    0.00000
   71      5.23431    0.00000
   72      5.43948    0.00000
   73      6.07639    0.00000
   74      6.69617    0.00000
   75      6.95828    0.00000
   76      7.19669    0.00000
   77      7.52941    0.00000
   78      7.68283    0.00000
   79      7.88464    0.00000
   80      8.29853    0.00000
   81      8.48982    0.00000
   82      8.63083    0.00000
   83      8.91463    0.00000
   84      8.99181    0.00000
   85      9.13044    0.00000
   86      9.18820    0.00000
   87      9.37611    0.00000
   88      9.47609    0.00000
   89      9.53451    0.00000
   90      9.66609    0.00000
   91      9.77777    0.00000
   92      9.89544    0.00000
   93      9.96803    0.00000
   94     10.06488    0.00000
   95     10.25383    0.00000
   96     10.30858    0.00000
   97     10.45023    0.00000


Forces in eV/Ang:
  0 C     1.20776   -0.28609   -0.77074
  1 C    -0.02734   -0.25344   -0.30742
  2 C     0.16322    0.17364    0.20331
  3 C     3.40309   -1.49388   -2.27200
  4 C    -0.56844   -0.91294    0.12142
  5 C    -0.48530   -0.43365    0.52145
  6 C     0.56650   -0.61132   -1.15149
  7 C     0.42604   -0.16709   -0.73026
  8 C     1.25191   -0.41965   -0.04389
  9 C    -0.10633   -0.75887    0.26659
 10 C    -0.09463    0.15974   -0.07410
 11 C    -1.21362   -0.09296    0.41807
 12 C    -0.46823    0.39269   -0.09728
 13 C    -1.58434    1.96855    2.05807
 14 C    -0.02069   -0.10242    0.11659
 15 C     1.17607    0.38758    0.10150
 16 C    -0.39602   -0.24375   -0.16363
 17 C    -0.95930    1.36519    0.43428
 18 C    -0.19878    0.60747    0.49705
 19 C    -0.13093   -0.29077    0.15043
 20 C    -0.42222   -0.10535    0.09458
 21 C     0.17002    0.22474   -0.09388
 22 C    -0.49062   -0.12508    0.01770
 23 C    -1.23211    0.96384    0.70818

System changes: positions 

Initializing position-dependent things.

Density initialized from wave functions
           .--------------------------------------.  
          /|                                      |  
         / |                                      |  
        /  |                                      |  
       /   |                                      |  
      /    |                                      |  
     /     |                                      |  
    /      |                                      |  
   /       |                                      |  
  /        |           C                          |  
 *         |  C C   C      C  C C                 |  
 |         | C       C      C  C                  |  
 |         .---C---C-C---C-------C----------------.  
 |        /    C    C   C        C               /   
 |       /       C      C   C  C                /    
 |      /                                      /     
 |     /                                      /      
 |    /                                      /       
 |   /                                      /        
 |  /                                      /         
 | /                                      /          
 |/                                      /           
 *--------------------------------------*            

Positions:
   0 C      5.609035    8.657844    5.760478
   1 C      5.639637    3.298514    5.274527
   2 C      3.535386    7.537600    5.700405
   3 C      6.573812    9.721341    5.812717
   4 C      5.793608    6.069775    5.557139
   5 C      4.417338    5.456905    5.495287
   6 C      6.313138    7.366514    5.483473
   7 C      6.986910    3.723986    5.276987
   8 C      4.128774    8.695198    5.856552
   9 C      4.610117    4.056921    5.385382
  10 C      3.260794    6.256317    5.545155
  11 C      6.830853    5.122341    5.354903
  12 C     10.395591    8.230730    4.578686
  13 C      8.093626    9.275635    5.047820
  14 C      9.190320   10.155867    4.829032
  15 C      8.029188    5.499642    4.768827
  16 C     10.930985    4.726277    4.368424
  17 C      8.901399    7.944261    4.777831
  18 C      8.511876    4.111896    4.653511
  19 C      9.885197    3.981954    4.501797
  20 C     11.479795    5.946588    4.362254
  21 C     10.368104    9.667371    4.626171
  22 C     11.335200    7.218940    4.407573
  23 C      8.050310    6.896162    4.819059

Unit cell:
           periodic     x           y           z      points  spacing
  1. axis:    yes   16.000000    0.000000    0.000000    80     0.2000
  2. axis:    yes    0.000000   16.000000    0.000000    80     0.2000
  3. axis:    yes    0.000000    0.000000   10.000000    48     0.2083

Effective grid spacing dv^(1/3) = 0.2027

                     log10-error:    total        iterations:
           time      wfs    density  energy       fermi  poisson
iter:   1  09:53:58          +inf  -177.818884    3      5      
iter:   2  09:53:59         -1.78  -177.645461    4      2      
iter:   3  09:54:00         -2.34  -177.637518    2      1      
iter:   4  09:54:00         -2.44  -177.626792    3      2      
iter:   5  09:54:01         -2.64  -177.626090    3      2      
iter:   6  09:54:01         -2.74  -177.629425    3      2      
iter:   7  09:54:02         -2.46  -177.641011    3      2      
iter:   8  09:54:03         -2.34  -177.624007    3      2      
iter:   9  09:54:03         -3.16  -177.623245    2      1      
iter:  10  09:54:04         -3.30  -177.623072    2      1      
iter:  11  09:54:04         -3.52  -177.623710    2      1      
iter:  12  09:54:05         -3.65  -177.623650    2      1      
iter:  13  09:54:05         -3.75  -177.623465    2      1      
iter:  14  09:54:06         -3.88  -177.623482    2      1      
iter:  15  09:54:07         -4.02  -177.623449    2      1      

Converged after 15 iterations.

Dipole moment: (0.403639, -0.584995, -0.100851) |e|*Ang

Energy contributions relative to reference atoms: (reference = -24663.074771)

Kinetic:        +93.429321
Potential:     -102.907864
External:        +0.000000
XC:            -170.943843
Entropy (-ST):   -0.307575
Local:           +2.952725
--------------------------
Free energy:   -177.777237
Extrapolated:  -177.623449

Fermi level: -4.45212

 Band  Eigenvalues  Occupancy
    0    -23.30361    2.00000
    1    -21.82401    2.00000
    2    -21.43540    2.00000
    3    -20.70643    2.00000
    4    -20.41044    2.00000
    5    -19.80302    2.00000
    6    -19.47492    2.00000
    7    -19.08802    2.00000
    8    -18.74412    2.00000
    9    -17.75389    2.00000
   10    -17.54988    2.00000
   11    -16.90556    2.00000
   12    -16.31004    2.00000
   13    -16.04913    2.00000
   14    -15.43779    2.00000
   15    -14.69835    2.00000
   16    -14.12437    2.00000
   17    -13.61580    2.00000
   18    -13.09221    2.00000
   19    -12.70296    2.00000
   20    -12.35779    2.00000
   21    -12.07081    2.00000
   22    -11.69960    2.00000
   23    -11.14729    2.00000
   24    -10.90007    2.00000
   25    -10.69444    2.00000
   26    -10.27143    2.00000
   27     -9.66808    2.00000
   28     -9.62961    2.00000
   29     -9.28877    2.00000
   30     -9.18666    2.00000
   31     -8.92083    2.00000
   32     -8.65584    2.00000
   33     -8.46824    2.00000
   34     -8.43488    2.00000
   35     -7.98919    2.00000
   36     -7.46730    2.00000
   37     -7.27387    2.00000
   38     -7.14242    2.00000
   39     -6.94700    2.00000
   40     -6.61277    2.00000
   41     -6.17487    2.00000
   42     -5.92499    2.00000
   43     -5.81408    2.00000
   44     -5.36134    1.99977
   45     -5.08977    1.99660
   46     -4.76802    1.91852
   47     -4.49846    1.22766
   48     -4.42323    0.85656
   49     -3.66437    0.00076
   50     -3.45250    0.00009
   51     -3.35317    0.00003
   52     -3.03312    0.00000
   53     -2.64106    0.00000
   54     -2.27529    0.00000
   55     -1.59558    0.00000
   56     -1.37398    0.00000
   57     -0.92904    0.00000
   58     -0.76658    0.00000
   59     -0.58524    0.00000
   60      0.02711    0.00000
   61      0.20563    0.00000
   62      0.72503    0.00000
   63      1.64521    0.00000
   64      2.27075    0.00000
   65      2.88482    0.00000
   66      3.00112    0.00000
   67      3.28746    0.00000
   68      3.90319    0.00000
   69      4.27548    0.00000
   70      5.07217    0.00000
   71      5.13081    0.00000
   72      5.35984    0.00000
   73      6.04741    0.00000
   74      6.66313    0.00000
   75      6.99591    0.00000
   76      7.17423    0.00000
   77      7.52367    0.00000
   78      7.64172    0.00000
   79      7.90244    0.00000
   80      8.33854    0.00000
   81      8.47674    0.00000
   82      8.62891    0.00000
   83      8.91922    0.00000
   84      8.98590    0.00000
   85      9.13484    0.00000
   86      9.15268    0.00000
   87      9.36304    0.00000
   88      9.47543    0.00000
   89      9.52503    0.00000
   90      9.66372    0.00000
   91      9.76316    0.00000
   92      9.89818    0.00000
   93      9.96767    0.00000
   94     10.06613    0.00000
   95     10.26496    0.00000
   96     10.31071    0.00000
   97     10.44868    0.00000


Forces in eV/Ang:
  0 C     1.15233   -0.24859   -0.72908
  1 C    -0.10433   -0.22028   -0.27277
  2 C     0.21723    0.15720    0.20833
  3 C     3.52041   -1.62949   -2.39572
  4 C    -0.57001   -0.96118   -0.02695
  5 C    -0.40986   -0.40498    0.51614
  6 C     0.64559   -0.48915   -1.05866
  7 C     0.38718   -0.03973   -0.74773
  8 C     1.37605   -0.43994   -0.08871
  9 C    -0.10018   -0.80406    0.22936
 10 C    -0.10809    0.18853   -0.04243
 11 C    -0.38243    0.18183    0.19695
 12 C    -0.54103    0.39668   -0.08084
 13 C    -1.59778    1.88457    2.04253
 14 C    -0.00449   -0.11598    0.17285
 15 C     0.40173    0.16863    0.39910
 16 C    -0.42431   -0.26974   -0.14405
 17 C    -0.99749    1.32910    0.51625
 18 C    -0.15803    0.61671    0.47836
 19 C    -0.05483   -0.25889    0.12516
 20 C    -0.44340   -0.03449    0.08842
 21 C     0.10019    0.31291   -0.08514
 22 C    -0.57135   -0.14928    0.01896
 23 C    -1.38005    0.83739    0.75409

System changes: positions 

Initializing position-dependent things.

Density initialized from wave functions
           .--------------------------------------.  
          /|                                      |  
         / |                                      |  
        /  |                                      |  
       /   |                                      |  
      /    |                                      |  
     /     |                                      |  
    /      |                                      |  
   /       |                                      |  
  /        |           C                          |  
 *         |  C  C  C     C   C C                 |  
 |         | C       C      C  C                  |  
 |         .---C---C-C---C-------C----------------.  
[...]
Free energy:   -182.061739
Extrapolated:  -181.916065

Fermi level: -4.41096

 Band  Eigenvalues  Occupancy
    0    -23.45275    2.00000
    1    -22.10862    2.00000
    2    -21.48500    2.00000
    3    -20.88895    2.00000
    4    -20.57185    2.00000
    5    -20.03960    2.00000
    6    -19.60579    2.00000
    7    -19.21439    2.00000
    8    -18.58042    2.00000
    9    -18.14108    2.00000
   10    -17.61852    2.00000
   11    -16.70336    2.00000
   12    -16.45536    2.00000
   13    -15.97087    2.00000
   14    -15.83713    2.00000
   15    -14.58337    2.00000
   16    -13.93621    2.00000
   17    -13.86534    2.00000
   18    -13.68120    2.00000
   19    -12.76632    2.00000
   20    -12.50846    2.00000
   21    -11.97733    2.00000
   22    -11.64430    2.00000
   23    -11.33905    2.00000
   24    -11.02178    2.00000
   25    -10.84142    2.00000
   26    -10.54246    2.00000
   27    -10.17050    2.00000
   28     -9.83305    2.00000
   29     -9.67082    2.00000
   30     -9.39666    2.00000
   31     -9.27388    2.00000
   32     -8.92740    2.00000
   33     -8.64489    2.00000
   34     -8.42158    2.00000
   35     -8.19503    2.00000
   36     -7.69456    2.00000
   37     -7.21366    2.00000
   38     -7.07378    2.00000
   39     -6.89828    2.00000
   40     -6.47882    2.00000
   41     -6.28419    2.00000
   42     -5.92659    2.00000
   43     -5.78908    2.00000
   44     -5.63603    1.99999
   45     -5.01768    1.99538
   46     -4.75777    1.93954
   47     -4.48226    1.34215
   48     -4.35295    0.71782
   49     -3.80648    0.00473
   50     -3.55768    0.00039
   51     -3.00923    0.00000
   52     -2.94775    0.00000
   53     -2.63788    0.00000
   54     -2.26493    0.00000
   55     -1.31849    0.00000
   56     -1.19677    0.00000
   57     -0.67084    0.00000
   58     -0.30712    0.00000
   59     -0.15011    0.00000
   60      0.30816    0.00000
   61      1.64666    0.00000
   62      2.15528    0.00000
   63      2.93294    0.00000
   64      3.13525    0.00000
   65      3.45976    0.00000
   66      3.86224    0.00000
   67      4.27962    0.00000
   68      4.35454    0.00000
   69      4.72898    0.00000
   70      5.17349    0.00000
   71      5.50846    0.00000
   72      6.21501    0.00000
   73      6.59043    0.00000
   74      6.65403    0.00000
   75      6.84622    0.00000
   76      7.42500    0.00000
   77      7.61127    0.00000
   78      8.01172    0.00000
   79      8.27697    0.00000
   80      8.58828    0.00000
   81      8.68598    0.00000
   82      8.86578    0.00000
   83      8.93715    0.00000
   84      9.17917    0.00000
   85      9.20695    0.00000
   86      9.38569    0.00000
   87      9.43104    0.00000
   88      9.53018    0.00000
   89      9.69673    0.00000
   90      9.74935    0.00000
   91      9.86233    0.00000
   92     10.02534    0.00000
   93     10.10093    0.00000
   94     10.23231    0.00000
   95     10.31685    0.00000
   96     10.35837    0.00000
   97     10.52285    0.00000


Forces in eV/Ang:
  0 C     0.01833   -0.00088   -0.00046
  1 C     0.04169   -0.01502   -0.00184
  2 C     0.00027    0.00356    0.03652
  3 C    -0.05705    0.12972    0.06503
  4 C    -0.03753    0.00384    0.04910
  5 C    -0.00907   -0.00146   -0.05887
  6 C     0.01488    0.00240   -0.02259
  7 C    -0.02716   -0.01993    0.02465
  8 C    -0.01088   -0.00240   -0.03484
  9 C    -0.00792   -0.02109    0.03644
 10 C    -0.01649    0.04063   -0.06390
 11 C     0.01172    0.01355   -0.00921
 12 C    -0.01073    0.01631   -0.01731
 13 C    -0.00060    0.00789    0.01754
 14 C    -0.01638    0.00570    0.03522
 15 C     0.01003    0.01611    0.00908
 16 C     0.00380   -0.03524   -0.06117
 17 C    -0.00698    0.03142    0.00392
 18 C     0.04162   -0.00170    0.00859
 19 C     0.02982   -0.03953    0.03043
 20 C     0.04046    0.03118   -0.03614
 21 C     0.05718    0.03652   -0.04956
 22 C    -0.01450   -0.04906   -0.00900
 23 C     0.01738   -0.02064    0.02152

System changes: positions 

Initializing position-dependent things.

Density initialized from wave functions
           .--------------------------------------.  
          /|                                      |  
         / |                                      |  
        /  |                                      |  
       /   |                                      |  
      /    |                                      |  
     /     |                                      |  
    /      |                                      |  
   /       |                                      |  
  /        |                                      |  
 *         |     C   C  C  C  C  C                |  
 |         |   C   C C   C C   C                  |  
 |         .-C-C-----C--C-------C-----------------.  
 |        /    C     C  C       C                /   
 |       /       C         C  C                 /    
 |      /                                      /     
 |     /                                      /      
 |    /                                      /       
 |   /                                      /        
 |  /                                      /         
 | /                                      /          
 |/                                      /           
 *--------------------------------------*            

Positions:
   0 C      5.919333    8.584518    5.509930
   1 C      5.752333    3.331025    4.988900
   2 C      3.770664    7.517870    5.551317
   3 C      6.849519    9.631627    5.315857
   4 C      5.822534    5.959961    5.876702
   5 C      4.481857    5.377370    5.579452
   6 C      6.502075    7.250947    5.674914
   7 C      7.068678    3.798815    5.250274
   8 C      4.478386    8.596593    5.477652
   9 C      4.682812    3.993546    5.205677
  10 C      3.369706    6.250076    5.483792
  11 C      6.902473    5.069346    5.855276
  12 C     10.227547    8.260713    4.648202
  13 C      8.177766    9.491532    5.046904
  14 C      9.353177   10.323813    4.800468
  15 C      8.175582    5.590280    5.484556
  16 C     10.651923    4.699493    4.059505
  17 C      8.761058    8.114509    5.003094
  18 C      8.504674    4.216484    4.909174
  19 C      9.653787    3.896764    4.230173
  20 C     11.178157    5.908173    4.119540
  21 C     10.446979    9.690181    4.611087
  22 C     10.965545    7.143473    4.379444
  23 C      7.966257    7.012300    5.378231

Unit cell:
           periodic     x           y           z      points  spacing
  1. axis:    yes   16.000000    0.000000    0.000000    80     0.2000
  2. axis:    yes    0.000000   16.000000    0.000000    80     0.2000
  3. axis:    yes    0.000000    0.000000   10.000000    48     0.2083

Effective grid spacing dv^(1/3) = 0.2027

                     log10-error:    total        iterations:
           time      wfs    density  energy       fermi  poisson
iter:   1  10:02:43          +inf  -181.933763    3      5      
iter:   2  10:02:44         -2.28  -181.917087    3      2      
iter:   3  10:02:44         -2.74  -181.916418    2      1      
iter:   4  10:02:45         -2.79  -181.915952    2      2      
iter:   5  10:02:45         -3.02  -181.916206    2      1      
iter:   6  10:02:46         -3.01  -181.916003    2      2      
iter:   7  10:02:47         -3.06  -181.916333    2      1      
iter:   8  10:02:47         -3.52  -181.916153    2      1      
iter:   9  10:02:48         -3.69  -181.915899    2      1      
iter:  10  10:02:48         -3.78  -181.916132    2      1      
iter:  11  10:02:49         -3.82  -181.915858    2      1      
iter:  12  10:02:49         -3.89  -181.915965    2      1      
iter:  13  10:02:50         -4.21  -181.915980    2      1      

Converged after 13 iterations.

Dipole moment: (0.318894, -0.448141, 0.076055) |e|*Ang

Energy contributions relative to reference atoms: (reference = -24663.074771)

Kinetic:       +113.984245
Potential:     -120.106882
External:        +0.000000
XC:            -178.662130
Entropy (-ST):   -0.292826
Local:           +3.015201
--------------------------
Free energy:   -182.062392
Extrapolated:  -181.915980

Fermi level: -4.41247

 Band  Eigenvalues  Occupancy
    0    -23.45686    2.00000
    1    -22.10497    2.00000
    2    -21.48553    2.00000
    3    -20.89229    2.00000
    4    -20.57493    2.00000
    5    -20.03922    2.00000
    6    -19.60599    2.00000
    7    -19.21155    2.00000
    8    -18.57934    2.00000
    9    -18.14403    2.00000
   10    -17.61683    2.00000
   11    -16.70908    2.00000
   12    -16.45175    2.00000
   13    -15.96987    2.00000
   14    -15.83459    2.00000
   15    -14.58163    2.00000
   16    -13.93504    2.00000
   17    -13.85943    2.00000
   18    -13.68865    2.00000
   19    -12.77332    2.00000
   20    -12.50812    2.00000
   21    -11.97483    2.00000
   22    -11.63824    2.00000
   23    -11.33807    2.00000
   24    -11.00989    2.00000
   25    -10.84058    2.00000
   26    -10.54653    2.00000
   27    -10.16953    2.00000
   28     -9.83362    2.00000
   29     -9.67548    2.00000
   30     -9.38246    2.00000
   31     -9.28394    2.00000
   32     -8.92538    2.00000
   33     -8.65143    2.00000
   34     -8.41779    2.00000
   35     -8.20048    2.00000
   36     -7.69300    2.00000
   37     -7.21318    2.00000
   38     -7.07708    2.00000
   39     -6.89290    2.00000
   40     -6.48853    2.00000
   41     -6.28935    2.00000
   42     -5.92729    2.00000
   43     -5.78181    2.00000
   44     -5.63298    1.99999
   45     -5.02130    1.99547
   46     -4.75310    1.93580
   47     -4.48352    1.34102
   48     -4.35554    0.72278
   49     -3.80411    0.00455
   50     -3.55799    0.00039
   51     -3.02604    0.00000
   52     -2.94129    0.00000
   53     -2.62524    0.00000
   54     -2.26249    0.00000
   55     -1.31338    0.00000
   56     -1.21354    0.00000
   57     -0.68608    0.00000
   58     -0.30125    0.00000
   59     -0.16770    0.00000
   60      0.30282    0.00000
   61      1.65592    0.00000
   62      2.14656    0.00000
   63      2.92557    0.00000
   64      3.10425    0.00000
   65      3.46770    0.00000
   66      3.88345    0.00000
   67      4.27848    0.00000
   68      4.37218    0.00000
   69      4.71026    0.00000
   70      5.18521    0.00000
   71      5.53600    0.00000
   72      6.26178    0.00000
   73      6.61377    0.00000
   74      6.66336    0.00000
   75      6.83978    0.00000
   76      7.43907    0.00000
   77      7.62276    0.00000
   78      8.01172    0.00000
   79      8.29579    0.00000
   80      8.58759    0.00000
   81      8.68625    0.00000
   82      8.86475    0.00000
   83      8.93773    0.00000
   84      9.19325    0.00000
   85      9.20538    0.00000
   86      9.39625    0.00000
   87      9.43906    0.00000
   88      9.52453    0.00000
   89      9.69230    0.00000
   90      9.75839    0.00000
   91      9.86545    0.00000
   92     10.02104    0.00000
   93     10.11236    0.00000
   94     10.23191    0.00000
   95     10.30782    0.00000
   96     10.34613    0.00000
   97     10.52773    0.00000


Forces in eV/Ang:
  0 C     0.01658    0.00412    0.01783
  1 C     0.00135   -0.02661    0.01813
  2 C    -0.00710    0.00282    0.02234
  3 C    -0.07125   -0.00954    0.06428
  4 C     0.01077    0.01671    0.00689
  5 C    -0.01984    0.02303   -0.10014
  6 C     0.02193    0.02892   -0.03710
  7 C     0.01427   -0.03659   -0.02988
  8 C     0.02879    0.03775   -0.01256
  9 C     0.02606   -0.07332    0.06620
 10 C    -0.07689    0.03509   -0.03353
 11 C     0.02302    0.02911    0.00493
 12 C     0.03816    0.06297   -0.03206
 13 C     0.00001   -0.00991    0.01576
 14 C     0.01283   -0.03475    0.04092
 15 C    -0.03997    0.01232    0.10269
 16 C    -0.00093   -0.03772   -0.03510
 17 C    -0.00579    0.06722    0.00578
 18 C     0.01788   -0.03581   -0.07648
 19 C     0.00840   -0.06102    0.09045
 20 C     0.04730   -0.02535   -0.05752
 21 C    -0.00172    0.07039   -0.00631
 22 C     0.00960   -0.03615   -0.02002
 23 C    -0.01295    0.01566    0.03241

System changes: positions 

Initializing position-dependent things.

Density initialized from wave functions
           .--------------------------------------.  
          /|                                      |  
         / |                                      |  
        /  |                                      |  
       /   |                                      |  
      /    |                                      |  
     /     |                                      |  
    /      |                                      |  
   /       |                                      |  
  /        |                                      |  
 *         |     C   C  C  C  C  C                |  
 |         |   C   C C   C C   C                  |  
 |         .-C-C-----C--C-------C-----------------.  
 |        /    C     C  C       C                /   
 |       /       C         C  C                 /    
 |      /                                      /     
 |     /                                      /      
 |    /                                      /       
 |   /                                      /        
 |  /                                      /         
 | /                                      /          
 |/                                      /           
 *--------------------------------------*            

Positions:
   0 C      5.918102    8.584103    5.510557
   1 C      5.751606    3.329920    4.990423
   2 C      3.769768    7.518121    5.553000
   3 C      6.848977    9.629888    5.318025
   4 C      5.822272    5.960095    5.874764
   5 C      4.481303    5.377547    5.577844
   6 C      6.501852    7.250946    5.672333
   7 C      7.068399    3.797824    5.247735
   8 C      4.476814    8.598161    5.479942
   9 C      4.682123    3.991854    5.209203
  10 C      3.368960    6.250448    5.484966
  11 C      6.901935    5.070140    5.851596
  12 C     10.228596    8.263029    4.645865
  13 C      8.176981    9.492080    5.045956
  14 C      9.352977   10.324391    4.803822
  15 C      8.175105    5.590893    5.482399
  16 C     10.652429    4.698401    4.061941
  17 C      8.761178    8.115994    4.999881
  18 C      8.503755    4.215683    4.905856
  19 C      9.654738    3.894604    4.232693
  20 C     11.178701    5.907146    4.122454
  21 C     10.447271    9.692932    4.611067
  22 C     10.965869    7.143766    4.379065
  23 C      7.966497    7.012856    5.376360

Unit cell:
           periodic     x           y           z      points  spacing
  1. axis:    yes   16.000000    0.000000    0.000000    80     0.2000
  2. axis:    yes    0.000000   16.000000    0.000000    80     0.2000
  3. axis:    yes    0.000000    0.000000   10.000000    48     0.2083

Effective grid spacing dv^(1/3) = 0.2027

                     log10-error:    total        iterations:
           time      wfs    density  energy       fermi  poisson
iter:   1  10:02:52          +inf  -181.917657    2      4      
iter:   2  10:02:53         -3.19  -181.917962    2      1      
iter:   3  10:02:53         -3.33  -181.918098    2      1      
iter:   4  10:02:54         -3.48  -181.918246    2      1      
iter:   5  10:02:54         -3.61  -181.918261    2      1      
iter:   6  10:02:55         -3.77  -181.918142    2      1      
iter:   7  10:02:56         -3.88  -181.917920    2      1      
iter:   8  10:02:56         -4.09  -181.917863    2      1      

Converged after 8 iterations.

Dipole moment: (0.320311, -0.446626, 0.073808) |e|*Ang

Energy contributions relative to reference atoms: (reference = -24663.074771)

Kinetic:       +113.722072
Potential:     -119.897183
External:        +0.000000
XC:            -178.602763
Entropy (-ST):   -0.292224
Local:           +3.006124
--------------------------
Free energy:   -182.063975
Extrapolated:  -181.917863

Fermi level: -4.41264

 Band  Eigenvalues  Occupancy
    0    -23.45155    2.00000
    1    -22.10503    2.00000
    2    -21.48372    2.00000
    3    -20.89077    2.00000
    4    -20.57500    2.00000
    5    -20.03965    2.00000
    6    -19.60585    2.00000
    7    -19.21100    2.00000
    8    -18.57818    2.00000
    9    -18.14292    2.00000
   10    -17.61778    2.00000
   11    -16.70808    2.00000
   12    -16.45333    2.00000
   13    -15.96836    2.00000
   14    -15.83607    2.00000
   15    -14.58072    2.00000
   16    -13.93638    2.00000
   17    -13.85993    2.00000
   18    -13.68676    2.00000
   19    -12.77034    2.00000
   20    -12.50874    2.00000
   21    -11.97634    2.00000
   22    -11.63827    2.00000
   23    -11.33892    2.00000
   24    -11.01022    2.00000
   25    -10.83904    2.00000
   26    -10.54387    2.00000
   27    -10.16956    2.00000
   28     -9.83382    2.00000
   29     -9.67391    2.00000
   30     -9.38178    2.00000
   31     -9.28155    2.00000
   32     -8.92636    2.00000
   33     -8.65118    2.00000
   34     -8.41876    2.00000
   35     -8.19832    2.00000
   36     -7.69441    2.00000
   37     -7.21326    2.00000
   38     -7.07537    2.00000
   39     -6.89158    2.00000
   40     -6.48632    2.00000
   41     -6.28758    2.00000
   42     -5.92706    2.00000
   43     -5.78293    2.00000
   44     -5.63431    1.99999
   45     -5.02299    1.99554
   46     -4.75409    1.93631
   47     -4.48436    1.34401
   48     -4.35491    0.71915
   49     -3.80568    0.00461
   50     -3.55730    0.00039
   51     -3.02145    0.00000
   52     -2.94110    0.00000
   53     -2.62777    0.00000
   54     -2.26354    0.00000
   55     -1.31660    0.00000
   56     -1.21379    0.00000
   57     -0.68670    0.00000
   58     -0.30043    0.00000
   59     -0.16645    0.00000
   60      0.30238    0.00000
   61      1.65365    0.00000
   62      2.14645    0.00000
   63      2.92676    0.00000
   64      3.10318    0.00000
   65      3.46279    0.00000
   66      3.87776    0.00000
   67      4.27751    0.00000
   68      4.36868    0.00000
   69      4.71041    0.00000
   70      5.17768    0.00000
   71      5.53304    0.00000
   72      6.24647    0.00000
   73      6.60431    0.00000
   74      6.65703    0.00000
   75      6.83826    0.00000
   76      7.43064    0.00000
   77      7.62119    0.00000
   78      8.00735    0.00000
   79      8.29340    0.00000
   80      8.58654    0.00000
   81      8.68630    0.00000
   82      8.86421    0.00000
   83      8.93731    0.00000
   84      9.19047    0.00000
   85      9.20384    0.00000
   86      9.39380    0.00000
   87      9.43874    0.00000
   88      9.52532    0.00000
   89      9.69137    0.00000
   90      9.75597    0.00000
   91      9.86427    0.00000
   92     10.02067    0.00000
   93     10.10784    0.00000
   94     10.23301    0.00000
   95     10.30941    0.00000
   96     10.34744    0.00000
   97     10.52692    0.00000


Forces in eV/Ang:
  0 C     0.01926    0.00309    0.00868
  1 C    -0.00143   -0.02697    0.01347
  2 C     0.01417    0.02370    0.00422
  3 C    -0.03797    0.00017    0.05620
  4 C    -0.00636    0.02089   -0.01361
  5 C    -0.01141    0.00950   -0.08397
  6 C     0.01695    0.02241   -0.02212
  7 C     0.01549    0.01397   -0.00880
  8 C     0.01039    0.00809    0.00531
  9 C     0.01558   -0.05220    0.04602
 10 C    -0.07702    0.02754   -0.02072
 11 C     0.05355   -0.02297   -0.00757
 12 C     0.03003    0.02855   -0.03793
 13 C    -0.00765   -0.00701    0.02742
 14 C    -0.00445   -0.01598    0.03109
 15 C    -0.03139   -0.00069    0.08319
 16 C    -0.00669   -0.02876   -0.03908
 17 C    -0.00704    0.01928    0.01590
 18 C    -0.01676   -0.01426   -0.03888
 19 C     0.05027   -0.05455    0.05591
 20 C     0.03145    0.00206   -0.04755
 21 C     0.00835    0.05231   -0.00444
 22 C     0.00058   -0.03302   -0.02025
 23 C    -0.00517    0.03979    0.00667

