
  ___ ___ ___ _ _ _  
 |   |   |_  | | | | 
 | | | | | . | | | | 
 |__ |  _|___|_____|  1.3.0b1
 |___|_|             

User:   esb@s65n32.grendel.cscaa.dk
Date:   Thu Nov  9 09:42:26 2017
Arch:   x86_64
Pid:    21863
Python: 2.7.13
gpaw:   /home/esb/DFT/gpaw_git/gpaw
_gpaw:  /home/esb/DFT/gpaw_git/build/bin.linux-x86_64-2.7/gpaw-python
ase:    /home/esb/DFT/ase_git/ase (version 3.15.0b1)
numpy:  /comm/swstack/core/python/2.7.13/lib/python2.7/site-packages/numpy (version 1.13.3)
scipy:  /comm/swstack/core/python/2.7.13/lib/python2.7/site-packages/scipy (version 0.19.1)
units:  Angstrom and eV
cores:  16
Extra parameters: {'blacs': True}

Input parameters:
  basis: dzp
  gpts: [80 80 48]
  kpts: [1 1 1]
  maxiter: 99
  mixer: {backend: pulay,
          beta: 0.05,
          method: separate,
          nmaxold: 5,
          weight: 75}
  mode: lcao
  nbands: -50
  occupations: {name: fermi-dirac,
                width: 0.1}
  poissonsolver: {eps: 1e-07,
                  name: fd,
                  nn: 3,
                  relax: GS}
  xc: PBE

System changes: positions, numbers, cell, pbc, initial_charges, initial_magmoms 

Initialize ...

C-setup:
  name: Carbon
  id: 4aa54d4b901d75f77cc0ea3eec22967b
  Z: 6
  valence: 4
  core: 2
  charge: 0.0
  file: /home/esb/DFT/gpaw-setups-0.8.7929/C.PBE.gz
  cutoffs: 0.64(comp), 1.14(filt), 1.14(core), lmax=2
  valence states:
                energy  radius
    2s(2.00)   -13.751   0.635
    2p(2.00)    -5.284   0.635
    *s          13.461   0.635
    *p          21.927   0.635
    *d           0.000   0.635

  LCAO basis set for C:
    Name: dzp
    File: /home/esb/DFT/gpaw-setups-0.8.7929/C.dzp.basis.gz
    Number of radial functions: 5
    Number of spherical harmonics: 13
      l=0, rc=5.5469 Bohr: 2s-sz confined orbital
      l=1, rc=6.6719 Bohr: 2p-sz confined orbital
      l=0, rc=3.0312 Bohr: 2s-dz split-valence wave
      l=1, rc=3.7500 Bohr: 2p-dz split-valence wave
      l=2, rc=6.6719 Bohr: d-type Gaussian polarization

Reference energy: -24663.074771

Spin-paired calculation

Occupation numbers:
  Fermi-Dirac: width=0.1000 eV

Convergence criteria:
  Maximum total energy change: 0.0005 eV / electron
  Maximum integral of absolute density change: 0.0001 electrons
  Maximum integral of absolute eigenstate change: 4e-08 eV^2
  Maximum number of iterations: 99

Symmetries present (total): 1

  ( 1  0  0)
  ( 0  1  0)
  ( 0  0  1)

1 k-point (Gamma)
1 k-point in the irreducible part of the Brillouin zone
       k-points in crystal coordinates                weights
   0:     0.00000000    0.00000000    0.00000000          1/1

Wave functions: LCAO
  Diagonalizer: Serial LAPACK
  Atomic Correction: dense with blas
  Datatype: float
  Eigensolver: None 

LCAO using direct dense diagonalizer 

Densities:
  Coarse grid: 80*80*48 grid
  Fine grid: 160*160*96 grid
  Total Charge: 0.000000 

Density mixing:
  Method: separate
  Backend: pulay
  Linear mixing parameter: 0.05
  Mixing with 5 old densities
  Damping of long wave oscillations: 75 

Hamiltonian:
  XC and Coulomb potentials evaluated on a 160*160*96 grid
  Using the PBE Exchange-Correlation functional
  Interpolation: tri-quintic (5. degree polynomial)
  Poisson solver: Gauss-Seidel solver with 6 multi-grid levels
    Coarsest grid: 5 x 5 x 3 points
    Stencil: 6*3+1=19 point O(h^6) finite-difference Laplacian
    Max iterations: 1000
    Tolerance: 1.000000e-07 

Memory estimate:
  Process memory now: 77.57 MiB
  Calculator: 15.59 MiB
    Density: 6.13 MiB
      Arrays: 3.81 MiB
      Localized functions: 0.86 MiB
      Mixer: 1.46 MiB
    Hamiltonian: 5.40 MiB
      Arrays: 2.49 MiB
      XC: 0.00 MiB
      Poisson: 2.85 MiB
      vbar: 0.07 MiB
    Wavefunctions: 4.05 MiB
      C [qnM]: 0.23 MiB
      S, T [2 x qmm]: 1.49 MiB
      P [aqMi]: 0.01 MiB
      TCI: 0.00 MiB
      BasisFunctions: 2.33 MiB
      Eigensolver: 0.00 MiB

Total number of cores used: 16
Domain decomposition: 2 x 4 x 2

Number of atoms: 24
Number of atomic orbitals: 312
Number of bands in calculation: 98
Bands to converge: occupied states only
Number of valence electrons: 96

... initialized

Initializing position-dependent things.

Density initialized from atomic densities
           .--------------------------------------.  
          /|                                      |  
         / |                                      |  
        /  |                                      |  
       /   |                                      |  
      /    |                                      |  
     /     |                                      |  
    /      |                                      |  
   /       |                C C                   |  
  /        |             C  C  CC                 |  
 *         |       CC  CCC     C   C              |  
 |         |      C        C   C  C               |  
 |         .------C--CC-C--C----------------------.  
 |        /      C                               /   
 |       /         C                            /    
 |      /                                      /     
 |     /                                      /      
 |    /                                      /       
 |   /                                      /        
 |  /                                      /         
 | /                                      /          
 |/                                      /           
 *--------------------------------------*            

Positions:
   0 C      9.250780    6.255832    5.372242
   1 C      4.878322    7.627918    5.224645
   2 C     11.877009    8.195047    5.764711
   3 C      9.041725   11.778453    5.387672
   4 C     10.672979    6.227493    5.601601
   5 C      7.673991    4.434210    5.674929
   6 C      6.301740   10.752036    4.783200
   7 C      6.310243    7.499682    4.824957
   8 C      8.825929    7.663093    5.295121
   9 C      8.618784   10.364209    5.406035
  10 C      7.508545    7.909508    5.719445
  11 C      5.287113    6.447587    4.609432
  12 C      7.935361   12.511924    5.010073
  13 C      9.938603    9.843161    5.548405
  14 C     10.070118    8.461115    5.499478
  15 C     12.080157    6.457487    5.861338
  16 C      9.807048   11.717466    4.533752
  17 C      7.416248    9.756505    5.013305
  18 C      6.746221   12.087455    4.794291
  19 C      5.155535    5.064773    4.557319
  20 C      5.012474   10.191093    4.626670
  21 C      7.806966    5.618769    5.682477
  22 C      4.957312    8.781183    5.170218
  23 C      6.144907    5.101390    4.089637

Unit cell:
           periodic     x           y           z      points  spacing
  1. axis:    yes   16.000000    0.000000    0.000000    80     0.2000
  2. axis:    yes    0.000000   16.000000    0.000000    80     0.2000
  3. axis:    yes    0.000000    0.000000   10.000000    48     0.2083

Effective grid spacing dv^(1/3) = 0.2027

                     log10-error:    total        iterations:
           time      wfs    density  energy       fermi  poisson
iter:   1  09:42:28          +inf  -161.533549    2      6      
iter:   2  09:42:28         -0.86  -159.824167    3      3      
iter:   3  09:42:29         -0.90  -157.360809    5      3      
iter:   4  09:42:29         -1.06  -156.532612    4      3      
iter:   5  09:42:30         -1.11  -157.094731    32     4      
iter:   6  09:42:30         -1.24  -156.517524    3      2      
iter:   7  09:42:31         -1.28  -155.548318    3      3      
iter:   8  09:42:31         -1.48  -155.511610    4      3      
iter:   9  09:42:32         -1.62  -155.394313    3      3      
iter:  10  09:42:32         -1.85  -155.381897    3      2      
iter:  11  09:42:33         -1.96  -155.363163    3      2      
iter:  12  09:42:33         -2.07  -155.358763    3      2      
iter:  13  09:42:34         -2.30  -155.352515    3      2      
iter:  14  09:42:34         -2.47  -155.350216    3      2      
iter:  15  09:42:35         -2.67  -155.346525    2      2      
iter:  16  09:42:35         -2.75  -155.345087    2      2      
iter:  17  09:42:36         -3.00  -155.335699    2      1      
iter:  18  09:42:36         -3.23  -155.343048    2      1      
iter:  19  09:42:37         -3.29  -155.351326    2      1      
iter:  20  09:42:37         -3.47  -155.342772    2      1      
iter:  21  09:42:38         -3.73  -155.347494    2      1      
iter:  22  09:42:38         -3.85  -155.348038    2      1      
iter:  23  09:42:39         -3.91  -155.344842    2      1      
iter:  24  09:42:39         -4.06  -155.345938    2      1      

Converged after 24 iterations.

Dipole moment: (-0.702042, 0.669489, 0.096344) |e|*Ang

Energy contributions relative to reference atoms: (reference = -24663.074771)

Kinetic:       +164.351457
Potential:     -151.887835
External:        +0.000000
XC:            -170.578997
Entropy (-ST):   -0.261858
Local:           +2.900365
--------------------------
Free energy:   -155.476867
Extrapolated:  -155.345938

Fermi level: -4.98320

 Band  Eigenvalues  Occupancy
    0    -25.43671    2.00000
    1    -24.19191    2.00000
    2    -23.28092    2.00000
    3    -22.08370    2.00000
    4    -21.31219    2.00000
    5    -20.30295    2.00000
    6    -19.62148    2.00000
    7    -19.42805    2.00000
    8    -19.07904    2.00000
    9    -18.51137    2.00000
   10    -17.93980    2.00000
   11    -17.42449    2.00000
   12    -16.20584    2.00000
   13    -15.71695    2.00000
   14    -15.32806    2.00000
   15    -14.23039    2.00000
   16    -13.99041    2.00000
   17    -13.61260    2.00000
   18    -13.25502    2.00000
   19    -12.66719    2.00000
   20    -12.38772    2.00000
   21    -12.14166    2.00000
   22    -11.91236    2.00000
   23    -11.42647    2.00000
   24    -11.12469    2.00000
   25    -10.99935    2.00000
   26    -10.47766    2.00000
   27    -10.02393    2.00000
   28     -9.86323    2.00000
   29     -9.41929    2.00000
   30     -8.88137    2.00000
   31     -8.68188    2.00000
   32     -8.55105    2.00000
   33     -8.14451    2.00000
   34     -8.04199    2.00000
   35     -7.82050    2.00000
   36     -7.40283    2.00000
   37     -7.01779    2.00000
   38     -6.93057    2.00000
   39     -6.78841    2.00000
   40     -6.55369    2.00000
   41     -6.50440    2.00000
   42     -6.30620    2.00000
   43     -6.07113    1.99996
   44     -5.68366    1.99819
   45     -5.51294    1.99004
   46     -5.34352    1.94697
   47     -5.13388    1.63717
   48     -4.79639    0.26752
   49     -4.73866    0.15955
   50     -4.17283    0.00060
   51     -3.63949    0.00000
   52     -3.32149    0.00000
   53     -2.95157    0.00000
   54     -2.59010    0.00000
   55     -2.37379    0.00000
   56     -2.32117    0.00000
   57     -1.82259    0.00000
   58     -1.32908    0.00000
   59     -1.14945    0.00000
   60     -0.88159    0.00000
   61     -0.62212    0.00000
   62     -0.10096    0.00000
   63      0.27483    0.00000
   64      0.38448    0.00000
   65      0.71151    0.00000
   66      1.21084    0.00000
   67      1.68842    0.00000
   68      1.87006    0.00000
   69      2.26162    0.00000
   70      2.52991    0.00000
   71      3.14141    0.00000
   72      3.54390    0.00000
   73      3.73711    0.00000
   74      4.17724    0.00000
   75      5.04495    0.00000
   76      5.34661    0.00000
   77      5.99098    0.00000
   78      6.38816    0.00000
   79      6.91887    0.00000
   80      7.22783    0.00000
   81      7.50830    0.00000
   82      7.69530    0.00000
   83      7.91174    0.00000
   84      8.15337    0.00000
   85      8.23806    0.00000
   86      8.37020    0.00000
   87      8.55737    0.00000
   88      8.68216    0.00000
   89      8.74004    0.00000
   90      8.85382    0.00000
   91      9.18673    0.00000
   92      9.35889    0.00000
   93      9.41365    0.00000
   94      9.44425    0.00000
   95      9.60299    0.00000
   96      9.72272    0.00000
   97      9.80900    0.00000


Forces in eV/Ang:
  0 C    -2.24139    1.19202    1.41954
  1 C    -4.13209  -13.33409    0.43873
  2 C    -3.82994   -3.77125   -0.79486
  3 C   -14.21428    2.64641   14.11418
  4 C     3.36345    0.02699    0.55354
  5 C    -2.81766  -10.60702   -0.61422
  6 C    -0.35435   -2.32572   -0.24904
  7 C     2.87315   -1.33800    1.98515
  8 C     4.19965   -1.71556    1.79066
  9 C     1.56355   -1.01501    0.22300
 10 C    -3.14961    3.72729   -5.32801
 11 C     0.82749    1.75106    1.30253
 12 C    -4.05894    1.96739   -0.15969
 13 C    -0.66362   -2.13384   -0.90521
 14 C     2.93987    2.44754   -0.00041
 15 C    -5.19647    1.48927   -0.94125
 16 C    16.12659   -2.72792  -14.04282
 17 C     0.33145    0.88675    2.47249
 18 C     1.18811    0.65642    0.03052
 19 C   -24.57114   -1.10888   10.92073
 20 C    -0.99670   -4.14126    2.89696
 21 C     6.53631    9.15014   -0.50903
 22 C     0.42442   20.36839   -2.96742
 23 C    25.82979   -2.07139  -11.52057

System changes: positions 

Initializing position-dependent things.

Density initialized from wave functions
           .--------------------------------------.  
          /|                                      |  
         / |                                      |  
        /  |                                      |  
       /   |                                      |  
      /    |                                      |  
     /     |                                      |  
    /      |                                      |  
   /       |                C C                   |  
  /        |             C  C  CC                 |  
 *         |       CC  CCC     C   C              |  
 |         |      C        C   C  C               |  
 |         .------C--CC-C--C----------------------.  
 |        /      C                               /   
 |       /         C                            /    
 |      /                                      /     
 |     /                                      /      
 |    /                                      /       
 |   /                                      /        
 |  /                                      /         
 | /                                      /          
 |/                                      /           
 *--------------------------------------*            

Positions:
   0 C      9.247618    6.257513    5.374244
   1 C      4.872494    7.609110    5.225264
   2 C     11.871606    8.189727    5.763590
   3 C      9.021675   11.782186    5.407580
   4 C     10.677723    6.227531    5.602382
   5 C      7.670017    4.419248    5.674062
   6 C      6.301240   10.748756    4.782849
   7 C      6.314296    7.497794    4.827757
   8 C      8.831852    7.660673    5.297647
   9 C      8.620989   10.362777    5.406349
  10 C      7.504103    7.914765    5.711930
  11 C      5.288280    6.450057    4.611270
  12 C      7.929636   12.514699    5.009848
  13 C      9.937667    9.840151    5.547128
  14 C     10.074265    8.464567    5.499477
  15 C     12.072827    6.459587    5.860010
  16 C      9.829795   11.713618    4.513944
  17 C      7.416715    9.757756    5.016793
  18 C      6.747897   12.088381    4.794334
  19 C      5.120877    5.063209    4.572723
  20 C      5.011068   10.185252    4.630756
  21 C      7.816185    5.631676    5.681759
  22 C      4.957910    8.809913    5.166033
  23 C      6.181341    5.098468    4.073386

Unit cell:
           periodic     x           y           z      points  spacing
  1. axis:    yes   16.000000    0.000000    0.000000    80     0.2000
  2. axis:    yes    0.000000   16.000000    0.000000    80     0.2000
  3. axis:    yes    0.000000    0.000000   10.000000    48     0.2083

Effective grid spacing dv^(1/3) = 0.2027

                     log10-error:    total        iterations:
           time      wfs    density  energy       fermi  poisson
iter:   1  09:42:41          +inf  -159.563839    3      5      
iter:   2  09:42:41         -1.69  -159.426332    3      2      
iter:   3  09:42:42         -1.97  -159.403844    3      2      
iter:   4  09:42:42         -2.08  -159.389351    3      2      
iter:   5  09:42:43         -2.20  -159.378331    3      2      
iter:   6  09:42:43         -2.35  -159.371501    3      2      
iter:   7  09:42:44         -2.65  -159.364625    2      2      
iter:   8  09:42:44         -2.84  -159.364764    2      2      
iter:   9  09:42:45         -2.94  -159.364645    2      2      
iter:  10  09:42:45         -3.08  -159.365697    2      1      
iter:  11  09:42:46         -3.23  -159.365023    2      1      
iter:  12  09:42:46         -3.30  -159.359698    2      1      
iter:  13  09:42:47         -3.56  -159.359998    2      1      
iter:  14  09:42:47         -3.83  -159.363451    2      1      
iter:  15  09:42:48         -3.90  -159.364319    2      1      
iter:  16  09:42:48         -4.04  -159.364092    2      1      

Converged after 16 iterations.

Dipole moment: (-0.693062, 0.644620, 0.088269) |e|*Ang

Energy contributions relative to reference atoms: (reference = -24663.074771)

Kinetic:       +139.198450
Potential:     -134.418530
External:        +0.000000
XC:            -166.808475
Entropy (-ST):   -0.238481
Local:           +2.783703
--------------------------
Free energy:   -159.483332
Extrapolated:  -159.364092

Fermi level: -4.95416

 Band  Eigenvalues  Occupancy
    0    -25.31456    2.00000
    1    -23.92854    2.00000
    2    -22.84697    2.00000
    3    -22.06876    2.00000
    4    -21.23987    2.00000
    5    -20.26492    2.00000
    6    -19.53598    2.00000
    7    -19.41342    2.00000
    8    -18.97383    2.00000
    9    -18.40607    2.00000
   10    -17.90539    2.00000
   11    -17.46082    2.00000
   12    -16.11840    2.00000
   13    -15.67646    2.00000
   14    -15.31108    2.00000
   15    -14.23028    2.00000
   16    -13.94858    2.00000
   17    -13.59213    2.00000
   18    -13.18040    2.00000
   19    -12.54007    2.00000
   20    -12.36967    2.00000
   21    -12.07781    2.00000
   22    -11.87337    2.00000
   23    -11.35479    2.00000
   24    -11.00666    2.00000
   25    -10.93883    2.00000
   26    -10.40561    2.00000
   27     -9.98375    2.00000
   28     -9.82386    2.00000
   29     -9.26701    2.00000
   30     -8.83297    2.00000
   31     -8.65834    2.00000
   32     -8.52363    2.00000
   33     -8.13061    2.00000
   34     -8.05144    2.00000
   35     -7.80157    2.00000
   36     -7.41580    2.00000
   37     -7.04678    2.00000
   38     -6.87949    2.00000
   39     -6.78305    2.00000
   40     -6.53522    2.00000
   41     -6.50432    2.00000
   42     -6.34261    2.00000
   43     -6.05238    1.99997
   44     -5.73010    1.99915
   45     -5.49303    1.99091
   46     -5.34941    1.96231
   47     -5.11368    1.66268
   48     -4.77272    0.28021
   49     -4.66420    0.10434
   50     -4.11281    0.00044
   51     -3.56695    0.00000
   52     -3.31753    0.00000
   53     -2.92647    0.00000
   54     -2.60228    0.00000
   55     -2.34542    0.00000
   56     -2.31750    0.00000
   57     -1.79497    0.00000
   58     -1.48044    0.00000
   59     -1.37570    0.00000
   60     -1.12317    0.00000
   61     -0.71546    0.00000
   62     -0.12070    0.00000
   63      0.28801    0.00000
   64      0.30194    0.00000
   65      0.70698    0.00000
   66      1.07573    0.00000
   67      1.36904    0.00000
   68      1.74314    0.00000
   69      2.11660    0.00000
   70      2.55075    0.00000
   71      3.17262    0.00000
   72      3.46220    0.00000
   73      3.74273    0.00000
   74      4.25843    0.00000
   75      5.01533    0.00000
   76      5.42890    0.00000
   77      6.09624    0.00000
   78      6.42833    0.00000
   79      6.96369    0.00000
   80      7.25180    0.00000
   81      7.54240    0.00000
   82      7.68843    0.00000
   83      7.88298    0.00000
   84      8.16206    0.00000
   85      8.25519    0.00000
   86      8.42538    0.00000
   87      8.55949    0.00000
   88      8.68861    0.00000
   89      8.81946    0.00000
   90      8.88575    0.00000
   91      9.16417    0.00000
   92      9.38768    0.00000
   93      9.40706    0.00000
   94      9.42642    0.00000
   95      9.61539    0.00000
   96      9.69212    0.00000
   97      9.80878    0.00000


Forces in eV/Ang:
  0 C    -1.99015    1.19167    1.44874
  1 C    -3.25916   -7.32121    0.26030
  2 C    -3.82667   -3.69021   -0.80394
  3 C    -8.88272    1.92682    8.57739
  4 C     3.05292   -0.00214    0.49659
  5 C    -2.47829   -7.41645   -0.60822
  6 C    -0.05619   -2.00208   -0.33567
  7 C     2.61490   -1.01810    2.20844
  8 C     3.98712   -1.48510    1.84311
  9 C     1.37095   -0.69832    0.30569
 10 C    -2.77006    3.73984   -5.39954
 11 C     0.78643    0.60154    0.93450
 12 C    -3.68603    2.12213   -0.12454
 13 C    -0.47248   -1.65813   -1.05399
 14 C     2.85770    2.15714   -0.02015
 15 C    -5.00819    1.46237   -0.90117
 16 C    11.03988   -2.43601   -8.32692
 17 C     0.26572    0.81371    2.46158
 18 C     0.54586    0.27498   -0.07560
 19 C   -13.14635   -0.83322    5.49719
 20 C    -0.99402   -4.17447    3.01965
 21 C     6.02701    5.83246   -0.50566
 22 C    -0.15326   14.69248   -2.81099
 23 C    14.31525   -2.02344   -6.02039

System changes: positions 

Initializing position-dependent things.

Density initialized from wave functions
           .--------------------------------------.  
          /|                                      |  
         / |                                      |  
        /  |                                      |  
       /   |                                      |  
      /    |                                      |  
     /     |                                      |  
    /      |                                      |  
   /       |                C C                   |  
  /        |             C   C CC                 |  
 *         |       CC  CCC     C   C              |  
 |         |      C        C   C  C               |  
 |         .------C--CC-C--C----------------------.  
 |        /      C                               /   
 |       /         C                            /    
 |      /                                      /     
 |     /                                      /      
 |    /                                      /       
 |   /                                      /        
 |  /                                      /         
 | /                                      /          
 |/                                      /           
 *--------------------------------------*            

Positions:
   0 C      9.239865    6.262911    5.380955
   1 C      4.862120    7.606201    5.225545
   2 C     11.854285    8.173415    5.759901
   3 C      9.008262   11.787294    5.418577
   4 C     10.689992    6.227375    5.604345
   5 C      7.660496    4.401703    5.671337
   6 C      6.302486   10.741313    4.780892
   7 C      6.324844    7.494792    4.838887
   8 C      8.848848    7.655104    5.306262
   9 C      8.626232   10.361207    5.408150
  10 C      7.493462    7.931773    5.687105
  11 C      5.291637    6.446997    4.613652
  12 C      7.914812   12.525093    5.009460
  13 C      9.936488    9.835032    5.541603
  14 C     10.086799    8.472880    5.499287
  15 C     12.051083    6.466078    5.856129
  16 C      9.854214   11.704050    4.504983
  17 C      7.417588    9.761075    5.027891
  18 C      6.747138   12.087707    4.793457
  19 C      5.118812    5.060821    4.570334
  20 C      5.006577   10.166171    4.645055
  21 C      7.840930    5.641404    5.679485
  22 C      4.954308    8.847916    5.154084
  23 C      6.188249    5.089542    4.073791

Unit cell:
           periodic     x           y           z      points  spacing
  1. axis:    yes   16.000000    0.000000    0.000000    80     0.2000
  2. axis:    yes    0.000000   16.000000    0.000000    80     0.2000
  3. axis:    yes    0.000000    0.000000   10.000000    48     0.2083

Effective grid spacing dv^(1/3) = 0.2027

                     log10-error:    total        iterations:
           time      wfs    density  energy       fermi  poisson
iter:   1  09:42:50          +inf  -162.114776    4      5      
iter:   2  09:42:50         -1.60  -161.918556    3      2      
iter:   3  09:42:51         -1.98  -161.888024    2      2      
iter:   4  09:42:51         -2.07  -161.856918    3      2      
iter:   5  09:42:52         -2.26  -161.855901    3      2      
iter:   6  09:42:52         -2.40  -161.852992    2      2      
iter:   7  09:42:53         -2.52  -161.848660    2      2      
iter:   8  09:42:53         -2.69  -161.848398    2      2      
iter:   9  09:42:54         -2.98  -161.848382    2      1      
iter:  10  09:42:54         -3.08  -161.848135    2      2      
iter:  11  09:42:55         -3.28  -161.848320    2      1      
iter:  12  09:42:55         -3.39  -161.848099    2      1      
iter:  13  09:42:56         -3.58  -161.847994    2      1      
iter:  14  09:42:56         -3.73  -161.848306    2      1      
iter:  15  09:42:57         -3.87  -161.848257    2      1      
iter:  16  09:42:57         -4.06  -161.848173    2      1      

Converged after 16 iterations.

Dipole moment: (-0.692308, 0.598232, 0.078196) |e|*Ang

Energy contributions relative to reference atoms: (reference = -24663.074771)

Kinetic:       +129.337881
Potential:     -127.823266
External:        +0.000000
XC:            -166.053109
Entropy (-ST):   -0.218990
Local:           +2.799816
--------------------------
Free energy:   -161.957667
Extrapolated:  -161.848173

Fermi level: -4.91096

 Band  Eigenvalues  Occupancy
    0    -25.06325    2.00000
    1    -23.68221    2.00000
    2    -22.71452    2.00000
    3    -22.05860    2.00000
    4    -21.18801    2.00000
    5    -20.24546    2.00000
    6    -19.55160    2.00000
    7    -19.42880    2.00000
    8    -18.84944    2.00000
    9    -18.35658    2.00000
   10    -17.88316    2.00000
   11    -17.55213    2.00000
   12    -16.03760    2.00000
   13    -15.70444    2.00000
   14    -15.28809    2.00000
   15    -14.28241    2.00000
   16    -13.93096    2.00000
   17    -13.55726    2.00000
   18    -13.21561    2.00000
   19    -12.55048    2.00000
   20    -12.37182    2.00000
   21    -11.98229    2.00000
   22    -11.88998    2.00000
   23    -11.30545    2.00000
   24    -10.93662    2.00000
   25    -10.89060    2.00000
   26    -10.34995    2.00000
   27     -9.98244    2.00000
   28     -9.82021    2.00000
   29     -9.25621    2.00000
   30     -8.81545    2.00000
   31     -8.69191    2.00000
   32     -8.51227    2.00000
   33     -8.15239    2.00000
   34     -8.06366    2.00000
   35     -7.80810    2.00000
   36     -7.42352    2.00000
   37     -7.06418    2.00000
   38     -6.86182    2.00000
   39     -6.80512    2.00000
   40     -6.56875    2.00000
   41     -6.51803    2.00000
   42     -6.41359    2.00000
   43     -6.06463    1.99998
   44     -5.75338    1.99956
   45     -5.49368    1.99412
   46     -5.35346    1.97633
   47     -5.07211    1.66722
   48     -4.73986    0.30605
   49     -4.55675    0.05627
   50     -4.07407    0.00046
   51     -3.45284    0.00000
   52     -3.27429    0.00000
   53     -2.85722    0.00000
   54     -2.58693    0.00000
   55     -2.29798    0.00000
   56     -2.25434    0.00000
   57     -1.71073    0.00000
   58     -1.53280    0.00000
   59     -1.43562    0.00000
   60     -1.20662    0.00000
   61     -0.72588    0.00000
   62     -0.06941    0.00000
   63      0.32736    0.00000
   64      0.45450    0.00000
   65      0.80695    0.00000
   66      1.09111    0.00000
   67      1.36060    0.00000
   68      1.82814    0.00000
   69      1.99380    0.00000
   70      2.61026    0.00000
   71      3.31564    0.00000
   72      3.52189    0.00000
   73      3.90368    0.00000
   74      4.52971    0.00000
   75      5.05206    0.00000
   76      5.64664    0.00000
   77      6.34388    0.00000
   78      6.54566    0.00000
   79      7.00356    0.00000
   80      7.27752    0.00000
   81      7.55703    0.00000
   82      7.67160    0.00000
   83      7.88756    0.00000
   84      8.21369    0.00000
   85      8.32454    0.00000
   86      8.52862    0.00000
   87      8.62556    0.00000
   88      8.73100    0.00000
   89      8.79513    0.00000
   90      8.91811    0.00000
   91      9.20573    0.00000
   92      9.37577    0.00000
   93      9.43987    0.00000
   94      9.46177    0.00000
   95      9.66047    0.00000
   96      9.70189    0.00000
   97      9.78210    0.00000


Forces in eV/Ang:
  0 C    -1.37245    1.06196    1.49919
  1 C    -2.05653   -4.02668   -0.21870
  2 C    -3.80250   -3.54248   -0.78845
  3 C    -6.44665    1.70144    5.49570
  4 C     2.04409   -0.13557    0.32123
  5 C    -2.26683   -4.51617   -0.66804
  6 C     0.09860   -1.65771   -0.36266
  7 C     1.77443   -1.27983    2.34694
  8 C     3.22397   -0.88691    1.91693
  9 C     1.06625   -0.30036    0.36535
 10 C    -1.79386    3.89668   -5.42261
 11 C     0.71133    0.94638    1.08390
 12 C    -2.63731    2.00283    0.11054
 13 C    -0.23700   -0.83590   -1.20983
 14 C     2.74008    1.46721   -0.04403
 15 C    -4.35002    1.53903   -0.78826
 16 C     8.39405   -2.37978   -5.18312
 17 C     0.10334    0.64299    2.36980
 18 C    -0.25417   -0.22557   -0.20936
 19 C   -12.29587   -0.75524    4.95060
 20 C    -0.64813   -3.49138    2.86409
 21 C     5.44759    2.69815   -0.54264
 22 C    -0.85667   10.42375   -2.48668
 23 C    13.49012   -2.18364   -5.41862

System changes: positions 

Initializing position-dependent things.

Density initialized from wave functions
           .--------------------------------------.  
          /|                                      |  
         / |                                      |  
        /  |                                      |  
       /   |                                      |  
      /    |                                      |  
     /     |                                      |  
    /      |                                      |  
   /       |                C C                   |  
  /        |             C   C CC                 |  
 *         |       CC  CCC     C   C              |  
 |         |      C  C     C   C  C               |  
 |         .------C---C-C--C----------------------.  
 |        /      C                               /   
 |       /         C                            /    
 |      /                                      /     
 |     /                                      /      
 |    /                                      /       
 |   /                                      /        
 |  /                                      /         
 | /                                      /          
 |/                                      /           
 *--------------------------------------*            

Positions:
   0 C      9.234423    6.268807    5.389942
   1 C      4.856896    7.618094    5.222364
   2 C     11.832193    8.153478    5.755299
   3 C      9.000953   11.793358    5.417938
   4 C     10.698194    6.226149    5.605558
   5 C      7.649338    4.396736    5.667337
   6 C      6.304795   10.733931    4.778315
   7 C      6.332095    7.488231    4.853915
   8 C      8.864934    7.652351    5.317844
   9 C      8.630865   10.361823    5.410798
  10 C      7.486967    7.954894    5.655117
  11 C      5.295422    6.447944    4.618594
  12 C      7.903533   12.537217    5.010796
  13 C      9.936525    9.834221    5.533510
  14 C     10.102122    8.478529    5.498885
  15 C     12.028086    6.475095    5.851975
  16 C      9.873539   11.691664    4.508416
  17 C      7.417520    9.764099    5.041445
  18 C      6.740872   12.083494    4.791443
  19 C      5.102175    5.057877    4.572744
  20 C      5.003590   10.147204    4.661968
  21 C      7.869008    5.634659    5.676255
  22 C      4.945049    8.872683    5.141048
  23 C      6.211487    5.076678    4.069133

Unit cell:
           periodic     x           y           z      points  spacing
  1. axis:    yes   16.000000    0.000000    0.000000    80     0.2000
  2. axis:    yes    0.000000   16.000000    0.000000    80     0.2000
  3. axis:    yes    0.000000    0.000000   10.000000    48     0.2083

Effective grid spacing dv^(1/3) = 0.2027

                     log10-error:    total        iterations:
           time      wfs    density  energy       fermi  poisson
iter:   1  09:42:59          +inf  -164.330061    4      5      
iter:   2  09:42:59         -1.57  -164.065571    3      2      
iter:   3  09:43:00         -1.95  -164.027676    2      2      
iter:   4  09:43:00         -2.05  -163.982213    3      2      
iter:   5  09:43:01         -2.30  -163.980081    3      2      
iter:   6  09:43:01         -2.46  -163.976653    2      2      
iter:   7  09:43:02         -2.58  -163.972960    2      2      
iter:   8  09:43:02         -2.72  -163.973769    2      2      
iter:   9  09:43:03         -2.99  -163.971987    2      1      
iter:  10  09:43:03         -3.12  -163.972543    2      1      
iter:  11  09:43:04         -3.32  -163.974187    2      1      
iter:  12  09:43:04         -3.41  -163.973368    2      1      
iter:  13  09:43:05         -3.57  -163.973836    2      1      
iter:  14  09:43:05         -3.75  -163.974322    2      1      
iter:  15  09:43:06         -3.84  -163.974429    1      1      
iter:  16  09:43:06         -3.95  -163.974127    2      1      
iter:  17  09:43:07         -4.22  -163.974110    2      1      

Converged after 17 iterations.

Dipole moment: (-0.687472, 0.593620, 0.078666) |e|*Ang

Energy contributions relative to reference atoms: (reference = -24663.074771)

Kinetic:       +123.761971
Potential:     -124.334886
External:        +0.000000
XC:            -166.109255
Entropy (-ST):   -0.205096
Local:           +2.810608
--------------------------
Free energy:   -164.076658
Extrapolated:  -163.974110

Fermi level: -4.86746

 Band  Eigenvalues  Occupancy
    0    -24.86696    2.00000
    1    -23.56544    2.00000
    2    -22.42111    2.00000
    3    -22.06346    2.00000
    4    -21.18613    2.00000
    5    -20.24383    2.00000
    6    -19.66543    2.00000
    7    -19.47710    2.00000
    8    -18.79933    2.00000
    9    -18.41519    2.00000
   10    -17.89677    2.00000
   11    -17.60557    2.00000
   12    -16.02304    2.00000
   13    -15.79054    2.00000
   14    -15.27934    2.00000
   15    -14.35998    2.00000
   16    -13.92053    2.00000
   17    -13.55681    2.00000
   18    -13.23712    2.00000
   19    -12.55826    2.00000
   20    -12.36934    2.00000
   21    -11.93890    2.00000
   22    -11.83759    2.00000
   23    -11.27128    2.00000
   24    -10.95829    2.00000
   25    -10.88274    2.00000
   26    -10.34277    2.00000
   27    -10.02608    2.00000
   28     -9.82915    2.00000
   29     -9.22970    2.00000
   30     -8.88735    2.00000
   31     -8.77103    2.00000
   32     -8.47677    2.00000
   33     -8.21743    2.00000
   34     -8.08231    2.00000
   35     -7.84854    2.00000
   36     -7.41814    2.00000
   37     -7.05920    2.00000
   38     -6.86084    2.00000
   39     -6.84105    2.00000
   40     -6.61277    2.00000
   41     -6.54038    2.00000
   42     -6.45760    2.00000
   43     -6.05196    1.99999
   44     -5.76759    1.99975
   45     -5.53671    1.99752
   46     -5.34480    1.98324
   47     -5.03087    1.67348
   48     -4.69839    0.31138
   49     -4.46218    0.03415
   50     -4.03540    0.00049
   51     -3.39441    0.00000
   52     -3.19740    0.00000
   53     -2.78457    0.00000
   54     -2.55186    0.00000
   55     -2.23746    0.00000
   56     -2.16368    0.00000
   57     -1.69294    0.00000
   58     -1.57365    0.00000
   59     -1.43273    0.00000
   60     -1.18510    0.00000
   61     -0.68901    0.00000
   62     -0.00029    0.00000
   63      0.39260    0.00000
   64      0.59839    0.00000
   65      0.93116    0.00000
   66      1.01723    0.00000
   67      1.42537    0.00000
   68      1.93783    0.00000
   69      2.02853    0.00000
   70      2.64771    0.00000
   71      3.43886    0.00000
   72      3.69886    0.00000
   73      4.12999    0.00000
   74      4.73300    0.00000
   75      5.10506    0.00000
   76      5.79251    0.00000
   77      6.48131    0.00000
   78      6.71233    0.00000
   79      7.00479    0.00000
   80      7.31742    0.00000
   81      7.54616    0.00000
   82      7.70020    0.00000
   83      7.89752    0.00000
   84      8.19988    0.00000
   85      8.35793    0.00000
   86      8.61818    0.00000
   87      8.66561    0.00000
   88      8.75949    0.00000
   89      8.84531    0.00000
   90      8.95254    0.00000
   91      9.24839    0.00000
   92      9.38541    0.00000
   93      9.44983    0.00000
   94      9.51208    0.00000
   95      9.68790    0.00000
   96      9.71043    0.00000
   97      9.76752    0.00000


Forces in eV/Ang:
  0 C    -0.91137    0.91295    1.54348
  1 C    -1.27397   -3.49544   -0.51037
  2 C    -3.80176   -3.34618   -0.79922
  3 C    -5.78013    1.66100    4.39717
  4 C     1.03030   -0.30569    0.15695
  5 C    -2.43157   -3.94628   -0.76956
  6 C     0.01282   -1.54526   -0.29158
  7 C     1.32471   -1.48375    2.31917
  8 C     2.60997   -0.38697    1.92159
  9 C     0.80661   -0.08019    0.37726
 10 C    -1.07829    4.09569   -5.31334
 11 C     0.64045    0.90152    1.20061
 12 C    -2.42616    1.66820    0.14631
 13 C    -0.07817   -0.23535   -1.29210
 14 C     2.66673    0.98775   -0.02078
 15 C    -3.53416    1.57898   -0.64362
 16 C     7.56865   -2.51358   -4.06899
 17 C     0.02622    0.36244    2.29228
 18 C    -0.16909   -0.23227   -0.16828
 19 C    -8.25878   -0.39608    3.04664
 20 C    -0.24150   -2.22534    2.34996
 21 C     5.30919    2.04608   -0.59858
 22 C    -1.31063    8.38475   -1.95575
 23 C     9.45663   -2.30202   -3.31093

System changes: positions 

Initializing position-dependent things.

Density initialized from wave functions
           .--------------------------------------.  
          /|                                      |  
         / |                                      |  
        /  |                                      |  
       /   |                                      |  
      /    |                                      |  
     /     |                                      |  
    /      |                                      |  
   /       |                C C                   |  
  /        |             C   C CC                 |  
 *         |       CC  CCC     C   C              |  
 |         |      C  C     C   C  C               |  
 |         .------C---C-C--C----------------------.  
 |        /      C                               /   
 |       /         C                            /    
 |      /                                      /     
 |     /                                      /      
 |    /                                      /       
 |   /                                      /        
 |  /                                      /         
 | /                                      /          
 |/                                      /           
 *--------------------------------------*            

Positions:
   0 C      9.232169    6.273550    5.399315
   1 C      4.856265    7.622778    5.217156
   2 C     11.809893    8.134802    5.750579
   3 C      8.988775   11.800519    5.419016
   4 C     10.698847    6.223585    5.605561
   5 C      7.636055    4.390034    5.662461
   6 C      6.305839   10.726752    4.776465
   7 C      6.336317    7.479375    4.868416
   8 C      8.876620    7.653173    5.329462
   9 C      8.633807   10.363610    5.413406
  10 C      7.485453    7.979822    5.623871
  11 C      5.298747    6.450614    4.625205
  12 C      7.893033   12.546424    5.012338
  13 C      9.937479    9.837340    5.524965
  14 C     10.117153    8.480926    5.498711
  15 C     12.011150    6.484562    5.848883
  16 C      9.896112   11.677509    4.509944
  17 C      7.416963    9.765001    5.054520
  18 C      6.736569   12.079974    4.789967
  19 C      5.097284    5.057341    4.569653
  20 C      5.003869   10.138455    4.674594
  21 C      7.897243    5.629135    5.672534
  22 C      4.933145    8.892091    5.131927
  23 C      6.223231    5.062655    4.071484

Unit cell:
           periodic     x           y           z      points  spacing
  1. axis:    yes   16.000000    0.000000    0.000000    80     0.2000
  2. axis:    yes    0.000000   16.000000    0.000000    80     0.2000
  3. axis:    yes    0.000000    0.000000   10.000000    48     0.2083

Effective grid spacing dv^(1/3) = 0.2027

                     log10-error:    total        iterations:
           time      wfs    density  energy       fermi  poisson
iter:   1  09:43:08          +inf  -165.718367    4      5      
iter:   2  09:43:09         -1.72  -165.626833    3      2      
iter:   3  09:43:09         -2.08  -165.604865    2      2      
iter:   4  09:43:10         -2.17  -165.577626    3      2      
iter:   5  09:43:10         -2.39  -165.580044    2      2      
iter:   6  09:43:11         -2.57  -165.574761    2      1      
iter:   7  09:43:11         -2.66  -165.571047    2      2      
iter:   8  09:43:12         -2.79  -165.577804    2      2      
iter:   9  09:43:12         -2.94  -165.570823    2      1      
iter:  10  09:43:13         -3.23  -165.574450    2      1      
iter:  11  09:43:13         -3.40  -165.574415    2      1      
iter:  12  09:43:14         -3.44  -165.572800    2      1      
iter:  13  09:43:14         -3.60  -165.576115    2      1      
iter:  14  09:43:15         -3.54  -165.574025    2      1      
iter:  15  09:43:15         -3.80  -165.573367    2      1      
iter:  16  09:43:16         -3.94  -165.573995    2      1      
iter:  17  09:43:16         -4.02  -165.572856    2      1      

Converged after 17 iterations.

Dipole moment: (-0.693727, 0.591290, 0.078770) |e|*Ang

Energy contributions relative to reference atoms: (reference = -24663.074771)

Kinetic:       +120.874389
Potential:     -122.651805
External:        +0.000000
XC:            -166.520725
Entropy (-ST):   -0.198519
Local:           +2.824545
--------------------------
Free energy:   -165.672115
Extrapolated:  -165.572856

Fermi level: -4.81255

 Band  Eigenvalues  Occupancy
    0    -24.77027    2.00000
    1    -23.44534    2.00000
    2    -22.24136    2.00000
    3    -22.07380    2.00000
    4    -21.17870    2.00000
    5    -20.23728    2.00000
    6    -19.76497    2.00000
    7    -19.50689    2.00000
    8    -18.74603    2.00000
    9    -18.46728    2.00000
   10    -17.91584    2.00000
   11    -17.59761    2.00000
   12    -16.01495    2.00000
   13    -15.82263    2.00000
   14    -15.28503    2.00000
   15    -14.43823    2.00000
   16    -13.92563    2.00000
   17    -13.56530    2.00000
   18    -13.24446    2.00000
   19    -12.59946    2.00000
   20    -12.38002    2.00000
   21    -11.91767    2.00000
   22    -11.80334    2.00000
   23    -11.25690    2.00000
   24    -10.99438    2.00000
   25    -10.87435    2.00000
   26    -10.33538    2.00000
   27    -10.04142    2.00000
   28     -9.84062    2.00000
   29     -9.23119    2.00000
   30     -8.96856    2.00000
   31     -8.82288    2.00000
   32     -8.46177    2.00000
   33     -8.27505    2.00000
   34     -8.07700    2.00000
   35     -7.87543    2.00000
   36     -7.41695    2.00000
   37     -7.07035    2.00000
   38     -6.87147    2.00000
   39     -6.84209    2.00000
   40     -6.64685    2.00000
   41     -6.57786    2.00000
   42     -6.44470    2.00000
   43     -6.04660    1.99999
   44     -5.78160    1.99988
   45     -5.57375    1.99901
   46     -5.33191    1.98896
   47     -4.97500    1.67082
   48     -4.64509    0.31562
   49     -4.37611    0.02512
   50     -4.00004    0.00059
   51     -3.36056    0.00000
   52     -3.09662    0.00000
   53     -2.70922    0.00000
   54     -2.50120    0.00000
   55     -2.16786    0.00000
   56     -2.09082    0.00000
   57     -1.72921    0.00000
   58     -1.49592    0.00000
   59     -1.43047    0.00000
   60     -1.14916    0.00000
   61     -0.65155    0.00000
   62      0.03202    0.00000
   63      0.46498    0.00000
   64      0.73960    0.00000
   65      0.98069    0.00000
   66      1.09309    0.00000
   67      1.57073    0.00000
   68      2.00254    0.00000
   69      2.18399    0.00000
   70      2.69846    0.00000
   71      3.53756    0.00000
   72      3.90911    0.00000
   73      4.32251    0.00000
   74      4.86740    0.00000
   75      5.18058    0.00000
   76      5.89640    0.00000
   77      6.54830    0.00000
   78      6.89333    0.00000
   79      7.04204    0.00000
   80      7.36989    0.00000
   81      7.50528    0.00000
   82      7.72184    0.00000
   83      7.91924    0.00000
   84      8.22287    0.00000
   85      8.37512    0.00000
   86      8.64984    0.00000
   87      8.67950    0.00000
   88      8.81895    0.00000
   89      8.93707    0.00000
   90      9.00192    0.00000
   91      9.27739    0.00000
   92      9.41827    0.00000
   93      9.48091    0.00000
   94      9.55491    0.00000
   95      9.71551    0.00000
   96      9.74516    0.00000
   97      9.77579    0.00000


Forces in eV/Ang:
  0 C    -0.62615    0.81844    1.52783
  1 C    -0.83125   -2.54568   -0.61573
  2 C    -3.78687   -3.11718   -0.79378
  3 C    -4.49156    1.46430    3.00725
  4 C     0.51124   -0.40752    0.07205
  5 C    -2.45349   -3.04509   -0.85615
  6 C     0.13792   -1.29006   -0.20178
  7 C     1.10617   -1.52174    2.28124
  8 C     2.27136   -0.00788    1.85700
  9 C     0.59626    0.09629    0.38124
 10 C    -0.64118    4.24049   -5.12773
 11 C     0.59304    0.58351    1.15081
 12 C    -2.25945    1.50103    0.17598
 13 C     0.08037    0.14359   -1.39574
 14 C     2.54218    0.84339    0.01986
 15 C    -2.96076    1.51486   -0.54763
 16 C     6.32109   -2.59097   -2.56628
 17 C    -0.01020    0.09295    2.18065
 18 C    -0.26562   -0.34134   -0.17094
 19 C    -7.02109   -0.11043    2.39382
 20 C    -0.10989   -1.28299    1.91844
 21 C     4.93859    1.10972   -0.61695
 22 C    -1.67723    6.44739   -1.45936
 23 C     8.27171   -2.48182   -2.53134

System changes: positions 

Initializing position-dependent things.

Density initialized from wave functions
           .--------------------------------------.  
          /|                                      |  
         / |                                      |  
        /  |                                      |  
       /   |                                      |  
      /    |                                      |  
     /     |                                      |  
    /      |                                      |  
   /       |                C C                   |  
  /        |             C   C CC                 |  
 *         |       CC  CCC     C   C              |  
 |         |      C  C     C   C  C               |  
 |         .------C---C-C--C----------------------.  
 |        /      C                               /   
 |       /         C                            /    
 |      /                                      /     
 |     /                                      /      
 |    /                                      /       
 |   /                                      /        
 |  /                                      /         
 | /                                      /          
 |/                                      /           
 *--------------------------------------*            

Positions:
   0 C      9.230972    6.277831    5.408563
   1 C      4.856498    7.626677    5.212074
   2 C     11.787233    8.117523    5.745808
   3 C      8.980746   11.806762    5.416465
   4 C     10.697399    6.220383    5.605239
   5 C      7.621851    4.384381    5.656821
   6 C      6.307798   10.721058    4.775517
   7 C      6.340591    7.470431    4.882467
   8 C      8.887311    7.656076    5.340493
   9 C      8.635640   10.366054    5.415932
  10 C      7.485540    8.006228    5.593827
  11 C      5.301901    6.450316    4.631296
  12 C      7.881646   12.554613    5.013729
  13 C      9.939336    9.841907    5.515660
  14 C     10.131580    8.483878    5.498977
  15 C     11.997463    6.493411    5.846310
  16 C      9.915561   11.662125    4.516054
  17 C      7.416445    9.763852    5.066992
  18 C      6.732959   12.076429    4.788697
  19 C      5.091054    5.058966    4.566661
  20 C      5.004410   10.136473    4.683874
  21 C      7.923832    5.622547    5.668675
  22 C      4.919425    8.905967    5.126377
  23 C      6.237006    5.046898    4.074628

Unit cell:
           periodic     x           y           z      points  spacing
  1. axis:    yes   16.000000    0.000000    0.000000    80     0.2000
  2. axis:    yes    0.000000   16.000000    0.000000    80     0.2000
  3. axis:    yes    0.000000    0.000000   10.000000    48     0.2083

Effective grid spacing dv^(1/3) = 0.2027

                     log10-error:    total        iterations:
           time      wfs    density  energy       fermi  poisson
iter:   1  09:43:18          +inf  -167.034507    4      5      
iter:   2  09:43:18         -1.78  -166.971771    3      2      
iter:   3  09:43:19         -2.15  -166.955327    2      1      
iter:   4  09:43:19         -2.23  -166.935561    2      2      
iter:   5  09:43:20         -2.47  -166.954441    2      2      
iter:   6  09:43:20         -2.41  -166.932578    2      2      
iter:   7  09:43:21         -2.69  -166.928382    3      2      
iter:   8  09:43:21         -2.38  -166.942424    3      2      
iter:   9  09:43:22         -2.83  -166.936132    2      2      
iter:  10  09:43:22         -3.22  -166.933457    2      1      
iter:  11  09:43:23         -3.37  -166.935744    2      1      
iter:  12  09:43:23         -3.44  -166.934229    2      1      
iter:  13  09:43:24         -3.68  -166.934500    2      1      
iter:  14  09:43:24         -3.77  -166.935836    2      1      
iter:  15  09:43:24         -3.86  -166.934468    2      1      
iter:  16  09:43:25         -4.04  -166.934094    2      1      

Converged after 16 iterations.

Dipole moment: (-0.691826, 0.592458, 0.083540) |e|*Ang

Energy contributions relative to reference atoms: (reference = -24663.074771)

Kinetic:       +118.492038
Potential:     -121.249022
External:        +0.000000
XC:            -166.907812
Entropy (-ST):   -0.197669
Local:           +2.829536
--------------------------
Free energy:   -167.032928
Extrapolated:  -166.934094

Fermi level: -4.75197

 Band  Eigenvalues  Occupancy
    0    -24.66965    2.00000
    1    -23.37247    2.00000
    2    -22.08612    2.00000
    3    -22.07546    2.00000
    4    -21.17234    2.00000
    5    -20.23893    2.00000
    6    -19.85540    2.00000
    7    -19.52700    2.00000
    8    -18.69259    2.00000
    9    -18.52859    2.00000
   10    -17.93250    2.00000
   11    -17.58160    2.00000
   12    -16.02002    2.00000
   13    -15.83899    2.00000
   14    -15.29105    2.00000
   15    -14.51835    2.00000
   16    -13.95000    2.00000
   17    -13.58139    2.00000
   18    -13.24580    2.00000
   19    -12.62874    2.00000
   20    -12.39934    2.00000
   21    -11.89243    2.00000
   22    -11.74984    2.00000
   23    -11.24708    2.00000
   24    -11.02770    2.00000
   25    -10.87873    2.00000
   26    -10.34499    2.00000
   27    -10.05251    2.00000
   28     -9.85425    2.00000
   29     -9.25953    2.00000
   30     -9.05210    2.00000
   31     -8.87359    2.00000
   32     -8.46466    2.00000
   33     -8.32533    2.00000
   34     -8.07280    2.00000
   35     -7.89835    2.00000
   36     -7.41352    2.00000
   37     -7.08359    2.00000
   38     -6.89253    2.00000
   39     -6.84121    2.00000
   40     -6.68195    2.00000
   41     -6.61468    2.00000
   42     -6.43000    2.00000
   43     -6.02836    1.99999
   44     -5.79673    1.99994
   45     -5.58832    1.99953
   46     -5.32707    1.99366
   47     -4.91029    1.65932
   48     -4.58783    0.32456
   49     -4.30288    0.02217
   50     -3.97135    0.00081
   51     -3.34342    0.00000
   52     -2.99572    0.00000
   53     -2.63338    0.00000
   54     -2.45245    0.00000
   55     -2.12199    0.00000
   56     -2.03029    0.00000
   57     -1.76940    0.00000
   58     -1.47144    0.00000
   59     -1.35099    0.00000
   60     -1.08778    0.00000
   61     -0.60605    0.00000
   62      0.04585    0.00000
   63      0.52384    0.00000
   64      0.84248    0.00000
   65      1.00899    0.00000
   66      1.21603    0.00000
   67      1.72991    0.00000
   68      2.08366    0.00000
   69      2.33477    0.00000
   70      2.74380    0.00000
   71      3.61063    0.00000
   72      4.11613    0.00000
   73      4.45745    0.00000
   74      4.98563    0.00000
   75      5.27418    0.00000
   76      5.98238    0.00000
   77      6.58923    0.00000
   78      7.01070    0.00000
   79      7.10337    0.00000
   80      7.38518    0.00000
   81      7.51914    0.00000
   82      7.72657    0.00000
   83      7.93724    0.00000
   84      8.25036    0.00000
   85      8.37910    0.00000
   86      8.63650    0.00000
   87      8.70526    0.00000
   88      8.89619    0.00000
   89      8.98211    0.00000
   90      9.04589    0.00000
   91      9.30022    0.00000
   92      9.45665    0.00000
   93      9.50541    0.00000
   94      9.59008    0.00000
   95      9.73615    0.00000
   96      9.75228    0.00000
   97      9.80159    0.00000


Forces in eV/Ang:
  0 C    -0.36102    0.77715    1.46726
  1 C    -0.48620   -1.93861   -0.69394
  2 C    -3.75588   -2.88174   -0.77652
  3 C    -3.85254    1.36182    2.24325
  4 C     0.17036   -0.47598    0.02123
  5 C    -2.46221   -2.25148   -0.97492
  6 C     0.16494   -1.13799   -0.10000
  7 C     0.90393   -1.51150    2.20419
  8 C     1.94925    0.30090    1.77604
  9 C     0.46255    0.19425    0.37584
 10 C    -0.28933    4.31532   -4.93989
 11 C     0.54290    0.46272    1.15187
 12 C    -1.90078    1.35958    0.26242
 13 C     0.14036    0.42830   -1.47153
 14 C     2.37527    0.75026    0.05587
 15 C    -2.53538    1.44705   -0.46776
 16 C     5.63475   -2.65576   -1.75472
 17 C    -0.02146   -0.13754    2.07990
 18 C    -0.38671   -0.42997   -0.19431
 19 C    -5.63404    0.01461    1.68454
 20 C    -0.04461   -0.67519    1.58557
 21 C     4.51148    0.27612   -0.58400
 22 C    -1.87676    5.12987   -1.11836
 23 C     6.94557   -2.64133   -1.72884

System changes: positions 

Initializing position-dependent things.

Density initialized from wave functions
           .--------------------------------------.  
          /|                                      |  
         / |                                      |  
        /  |                                      |  
       /   |                                      |  
      /    |                                      |  
     /     |                                      |  
    /      |                                      |  
   /       |                C C                   |  
  /        |             C   C CC                 |  
 *         |       CC  CCC     C   C              |  
 |         |      C  C     C   C  C               |  
 |         .------C---C-C--C----------------------.  
 |        /      C                               /   
 |       /         C                            /    
 |      /                                      /     
 |     /                                      /      
 |    /                                      /       
 |   /                                      /        
 |  /                                      /         
 | /                                      /          
 |/                                      /           
 *--------------------------------------*            

Positions:
   0 C      9.231051    6.282223    5.417303
   1 C      4.857516    7.629626    5.206963
   2 C     11.764262    8.101602    5.741098
   3 C      8.971916   11.812981    5.414300
   4 C     10.695190    6.216838    5.604855
   5 C      7.607089    4.381405    5.650019
   6 C      6.309711   10.715879    4.775492
   7 C      6.344395    7.461704    4.895923
   8 C      8.896711    7.660651    5.350950
   9 C      8.637056   10.368612    5.418359
  10 C      7.486991    8.033548    5.564646
  11 C      5.304828    6.449679    4.637605
  12 C      7.872497   12.562168    5.015851
  13 C      9.941150    9.847512    5.505737
  14 C     10.144969    8.487361    5.499575
  15 C     11.985526    6.501771    5.844104
  16 C      9.935717   11.645721    4.522032
  17 C      7.416100    9.761100    5.079047
  18 C      6.728857   12.072556    4.787231
  19 C      5.086493    5.060847    4.562355
  20 C      5.004702   10.137433    4.691170
  21 C      7.947879    5.612898    5.665214
  22 C      4.905149    8.917549    5.122593
  23 C      6.249924    5.029500    4.079567

Unit cell:
           periodic     x           y           z      points  spacing
  1. axis:    yes   16.000000    0.000000    0.000000    80     0.2000
  2. axis:    yes    0.000000   16.000000    0.000000    80     0.2000
  3. axis:    yes    0.000000    0.000000   10.000000    48     0.2083

Effective grid spacing dv^(1/3) = 0.2027

                     log10-error:    total        iterations:
           time      wfs    density  energy       fermi  poisson
iter:   1  09:43:27          +inf  -168.237787    4      5      
iter:   2  09:43:27         -1.80  -168.191539    3      2      
iter:   3  09:43:28         -2.18  -168.175849    2      1      
iter:   4  09:43:28         -2.26  -168.156081    3      2      
iter:   5  09:43:29         -2.50  -168.184402    3      2      
iter:   6  09:43:29         -2.37  -168.150215    3      2      
iter:   7  09:43:30         -2.45  -168.148136    2      1      
iter:   8  09:43:30         -2.56  -168.157321    2      2      
iter:   9  09:43:31         -3.15  -168.156536    2      1      
iter:  10  09:43:31         -3.37  -168.155219    2      1      
iter:  11  09:43:32         -3.49  -168.157413    2      1      
iter:  12  09:43:32         -3.64  -168.157379    2      1      
iter:  13  09:43:32         -3.75  -168.156679    2      1      
iter:  14  09:43:33         -3.89  -168.156557    2      1      
iter:  15  09:43:33         -3.94  -168.156371    2      1      
iter:  16  09:43:34         -4.19  -168.157111    2      1      

Converged after 16 iterations.

Dipole moment: (-0.682921, 0.601414, 0.088612) |e|*Ang

Energy contributions relative to reference atoms: (reference = -24663.074771)

Kinetic:       +116.258125
Potential:     -119.889721
External:        +0.000000
XC:            -167.262542
Entropy (-ST):   -0.200738
Local:           +2.837396
--------------------------
Free energy:   -168.257480
Extrapolated:  -168.157111

Fermi level: -4.68764

 Band  Eigenvalues  Occupancy
    0    -24.57817    2.00000
    1    -23.31451    2.00000
    2    -22.09021    2.00000
    3    -21.92783    2.00000
    4    -21.15579    2.00000
    5    -20.24750    2.00000
    6    -19.93236    2.00000
    7    -19.53725    2.00000
    8    -18.64818    2.00000
    9    -18.58288    2.00000
   10    -17.94446    2.00000
   11    -17.55701    2.00000
   12    -16.03600    2.00000
   13    -15.83895    2.00000
   14    -15.29402    2.00000
   15    -14.58730    2.00000
   16    -13.97933    2.00000
   17    -13.60509    2.00000
   18    -13.23850    2.00000
   19    -12.65110    2.00000
   20    -12.42593    2.00000
   21    -11.86586    2.00000
   22    -11.69147    2.00000
   23    -11.24064    2.00000
   24    -11.05328    2.00000
   25    -10.88874    2.00000
   26    -10.36111    2.00000
   27    -10.05063    2.00000
   28     -9.86267    2.00000
   29     -9.33468    2.00000
   30     -9.09879    2.00000
   31     -8.92918    2.00000
   32     -8.48947    2.00000
   33     -8.35705    2.00000
   34     -8.07041    2.00000
   35     -7.91020    2.00000
   36     -7.41632    2.00000
   37     -7.09978    2.00000
   38     -6.91291    2.00000
   39     -6.84659    2.00000
   40     -6.70499    2.00000
   41     -6.64449    2.00000
   42     -6.41430    2.00000
   43     -6.00503    2.00000
   44     -5.80897    1.99997
   45     -5.59121    1.99976
   46     -5.33225    1.99683
   47     -4.83985    1.64170
   48     -4.52850    0.33838
   49     -4.23898    0.02227
   50     -3.93608    0.00109
   51     -3.35217    0.00000
   52     -2.90683    0.00000
   53     -2.56312    0.00000
   54     -2.39805    0.00000
   55     -2.08733    0.00000
   56     -1.97599    0.00000
   57     -1.79212    0.00000
   58     -1.47806    0.00000
   59     -1.25231    0.00000
   60     -1.01503    0.00000
   61     -0.54304    0.00000
   62      0.05271    0.00000
   63      0.58638    0.00000
   64      0.88959    0.00000
   65      1.08892    0.00000
   66      1.39716    0.00000
   67      1.88746    0.00000
   68      2.19401    0.00000
   69      2.46449    0.00000
   70      2.79805    0.00000
   71      3.67693    0.00000
   72      4.31214    0.00000
   73      4.56459    0.00000
   74      5.06765    0.00000
   75      5.39623    0.00000
   76      6.05147    0.00000
   77      6.63511    0.00000
   78      7.06432    0.00000
   79      7.19307    0.00000
   80      7.38418    0.00000
   81      7.53621    0.00000
   82      7.73002    0.00000
   83      7.96307    0.00000
   84      8.29358    0.00000
   85      8.37486    0.00000
   86      8.62925    0.00000
   87      8.73006    0.00000
   88      8.93600    0.00000
   89      9.03527    0.00000
   90      9.10133    0.00000
   91      9.32110    0.00000
   92      9.48596    0.00000
   93      9.53479    0.00000
   94      9.62626    0.00000
   95      9.74119    0.00000
   96      9.76540    0.00000
   97      9.83718    0.00000


Forces in eV/Ang:
  0 C    -0.17233    0.77130    1.41613
  1 C    -0.23174   -1.39981   -0.73664
  2 C    -3.73111   -2.69570   -0.78759
  3 C    -3.07158    1.18174    1.50820
  4 C    -0.09981   -0.50302   -0.00894
  5 C    -2.49587   -1.79901   -1.11416
  6 C     0.16452   -1.02093   -0.00613
  7 C     0.74317   -1.42213    2.12736
  8 C     1.68771    0.50210    1.67406
  9 C     0.33163    0.26358    0.36460
 10 C    -0.04659    4.28256   -4.70026
 11 C     0.49906    0.33699    1.13164
 12 C    -1.78472    1.19357    0.23783
 13 C     0.20046    0.67422   -1.50364
 14 C     2.22166    0.66103    0.07714
 15 C    -2.22210    1.39179   -0.42749
 16 C     4.87087   -2.68315   -0.96111
 17 C     0.00456   -0.32280    1.97399
 18 C    -0.33473   -0.41745   -0.17551
 19 C    -4.56880    0.11175    1.15932
 20 C    -0.01813   -0.27343    1.30571
 21 C     4.17115   -0.13198   -0.58095
 22 C    -2.00946    4.09094   -0.87505
 23 C     5.98182   -2.79881   -1.08427

System changes: positions 

Initializing position-dependent things.

Density initialized from wave functions
           .--------------------------------------.  
          /|                                      |  
         / |                                      |  
        /  |                                      |  
       /   |                                      |  
      /    |                                      |  
     /     |                                      |  
    /      |                                      |  
   /       |                C C                   |  
  /        |             C   C C C                |  
 *         |      C C  CCC     C   C              |  
 |         |      C  C     C   C  C               |  
 |         .------C---C-C--C----------------------.  
 |        /      C                               /   
 |       /         C                            /    
 |      /                                      /     
 |     /                                      /      
 |    /                                      /       
 |   /                                      /        
 |  /                                      /         
 | /                                      /          
 |/                                      /           
 *--------------------------------------*            

Positions:
   0 C      9.231850    6.287174    5.425991
   1 C      4.858998    7.632428    5.201812
   2 C     11.740180    8.086035    5.735942
   3 C      8.965244   11.818262    5.410955
   4 C     10.692187    6.213223    5.604511
   5 C      7.590975    4.377929    5.641549
   6 C      6.311334   10.710797    4.776298
   7 C      6.347919    7.453733    4.909272
   8 C      8.905372    7.666118    5.360944
   9 C      8.637898   10.371262    5.420722
  10 C      7.489131    8.061461    5.536075
  11 C      5.307645    6.448548    4.644121
  12 C      7.862557   12.568830    5.017437
  13 C      9.943163    9.854407    5.495337
  14 C     10.157873    8.491069    5.500342
  15 C     11.974182    6.510111    5.841808
  16 C      9.954691   11.628215    4.529753
  17 C      7.416286    9.757043    5.090947
  18 C      6.726124   12.069347    4.786041
  19 C      5.082568    5.062971    4.557390
  20 C      5.004599   10.139691    4.697076
  21 C      7.971053    5.603912    5.661607
  22 C      4.890208    8.928071    5.119624
  23 C      6.263772    5.009862    4.086119

Unit cell:
           periodic     x           y           z      points  spacing
  1. axis:    yes   16.000000    0.000000    0.000000    80     0.2000
  2. axis:    yes    0.000000   16.000000    0.000000    80     0.2000
  3. axis:    yes    0.000000    0.000000   10.000000    48     0.2083

Effective grid spacing dv^(1/3) = 0.2027

                     log10-error:    total        iterations:
           time      wfs    density  energy       fermi  poisson
iter:   1  09:43:36          +inf  -169.409649    4      5      
iter:   2  09:43:36         -1.75  -169.339360    3      2      
iter:   3  09:43:37         -2.18  -169.321800    2      1      
iter:   4  09:43:37         -2.27  -169.297181    2      2      
iter:   5  09:43:38         -2.45  -169.338754    3      2      
iter:   6  09:43:38         -2.33  -169.291731    3      2      
iter:   7  09:43:39         -2.36  -169.294392    3      1      
iter:   8  09:43:39         -2.68  -169.300521    2      2      
iter:   9  09:43:40         -3.10  -169.301055    2      1      
iter:  10  09:43:40         -3.27  -169.298407    2      1      
iter:  11  09:43:40         -3.51  -169.300946    2      1      
iter:  12  09:43:41         -3.58  -169.302452    2      1      
iter:  13  09:43:41         -3.66  -169.302796    2      1      
iter:  14  09:43:42         -3.84  -169.302592    2      1      
iter:  15  09:43:42         -3.90  -169.302015    2      1      
iter:  16  09:43:43         -4.04  -169.302171    2      1      

Converged after 16 iterations.

Dipole moment: (-0.669297, 0.603219, 0.096039) |e|*Ang

Energy contributions relative to reference atoms: (reference = -24663.074771)

Kinetic:       +114.176306
Potential:     -118.600614
External:        +0.000000
XC:            -167.614606
Entropy (-ST):   -0.208514
Local:           +2.841001
--------------------------
Free energy:   -169.406428
Extrapolated:  -169.302171

Fermi level: -4.61835

 Band  Eigenvalues  Occupancy
    0    -24.48548    2.00000
    1    -23.27183    2.00000
    2    -22.09963    2.00000
    3    -21.78844    2.00000
    4    -21.12797    2.00000
    5    -20.26326    2.00000
    6    -20.00127    2.00000
    7    -19.54808    2.00000
    8    -18.63511    2.00000
    9    -18.59768    2.00000
   10    -17.95189    2.00000
   11    -17.52892    2.00000
   12    -16.04675    2.00000
   13    -15.83704    2.00000
   14    -15.29484    2.00000
   15    -14.65592    2.00000
   16    -14.01439    2.00000
   17    -13.63127    2.00000
   18    -13.22797    2.00000
   19    -12.66947    2.00000
   20    -12.45450    2.00000
   21    -11.83614    2.00000
   22    -11.62574    2.00000
   23    -11.23985    2.00000
   24    -11.06890    2.00000
   25    -10.89952    2.00000
   26    -10.38541    2.00000
   27    -10.04504    2.00000
   28     -9.87077    2.00000
   29     -9.43740    2.00000
   30     -9.12946    2.00000
   31     -8.98453    2.00000
   32     -8.52438    2.00000
   33     -8.37849    2.00000
   34     -8.07640    2.00000
   35     -7.91000    2.00000
   36     -7.42507    2.00000
   37     -7.12629    2.00000
   38     -6.93514    2.00000
   39     -6.86417    2.00000
   40     -6.72155    2.00000
   41     -6.66938    2.00000
   42     -6.40110    2.00000
   43     -5.98085    2.00000
   44     -5.81535    1.99999
   45     -5.58753    1.99988
   46     -5.33708    1.99849
   47     -4.76154    1.61438
   48     -4.46697    0.36076
   49     -4.18140    0.02500
   50     -3.89886    0.00150
   51     -3.34868    0.00001
   52     -2.82873    0.00000
   53     -2.50187    0.00000
   54     -2.34347    0.00000
   55     -2.05901    0.00000
   56     -1.94602    0.00000
   57     -1.80161    0.00000
   58     -1.47380    0.00000
   59     -1.15816    0.00000
   60     -0.92466    0.00000
   61     -0.46430    0.00000
   62      0.05532    0.00000
   63      0.65036    0.00000
   64      0.91433    0.00000
   65      1.18018    0.00000
   66      1.61705    0.00000
   67      2.04186    0.00000
   68      2.32787    0.00000
   69      2.55203    0.00000
   70      2.88561    0.00000
   71      3.73916    0.00000
   72      4.49110    0.00000
   73      4.66795    0.00000
   74      5.11409    0.00000
   75      5.55030    0.00000
   76      6.11486    0.00000
   77      6.68550    0.00000
   78      7.08010    0.00000
   79      7.26119    0.00000
   80      7.40726    0.00000
   81      7.53814    0.00000
   82      7.75165    0.00000
   83      7.98949    0.00000
   84      8.33500    0.00000
   85      8.37725    0.00000
   86      8.62822    0.00000
   87      8.75496    0.00000
   88      8.94712    0.00000
   89      9.08608    0.00000
   90      9.16692    0.00000
   91      9.33995    0.00000
   92      9.50171    0.00000
   93      9.56655    0.00000
   94      9.66184    0.00000
   95      9.73908    0.00000
   96      9.78743    0.00000
   97      9.87612    0.00000


Forces in eV/Ang:
  0 C     0.00372    0.75110    1.35340
  1 C    -0.03304   -0.92312   -0.74165
  2 C    -3.63718   -2.47819   -0.74925
  3 C    -2.53518    1.06422    0.96743
  4 C    -0.29694   -0.50834   -0.03171
  5 C    -2.47199   -1.16423   -1.29170
  6 C     0.15632   -0.89699    0.08515
  7 C     0.63381   -1.28810    2.04921
  8 C     1.40180    0.69650    1.56014
  9 C     0.24509    0.31423    0.36418
 10 C     0.14165    4.13922   -4.47598
 11 C     0.45869    0.24180    1.09986
 12 C    -1.46766    1.09715    0.27259
 13 C     0.26228    0.83500   -1.54264
 14 C     2.04080    0.64940    0.07982
 15 C    -1.88913    1.30247   -0.37615
 16 C     4.28941   -2.71750   -0.36787
 17 C     0.00460   -0.45707    1.81461
 18 C    -0.45184   -0.50933   -0.20138
 19 C    -3.56357    0.17424    0.69775
 20 C     0.01722    0.04540    1.09714
 21 C     3.74627   -0.68272   -0.54516
 22 C    -2.10969    3.21599   -0.67742
 23 C     5.09666   -2.94410   -0.45473

System changes: positions 

Initializing position-dependent things.

Density initialized from wave functions
           .--------------------------------------.  
          /|                                      |  
         / |                                      |  
        /  |                                      |  
       /   |                                      |  
      /    |                                      |  
     /     |                                      |  
    /      |                                      |  
   /       |                C C                   |  
  /        |             C   C C C                |  
 *         |      C C  CCC     C   C              |  
 |         |      C  C      C  C  C               |  
 |         .------C-----C--C----------------------.  
 |        /      C    C                          /   
 |       /         C                            /    
 |      /                                      /     
 |     /                                      /      
 |    /                                      /       
 |   /                                      /        
 |  /                                      /         
 | /                                      /          
 |/                                      /           
 *--------------------------------------*            

Positions:
   0 C      9.233356    6.292515    5.434674
   1 C      4.860557    7.635169    5.196906
   2 C     11.715435    8.070977    5.730890
   3 C      8.958244   11.823453    5.407892
   4 C     10.688960    6.209685    5.604232
   5 C      7.573985    4.376871    5.630803
   6 C      6.312684   10.705922    4.777896
   7 C      6.351749    7.446842    4.922789
   8 C      8.912992    7.672668    5.370549
   9 C      8.638662   10.373936    5.423223
  10 C      7.491547    8.089185    5.507343
  11 C      5.310436    6.447141    4.650799
  12 C      7.854345   12.575596    5.019326
  13 C      9.945527    9.861817    5.484123
  14 C     10.170196    8.495919    5.501059
  15 C     11.963734    6.518159    5.839574
  16 C      9.974387   11.609188    4.537793
  17 C      7.416608    9.752196    5.102215
  18 C      6.722371   12.065279    4.784510
  19 C      5.079776    5.065094    4.551832
  20 C      5.004345   10.142659    4.702508
  21 C      7.992644    5.592877    5.658187
  22 C      4.874499    8.938570    5.117031
  23 C      6.278419    4.987782    4.094893

Unit cell:
           periodic     x           y           z      points  spacing
  1. axis:    yes   16.000000    0.000000    0.000000    80     0.2000
  2. axis:    yes    0.000000   16.000000    0.000000    80     0.2000
  3. axis:    yes    0.000000    0.000000   10.000000    48     0.2083

Effective grid spacing dv^(1/3) = 0.2027

                     log10-error:    total        iterations:
           time      wfs    density  energy       fermi  poisson
iter:   1  09:43:44          +inf  -170.499296    5      5      
iter:   2  09:43:45         -1.75  -170.434242    3      2      
iter:   3  09:43:45         -2.16  -170.414635    2      1      
iter:   4  09:43:46         -2.26  -170.387517    3      2      
iter:   5  09:43:46         -2.42  -170.425891    3      2      
iter:   6  09:43:47         -2.35  -170.384731    3      2      
iter:   7  09:43:47         -2.50  -170.386280    3      1      
iter:   8  09:43:48         -2.82  -170.393929    2      2      
iter:   9  09:43:48         -3.23  -170.393917    2      1      
iter:  10  09:43:49         -3.40  -170.392430    2      1      
iter:  11  09:43:49         -3.48  -170.392867    2      1      
iter:  12  09:43:50         -3.56  -170.395044    2      1      
iter:  13  09:43:50         -3.68  -170.394161    2      1      
iter:  14  09:43:51         -3.90  -170.393511    2      1      
iter:  15  09:43:51         -3.93  -170.394347    2      1      
iter:  16  09:43:52         -4.26  -170.394339    2      1      

Converged after 16 iterations.

Dipole moment: (-0.651300, 0.601336, 0.103990) |e|*Ang

Energy contributions relative to reference atoms: (reference = -24663.074771)

Kinetic:       +112.025351
Potential:     -117.215699
External:        +0.000000
XC:            -167.941421
Entropy (-ST):   -0.218488
Local:           +2.846674
--------------------------
Free energy:   -170.503583
Extrapolated:  -170.394339

Fermi level: -4.54728

 Band  Eigenvalues  Occupancy
    0    -24.38236    2.00000
    1    -23.23140    2.00000
    2    -22.10649    2.00000
    3    -21.66173    2.00000
    4    -21.08379    2.00000
    5    -20.28756    2.00000
    6    -20.05490    2.00000
    7    -19.55605    2.00000
    8    -18.68180    2.00000
    9    -18.55122    2.00000
   10    -17.95958    2.00000
   11    -17.49209    2.00000
   12    -16.05955    2.00000
   13    -15.82585    2.00000
   14    -15.29665    2.00000
   15    -14.71632    2.00000
   16    -14.05029    2.00000
   17    -13.65856    2.00000
   18    -13.21233    2.00000
   19    -12.68446    2.00000
   20    -12.48339    2.00000
   21    -11.80426    2.00000
   22    -11.55083    2.00000
   23    -11.24493    2.00000
   24    -11.07446    2.00000
   25    -10.90815    2.00000
   26    -10.41165    2.00000
   27    -10.03828    2.00000
   28     -9.87363    2.00000
   29     -9.54256    2.00000
   30     -9.17730    2.00000
   31     -9.02304    2.00000
   32     -8.55676    2.00000
   33     -8.40602    2.00000
   34     -8.09234    2.00000
   35     -7.89644    2.00000
   36     -7.44048    2.00000
   37     -7.15972    2.00000
   38     -6.96485    2.00000
   39     -6.88167    2.00000
   40     -6.73350    2.00000
   41     -6.68002    2.00000
   42     -6.38319    2.00000
   43     -5.95796    2.00000
   44     -5.80807    1.99999
   45     -5.58452    1.99994
   46     -5.34216    1.99929
   47     -4.68049    1.58238
   48     -4.40433    0.38635
   49     -4.12950    0.03020
   50     -3.84753    0.00183
   51     -3.36146    0.00001
   52     -2.76220    0.00000
   53     -2.45556    0.00000
   54     -2.28793    0.00000
   55     -2.03463    0.00000
   56     -1.92307    0.00000
   57     -1.79577    0.00000
   58     -1.47008    0.00000
   59     -1.06937    0.00000
   60     -0.81769    0.00000
   61     -0.36136    0.00000
   62      0.05561    0.00000
   63      0.71307    0.00000
   64      0.94552    0.00000
   65      1.27726    0.00000
   66      1.85499    0.00000
   67      2.21243    0.00000
   68      2.47934    0.00000
   69      2.59805    0.00000
   70      3.00581    0.00000
   71      3.80070    0.00000
   72      4.63397    0.00000
   73      4.78870    0.00000
   74      5.14567    0.00000
   75      5.71575    0.00000
   76      6.16088    0.00000
   77      6.75539    0.00000
   78      7.07886    0.00000
   79      7.30434    0.00000
   80      7.43358    0.00000
   81      7.52964    0.00000
   82      7.80803    0.00000
   83      8.02580    0.00000
   84      8.33277    0.00000
   85      8.43171    0.00000
   86      8.63325    0.00000
   87      8.78135    0.00000
   88      8.95777    0.00000
   89      9.12667    0.00000
   90      9.23716    0.00000
   91      9.36283    0.00000
   92      9.50312    0.00000
   93      9.59328    0.00000
   94      9.69870    0.00000
   95      9.75236    0.00000
   96      9.80970    0.00000
   97      9.91899    0.00000


Forces in eV/Ang:
  0 C     0.11044    0.74028    1.30042
  1 C     0.16091   -0.46784   -0.72688
  2 C    -3.50638   -2.29292   -0.71932
  3 C    -1.91709    0.90431    0.45572
  4 C    -0.46658   -0.49647   -0.04728
  5 C    -2.48329   -0.72780   -1.50869
  6 C     0.13937   -0.79291    0.15516
  7 C     0.49756   -1.16657    1.99724
  8 C     1.17640    0.83480    1.42682
  9 C     0.16117    0.34258    0.35129
 10 C     0.32744    3.91748   -4.19816
 11 C     0.42167    0.18979    1.04716
 12 C    -1.36659    0.93601    0.26391
 13 C     0.29869    1.01864   -1.52374
 14 C     1.78951    0.60986    0.05347
 15 C    -1.56490    1.19624   -0.32127
 16 C     3.63555   -2.67953    0.18590
 17 C     0.00225   -0.50094    1.65429
 18 C    -0.35894   -0.48286   -0.18520
 19 C    -2.65920    0.21556    0.29336
 20 C     0.05321    0.31663    0.90833
 21 C     3.41433   -0.96275   -0.48912
 22 C    -2.17060    2.36890   -0.50641
 23 C     4.31227   -3.07900    0.13704

System changes: positions 

Initializing position-dependent things.

Density initialized from wave functions
           .--------------------------------------.  
[...]
Free energy:   -182.372663
Extrapolated:  -182.302688

Fermi level: -4.09250

 Band  Eigenvalues  Occupancy
    0    -23.43382    2.00000
    1    -23.16055    2.00000
    2    -22.78651    2.00000
    3    -21.25073    2.00000
    4    -20.79423    2.00000
    5    -20.59167    2.00000
    6    -19.80801    2.00000
    7    -19.53039    2.00000
    8    -19.00886    2.00000
    9    -18.20192    2.00000
   10    -18.02981    2.00000
   11    -17.19444    2.00000
   12    -16.27190    2.00000
   13    -15.73042    2.00000
   14    -15.34016    2.00000
   15    -14.83469    2.00000
   16    -14.28562    2.00000
   17    -13.77551    2.00000
   18    -13.35485    2.00000
   19    -12.99233    2.00000
   20    -12.56189    2.00000
   21    -12.49884    2.00000
   22    -11.39254    2.00000
   23    -11.06922    2.00000
   24    -10.87345    2.00000
   25    -10.75567    2.00000
   26    -10.23980    2.00000
   27    -10.14361    2.00000
   28     -9.87567    2.00000
   29     -9.64722    2.00000
   30     -9.59981    2.00000
   31     -9.15417    2.00000
   32     -8.79716    2.00000
   33     -8.69354    2.00000
   34     -8.59114    2.00000
   35     -8.26628    2.00000
   36     -8.09187    2.00000
   37     -7.80338    2.00000
   38     -7.47170    2.00000
   39     -7.17729    2.00000
   40     -6.59898    2.00000
   41     -6.45768    2.00000
   42     -6.28321    2.00000
   43     -5.73488    2.00000
   44     -5.33330    1.99999
   45     -5.26496    1.99998
   46     -4.99687    1.99976
   47     -4.30074    1.77836
   48     -3.88418    0.22147
   49     -3.21746    0.00032
   50     -3.10479    0.00010
   51     -2.76768    0.00000
   52     -2.51740    0.00000
   53     -2.34918    0.00000
   54     -1.86518    0.00000
   55     -1.59641    0.00000
   56     -1.51747    0.00000
   57     -0.42001    0.00000
   58     -0.15026    0.00000
   59      0.48790    0.00000
   60      1.29149    0.00000
   61      1.63519    0.00000
   62      2.07686    0.00000
   63      2.39651    0.00000
   64      2.64101    0.00000
   65      2.98608    0.00000
   66      3.18233    0.00000
   67      3.43560    0.00000
   68      4.17042    0.00000
   69      4.25430    0.00000
   70      4.48384    0.00000
   71      4.83702    0.00000
   72      4.97590    0.00000
   73      5.62177    0.00000
   74      6.28352    0.00000
   75      6.61033    0.00000
   76      6.83093    0.00000
   77      7.36997    0.00000
   78      7.69483    0.00000
   79      7.89830    0.00000
   80      8.09865    0.00000
   81      8.38952    0.00000
   82      8.55711    0.00000
   83      8.69207    0.00000
   84      8.74066    0.00000
   85      9.01931    0.00000
   86      9.14822    0.00000
   87      9.35243    0.00000
   88      9.38593    0.00000
   89      9.49549    0.00000
   90      9.58799    0.00000
   91      9.78221    0.00000
   92      9.89553    0.00000
   93     10.08453    0.00000
   94     10.13765    0.00000
   95     10.19779    0.00000
   96     10.38588    0.00000
   97     10.48467    0.00000


Forces in eV/Ang:
  0 C     0.05107   -0.11291    0.03549
  1 C    -0.04280   -0.07204   -0.00694
  2 C    -0.09631   -0.05453   -0.00359
  3 C    -0.06014   -0.05815    0.02923
  4 C     0.03643    0.14197   -0.01618
  5 C    -0.02185    0.01957    0.00656
  6 C    -0.01184   -0.01411   -0.07252
  7 C    -0.01826    0.05024   -0.00393
  8 C     0.05827    0.01836    0.01415
  9 C     0.01172   -0.01480   -0.02809
 10 C     0.01919    0.08164   -0.00489
 11 C     0.00836   -0.01571    0.04782
 12 C     0.00484   -0.00353   -0.00048
 13 C     0.01584   -0.06981    0.00949
 14 C     0.00771    0.02548   -0.03984
 15 C    -0.12339   -0.00814   -0.05404
 16 C     0.06063   -0.02480    0.08211
 17 C    -0.02587    0.03177    0.00346
 18 C     0.00164   -0.10197    0.00592
 19 C     0.01035    0.02081    0.00978
 20 C     0.02538    0.02186    0.01024
 21 C    -0.06815    0.00614   -0.03740
 22 C     0.05660    0.05966   -0.02569
 23 C     0.07936    0.01114    0.01517

System changes: positions 

Initializing position-dependent things.

Density initialized from wave functions
           .--------------------------------------.  
          /|                                      |  
         / |                                      |  
        /  |                                      |  
       /   |                                      |  
      /    |                                      |  
     /     |                                      |  
    /      |                                      |  
   /       |                C C                   |  
  /        |           C C   C C C                |  
 *         |     C C     C     C C                |  
 |         |      C  C   C C   C   C              |  
 |         .------C------C--C---------------------.  
 |        /      C C  C                          /   
 |       /                                      /    
 |      /                                      /     
 |     /                                      /      
 |    /                                      /       
 |   /                                      /        
 |  /                                      /         
 | /                                      /          
 |/                                      /           
 *--------------------------------------*            

Positions:
   0 C      9.315992    6.363392    5.405657
   1 C      4.941129    7.799183    4.898511
   2 C     11.233063    7.698358    5.599325
   3 C      9.001802   11.880479    5.275361
   4 C     10.748142    6.357299    5.568635
   5 C      7.634643    4.358623    5.041482
   6 C      6.238418   10.783916    4.984674
   7 C      6.325156    7.529542    5.035186
   8 C      8.858853    7.759945    5.368036
   9 C      8.608751   10.462885    5.412277
  10 C      7.512672    8.317915    5.194760
  11 C      5.318250    6.458037    4.833918
  12 C      7.848218   12.581352    4.983869
  13 C      9.946580    9.965025    5.455421
  14 C     10.099821    8.583356    5.481061
  15 C     12.163377    6.615391    5.762547
  16 C     10.289811   11.307410    4.874392
  17 C      7.387839    9.816161    5.151357
  18 C      6.652854   12.129006    4.901287
  19 C      5.222733    5.075027    4.717713
  20 C      4.957381   10.183416    4.947503
  21 C      8.524386    5.238069    5.253301
  22 C      4.361896    9.079638    4.951590
  23 C      6.313397    4.411783    4.845801

Unit cell:
           periodic     x           y           z      points  spacing
  1. axis:    yes   16.000000    0.000000    0.000000    80     0.2000
  2. axis:    yes    0.000000   16.000000    0.000000    80     0.2000
  3. axis:    yes    0.000000    0.000000   10.000000    48     0.2083

Effective grid spacing dv^(1/3) = 0.2027

                     log10-error:    total        iterations:
           time      wfs    density  energy       fermi  poisson
iter:   1  09:50:15          +inf  -182.296953    2      4      
iter:   2  09:50:16         -2.76  -182.300594    2      1      
iter:   3  09:50:16         -3.04  -182.303545    2      1      
iter:   4  09:50:17         -3.25  -182.302312    2      1      
iter:   5  09:50:17         -3.47  -182.303487    2      1      
iter:   6  09:50:18         -3.52  -182.303613    2      1      
iter:   7  09:50:18         -3.79  -182.301544    2      1      
iter:   8  09:50:19         -3.50  -182.303654    2      1      
iter:   9  09:50:19         -4.09  -182.303945    1      1      

Converged after 9 iterations.

Dipole moment: (-0.812095, 0.268181, 0.061134) |e|*Ang

Energy contributions relative to reference atoms: (reference = -24663.074771)

Kinetic:       +109.886397
Potential:     -116.450686
External:        +0.000000
XC:            -178.654375
Entropy (-ST):   -0.141420
Local:           +2.985430
--------------------------
Free energy:   -182.374655
Extrapolated:  -182.303945

Fermi level: -4.09521

 Band  Eigenvalues  Occupancy
    0    -23.42653    2.00000
    1    -23.15499    2.00000
    2    -22.79628    2.00000
    3    -21.25220    2.00000
    4    -20.79544    2.00000
    5    -20.59831    2.00000
    6    -19.80493    2.00000
    7    -19.52952    2.00000
    8    -19.01118    2.00000
    9    -18.19811    2.00000
   10    -18.03148    2.00000
   11    -17.19099    2.00000
   12    -16.27262    2.00000
   13    -15.73204    2.00000
   14    -15.33644    2.00000
   15    -14.83672    2.00000
   16    -14.28539    2.00000
   17    -13.77677    2.00000
   18    -13.35820    2.00000
   19    -12.99289    2.00000
   20    -12.55860    2.00000
   21    -12.50349    2.00000
   22    -11.39093    2.00000
   23    -11.06224    2.00000
   24    -10.86809    2.00000
   25    -10.75491    2.00000
   26    -10.23394    2.00000
   27    -10.14183    2.00000
   28     -9.88003    2.00000
   29     -9.64873    2.00000
   30     -9.59836    2.00000
   31     -9.15629    2.00000
   32     -8.80084    2.00000
   33     -8.69785    2.00000
   34     -8.59260    2.00000
   35     -8.27646    2.00000
   36     -8.09286    2.00000
   37     -7.81041    2.00000
   38     -7.47149    2.00000
   39     -7.17512    2.00000
   40     -6.60126    2.00000
   41     -6.45610    2.00000
   42     -6.27985    2.00000
   43     -5.73559    2.00000
   44     -5.33047    1.99999
   45     -5.26372    1.99998
   46     -4.98921    1.99974
   47     -4.30168    1.77485
   48     -3.88869    0.22504
   49     -3.21334    0.00030
   50     -3.10263    0.00010
   51     -2.76561    0.00000
   52     -2.51803    0.00000
   53     -2.34885    0.00000
   54     -1.86552    0.00000
   55     -1.58944    0.00000
   56     -1.51300    0.00000
   57     -0.41834    0.00000
   58     -0.14442    0.00000
   59      0.49653    0.00000
   60      1.29536    0.00000
   61      1.64154    0.00000
   62      2.08085    0.00000
   63      2.40556    0.00000
   64      2.64198    0.00000
   65      2.98579    0.00000
   66      3.18545    0.00000
   67      3.42679    0.00000
   68      4.17878    0.00000
   69      4.26334    0.00000
   70      4.48773    0.00000
   71      4.84217    0.00000
   72      4.97060    0.00000
   73      5.61647    0.00000
   74      6.29113    0.00000
   75      6.61100    0.00000
   76      6.82977    0.00000
   77      7.37175    0.00000
   78      7.69614    0.00000
   79      7.89640    0.00000
   80      8.10525    0.00000
   81      8.39564    0.00000
   82      8.55906    0.00000
   83      8.69070    0.00000
   84      8.74210    0.00000
   85      9.02373    0.00000
   86      9.15036    0.00000
   87      9.35288    0.00000
   88      9.38738    0.00000
   89      9.49836    0.00000
   90      9.58909    0.00000
   91      9.78487    0.00000
   92      9.89219    0.00000
   93     10.08459    0.00000
   94     10.13870    0.00000
   95     10.19692    0.00000
   96     10.38262    0.00000
   97     10.48682    0.00000


Forces in eV/Ang:
  0 C     0.00587   -0.04885    0.02635
  1 C    -0.01366   -0.03631   -0.01677
  2 C    -0.07198   -0.03399   -0.03097
  3 C    -0.04626   -0.05781    0.03756
  4 C    -0.01898    0.12275   -0.02727
  5 C     0.02775   -0.01490    0.02498
  6 C     0.00609   -0.02654   -0.06618
  7 C    -0.01536    0.03352    0.00107
  8 C     0.02887   -0.00504   -0.00097
  9 C     0.00277   -0.02714   -0.03621
 10 C     0.02760    0.05421   -0.00674
 11 C    -0.00881   -0.02087    0.04603
 12 C     0.06302    0.00845    0.00881
 13 C    -0.00519   -0.05409   -0.00496
 14 C     0.00020    0.00148   -0.00361
 15 C    -0.06605   -0.00020   -0.05064
 16 C     0.04173   -0.01989    0.07080
 17 C    -0.00090    0.02218    0.00306
 18 C    -0.03205   -0.05601    0.01746
 19 C     0.01020    0.03723    0.01296
 20 C    -0.01713   -0.01492   -0.00755
 21 C     0.00831    0.04003   -0.04086
 22 C     0.06834    0.05233   -0.01335
 23 C    -0.01476    0.01617   -0.00909

System changes: positions 

Initializing position-dependent things.

Density initialized from wave functions
           .--------------------------------------.  
          /|                                      |  
         / |                                      |  
        /  |                                      |  
       /   |                                      |  
      /    |                                      |  
     /     |                                      |  
    /      |                                      |  
   /       |                C C                   |  
  /        |           C C   C C C                |  
 *         |     C C     C     C C                |  
 |         |      C  C   C C   C   C              |  
 |         .------C------C--C---------------------.  
 |        /      C C  C                          /   
 |       /                                      /    
 |      /                                      /     
 |     /                                      /      
 |    /                                      /       
 |   /                                      /        
 |  /                                      /         
 | /                                      /          
 |/                                      /           
 *--------------------------------------*            

Positions:
   0 C      9.318023    6.361679    5.394639
   1 C      4.939838    7.797365    4.897376
   2 C     11.232928    7.696663    5.598574
   3 C      9.000757   11.880717    5.284106
   4 C     10.748845    6.357526    5.557887
   5 C      7.629858    4.360876    5.044070
   6 C      6.240139   10.781822    4.976238
   7 C      6.325564    7.530480    5.025642
   8 C      8.862264    7.760726    5.357395
   9 C      8.609007   10.462448    5.415787
  10 C      7.514927    8.319346    5.184797
  11 C      5.318346    6.456072    4.834861
  12 C      7.849039   12.578726    4.978330
  13 C      9.947137    9.966398    5.466349
  14 C     10.101972    8.583972    5.477056
  15 C     12.161468    6.611104    5.757277
  16 C     10.298393   11.314401    4.903545
  17 C      7.389908    9.816612    5.145811
  18 C      6.654012   12.125626    4.889679
  19 C      5.218245    5.072831    4.727166
  20 C      4.960294   10.181007    4.949319
  21 C      8.520388    5.240650    5.248992
  22 C      4.361818    9.079103    4.953211
  23 C      6.308241    4.409276    4.858527

Unit cell:
           periodic     x           y           z      points  spacing
  1. axis:    yes   16.000000    0.000000    0.000000    80     0.2000
  2. axis:    yes    0.000000   16.000000    0.000000    80     0.2000
  3. axis:    yes    0.000000    0.000000   10.000000    48     0.2083

Effective grid spacing dv^(1/3) = 0.2027

                     log10-error:    total        iterations:
           time      wfs    density  energy       fermi  poisson
iter:   1  09:50:21          +inf  -182.296129    2      5      
iter:   2  09:50:21         -2.65  -182.300973    2      1      
iter:   3  09:50:22         -2.90  -182.304634    2      1      
iter:   4  09:50:22         -3.06  -182.302334    2      1      
iter:   5  09:50:23         -3.26  -182.304166    2      1      
iter:   6  09:50:23         -3.34  -182.305156    1      1      
iter:   7  09:50:24         -3.57  -182.301492    2      1      
iter:   8  09:50:24         -3.27  -182.304761    2      1      
iter:   9  09:50:25         -3.86  -182.305126    2      1      
iter:  10  09:50:25         -3.99  -182.303697    2      1      
iter:  11  09:50:26         -3.72  -182.304648    2      1      
iter:  12  09:50:26         -4.37  -182.304932    1      1      

Converged after 12 iterations.

Dipole moment: (-0.809532, 0.259980, 0.059139) |e|*Ang

Energy contributions relative to reference atoms: (reference = -24663.074771)

Kinetic:       +110.188068
Potential:     -116.685218
External:        +0.000000
XC:            -178.717825
Entropy (-ST):   -0.143408
Local:           +2.981747
--------------------------
Free energy:   -182.376636
Extrapolated:  -182.304932

Fermi level: -4.10307

 Band  Eigenvalues  Occupancy
    0    -23.41812    2.00000
    1    -23.14400    2.00000
    2    -22.81090    2.00000
    3    -21.25556    2.00000
    4    -20.79647    2.00000
    5    -20.60338    2.00000
    6    -19.80149    2.00000
    7    -19.53244    2.00000
    8    -19.01174    2.00000
    9    -18.19351    2.00000
   10    -18.03113    2.00000
   11    -17.18836    2.00000
   12    -16.27441    2.00000
   13    -15.73320    2.00000
   14    -15.32942    2.00000
   15    -14.83665    2.00000
   16    -14.28487    2.00000
   17    -13.77948    2.00000
   18    -13.36245    2.00000
   19    -12.99378    2.00000
   20    -12.55579    2.00000
   21    -12.50870    2.00000
   22    -11.38942    2.00000
   23    -11.05339    2.00000
   24    -10.85857    2.00000
   25    -10.75683    2.00000
   26    -10.22592    2.00000
   27    -10.13650    2.00000
   28     -9.88760    2.00000
   29     -9.65442    2.00000
   30     -9.59469    2.00000
   31     -9.15768    2.00000
   32     -8.80607    2.00000
   33     -8.69816    2.00000
   34     -8.59359    2.00000
   35     -8.28879    2.00000
   36     -8.09411    2.00000
   37     -7.81293    2.00000
   38     -7.47000    2.00000
   39     -7.17456    2.00000
   40     -6.60251    2.00000
   41     -6.45401    2.00000
   42     -6.27632    2.00000
   43     -5.74020    2.00000
   44     -5.32928    1.99999
   45     -5.26138    1.99998
   46     -4.97812    1.99968
   47     -4.30718    1.77011
   48     -3.89894    0.22988
   49     -3.21343    0.00027
   50     -3.09936    0.00009
   51     -2.76188    0.00000
   52     -2.52474    0.00000
   53     -2.34926    0.00000
   54     -1.86874    0.00000
   55     -1.58372    0.00000
   56     -1.50625    0.00000
   57     -0.41360    0.00000
   58     -0.13906    0.00000
   59      0.50787    0.00000
   60      1.30227    0.00000
   61      1.65739    0.00000
   62      2.08565    0.00000
   63      2.41241    0.00000
   64      2.63769    0.00000
   65      2.98860    0.00000
   66      3.18956    0.00000
   67      3.42128    0.00000
   68      4.19490    0.00000
   69      4.27362    0.00000
   70      4.49324    0.00000
   71      4.84973    0.00000
   72      4.96578    0.00000
   73      5.60479    0.00000
   74      6.29827    0.00000
   75      6.61481    0.00000
   76      6.83045    0.00000
   77      7.37726    0.00000
   78      7.69909    0.00000
   79      7.89463    0.00000
   80      8.11346    0.00000
   81      8.40610    0.00000
   82      8.56115    0.00000
   83      8.68966    0.00000
   84      8.74417    0.00000
   85      9.03202    0.00000
   86      9.15221    0.00000
   87      9.35411    0.00000
   88      9.39167    0.00000
   89      9.50495    0.00000
   90      9.59003    0.00000
   91      9.78647    0.00000
   92      9.88954    0.00000
   93     10.08524    0.00000
   94     10.13842    0.00000
   95     10.19656    0.00000
   96     10.37743    0.00000
   97     10.49048    0.00000


Forces in eV/Ang:
  0 C    -0.05095    0.03872    0.02663
  1 C     0.01835   -0.01279   -0.01989
  2 C    -0.01914    0.02739   -0.05542
  3 C    -0.03077   -0.04866    0.04752
  4 C    -0.05651    0.04365    0.01991
  5 C     0.05941   -0.03438    0.04390
  6 C     0.01614   -0.02309   -0.04426
  7 C    -0.00492    0.01184    0.01033
  8 C    -0.02305   -0.03264   -0.02941
  9 C    -0.01747   -0.03605   -0.05839
 10 C     0.02217    0.00108   -0.00658
 11 C    -0.02821    0.02176    0.04325
 12 C     0.07069    0.01000    0.03307
 13 C    -0.01942   -0.05168   -0.00067
 14 C    -0.01343    0.00658    0.04365
 15 C     0.00544    0.01200   -0.03550
 16 C     0.01072   -0.00802    0.02429
 17 C     0.01684   -0.01082   -0.00537
 18 C    -0.00353   -0.00978   -0.01369
 19 C     0.01081    0.04266    0.03525
 20 C    -0.04741   -0.01839   -0.03088
 21 C     0.05019    0.03561   -0.04944
 22 C     0.06162    0.01844   -0.01039
 23 C    -0.05769    0.01421   -0.03075

