
  ___ ___ ___ _ _ _  
 |   |   |_  | | | | 
 | | | | | . | | | | 
 |__ |  _|___|_____|  1.3.0b1
 |___|_|             

User:   esb@s65n33.grendel.cscaa.dk
Date:   Thu Nov  9 09:42:26 2017
Arch:   x86_64
Pid:    74088
Python: 2.7.13
gpaw:   /home/esb/DFT/gpaw_git/gpaw
_gpaw:  /home/esb/DFT/gpaw_git/build/bin.linux-x86_64-2.7/gpaw-python
ase:    /home/esb/DFT/ase_git/ase (version 3.15.0b1)
numpy:  /comm/swstack/core/python/2.7.13/lib/python2.7/site-packages/numpy (version 1.13.3)
scipy:  /comm/swstack/core/python/2.7.13/lib/python2.7/site-packages/scipy (version 0.19.1)
units:  Angstrom and eV
cores:  16
Extra parameters: {'blacs': True}

Input parameters:
  basis: dzp
  gpts: [80 80 48]
  kpts: [1 1 1]
  maxiter: 99
  mixer: {backend: pulay,
          beta: 0.05,
          method: separate,
          nmaxold: 5,
          weight: 75}
  mode: lcao
  nbands: -50
  occupations: {name: fermi-dirac,
                width: 0.1}
  poissonsolver: {eps: 1e-07,
                  name: fd,
                  nn: 3,
                  relax: GS}
  xc: PBE

System changes: positions, numbers, cell, pbc, initial_charges, initial_magmoms 

Initialize ...

C-setup:
  name: Carbon
  id: 4aa54d4b901d75f77cc0ea3eec22967b
  Z: 6
  valence: 4
  core: 2
  charge: 0.0
  file: /home/esb/DFT/gpaw-setups-0.8.7929/C.PBE.gz
  cutoffs: 0.64(comp), 1.14(filt), 1.14(core), lmax=2
  valence states:
                energy  radius
    2s(2.00)   -13.751   0.635
    2p(2.00)    -5.284   0.635
    *s          13.461   0.635
    *p          21.927   0.635
    *d           0.000   0.635

  LCAO basis set for C:
    Name: dzp
    File: /home/esb/DFT/gpaw-setups-0.8.7929/C.dzp.basis.gz
    Number of radial functions: 5
    Number of spherical harmonics: 13
      l=0, rc=5.5469 Bohr: 2s-sz confined orbital
      l=1, rc=6.6719 Bohr: 2p-sz confined orbital
      l=0, rc=3.0312 Bohr: 2s-dz split-valence wave
      l=1, rc=3.7500 Bohr: 2p-dz split-valence wave
      l=2, rc=6.6719 Bohr: d-type Gaussian polarization

Reference energy: -24663.074771

Spin-paired calculation

Occupation numbers:
  Fermi-Dirac: width=0.1000 eV

Convergence criteria:
  Maximum total energy change: 0.0005 eV / electron
  Maximum integral of absolute density change: 0.0001 electrons
  Maximum integral of absolute eigenstate change: 4e-08 eV^2
  Maximum number of iterations: 99

Symmetries present (total): 1

  ( 1  0  0)
  ( 0  1  0)
  ( 0  0  1)

1 k-point (Gamma)
1 k-point in the irreducible part of the Brillouin zone
       k-points in crystal coordinates                weights
   0:     0.00000000    0.00000000    0.00000000          1/1

Wave functions: LCAO
  Diagonalizer: Serial LAPACK
  Atomic Correction: dense with blas
  Datatype: float
  Eigensolver: None 

LCAO using direct dense diagonalizer 

Densities:
  Coarse grid: 80*80*48 grid
  Fine grid: 160*160*96 grid
  Total Charge: 0.000000 

Density mixing:
  Method: separate
  Backend: pulay
  Linear mixing parameter: 0.05
  Mixing with 5 old densities
  Damping of long wave oscillations: 75 

Hamiltonian:
  XC and Coulomb potentials evaluated on a 160*160*96 grid
  Using the PBE Exchange-Correlation functional
  Interpolation: tri-quintic (5. degree polynomial)
  Poisson solver: Gauss-Seidel solver with 6 multi-grid levels
    Coarsest grid: 5 x 5 x 3 points
    Stencil: 6*3+1=19 point O(h^6) finite-difference Laplacian
    Max iterations: 1000
    Tolerance: 1.000000e-07 

Memory estimate:
  Process memory now: 77.57 MiB
  Calculator: 15.59 MiB
    Density: 6.13 MiB
      Arrays: 3.81 MiB
      Localized functions: 0.86 MiB
      Mixer: 1.46 MiB
    Hamiltonian: 5.40 MiB
      Arrays: 2.49 MiB
      XC: 0.00 MiB
      Poisson: 2.85 MiB
      vbar: 0.07 MiB
    Wavefunctions: 4.05 MiB
      C [qnM]: 0.23 MiB
      S, T [2 x qmm]: 1.49 MiB
      P [aqMi]: 0.01 MiB
      TCI: 0.00 MiB
      BasisFunctions: 2.33 MiB
      Eigensolver: 0.00 MiB

Total number of cores used: 16
Domain decomposition: 2 x 4 x 2

Number of atoms: 24
Number of atomic orbitals: 312
Number of bands in calculation: 98
Bands to converge: occupied states only
Number of valence electrons: 96

... initialized

Initializing position-dependent things.

Density initialized from atomic densities
           .--------------------------------------.  
          /|                                      |  
         / |                                      |  
        /  |                                      |  
       /   |                                      |  
      /    |                                      |  
     /     |                                      |  
    /      |                                      |  
   /       |                                      |  
  /        |           C  CC  C                   |  
 *         |         C  C C  C C                  |  
 |         | C           C  C   CC                |  
 |         .-------C-C--------C-C-----------------.  
 |        /    C     C        C                  /   
 |       /             C  C                     /    
 |      /                                      /     
 |     /                                      /      
 |    /                                      /       
 |   /                                      /        
 |  /                                      /         
 | /                                      /          
 |/                                      /           
 *--------------------------------------*            

Positions:
   0 C      7.547506    9.927920    6.079185
   1 C      6.292227    9.906462    5.955954
   2 C     10.726437    5.232759    5.649679
   3 C      9.804456    8.588518    6.205694
   4 C      5.821230    6.144205    5.530180
   5 C      8.231229    3.193640    5.166810
   6 C      7.623718    7.619452    5.783774
   7 C      9.566873    6.171946    5.751354
   8 C      8.187501    6.278243    5.673598
   9 C      6.199631    7.574717    5.690599
  10 C      7.020895    3.892263    5.339407
  11 C      9.489486    3.319451    5.320676
  12 C     10.382163    7.408801    6.006993
  13 C      8.422937    8.818233    6.022144
  14 C     11.454974    6.415528    5.935323
  15 C      7.030295    5.348430    5.504043
  16 C     10.697761    3.903902    5.296983
  17 C     10.366398    9.405956    4.387809
  18 C     10.796407    8.178112    4.309688
  19 C      9.878865    7.165717    4.772173
  20 C      7.809452   10.175471    4.986225
  21 C      9.016181    9.454922    4.850008
  22 C      4.722877    4.250913    5.396976
  23 C      3.405582    6.559922    5.598811

Unit cell:
           periodic     x           y           z      points  spacing
  1. axis:    yes   16.000000    0.000000    0.000000    80     0.2000
  2. axis:    yes    0.000000   16.000000    0.000000    80     0.2000
  3. axis:    yes    0.000000    0.000000   10.000000    48     0.2083

Effective grid spacing dv^(1/3) = 0.2027

                     log10-error:    total        iterations:
           time      wfs    density  energy       fermi  poisson
iter:   1  09:42:28          +inf  -157.246833    2      6      
iter:   2  09:42:28         -0.85  -153.428930    33     3      
iter:   3  09:42:29         -0.92  -155.437041    5      3      
iter:   4  09:42:30         -0.81  -152.276317    4      2      
iter:   5  09:42:30         -0.92  -152.178949    3      2      
iter:   6  09:42:31         -0.93  -151.190145    4      3      
iter:   7  09:42:32         -1.05  -150.249263    4      3      
iter:   8  09:42:32         -1.18  -149.905690    4      3      
iter:   9  09:42:33         -1.42  -149.916062    4      3      
iter:  10  09:42:34         -1.56  -149.837072    3      2      
iter:  11  09:42:34         -1.72  -149.827479    3      3      
iter:  12  09:42:35         -1.89  -149.821496    3      2      
iter:  13  09:42:36         -1.95  -149.807760    3      2      
iter:  14  09:42:36         -2.10  -149.795926    3      2      
iter:  15  09:42:37         -2.26  -149.792132    3      2      
iter:  16  09:42:37         -2.47  -149.790156    3      2      
iter:  17  09:42:38         -2.60  -149.787911    3      2      
iter:  18  09:42:39         -2.76  -149.788877    2      2      
iter:  19  09:42:39         -2.81  -149.794117    2      1      
iter:  20  09:42:40         -2.87  -149.796466    2      1      
iter:  21  09:42:41         -2.99  -149.790105    3      2      
iter:  22  09:42:41         -3.23  -149.792089    2      1      
iter:  23  09:42:42         -3.33  -149.789805    2      1      
iter:  24  09:42:42         -3.42  -149.788206    2      1      
iter:  25  09:42:43         -3.48  -149.787235    3      1      
iter:  26  09:42:44         -3.85  -149.789156    2      1      
iter:  27  09:42:44         -4.04  -149.788222    2      1      

Converged after 27 iterations.

Dipole moment: (-0.027811, -0.301938, 0.340688) |e|*Ang

Energy contributions relative to reference atoms: (reference = -24663.074771)

Kinetic:       +178.448099
Potential:     -154.890152
External:        +0.000000
XC:            -175.934685
Entropy (-ST):   -0.550798
Local:           +2.863914
--------------------------
Free energy:   -150.063621
Extrapolated:  -149.788222

Fermi level: -4.46626

 Band  Eigenvalues  Occupancy
    0    -27.61044    2.00000
    1    -26.42338    2.00000
    2    -23.28892    2.00000
    3    -22.09840    2.00000
    4    -20.98621    2.00000
    5    -20.67000    2.00000
    6    -19.86582    2.00000
    7    -19.26421    2.00000
    8    -19.20051    2.00000
    9    -18.03247    2.00000
   10    -17.81894    2.00000
   11    -16.82422    2.00000
   12    -16.23337    2.00000
   13    -15.45890    2.00000
   14    -15.00925    2.00000
   15    -14.85817    2.00000
   16    -14.18298    2.00000
   17    -13.64902    2.00000
   18    -13.52113    2.00000
   19    -12.88212    2.00000
   20    -12.74970    2.00000
   21    -12.59783    2.00000
   22    -11.99494    2.00000
   23    -11.86164    2.00000
   24    -11.59365    2.00000
   25    -11.51056    2.00000
   26    -11.43018    2.00000
   27    -10.66574    2.00000
   28    -10.47493    2.00000
   29     -9.92585    2.00000
   30     -9.33328    2.00000
   31     -8.95010    2.00000
   32     -8.74635    2.00000
   33     -8.23171    2.00000
   34     -7.89358    2.00000
   35     -7.72894    2.00000
   36     -7.28297    2.00000
   37     -7.09457    2.00000
   38     -6.84264    2.00000
   39     -6.51439    2.00000
   40     -5.99910    2.00000
   41     -5.82597    2.00000
   42     -5.39895    1.99982
   43     -5.08468    1.99588
   44     -5.06358    1.99492
   45     -4.85612    1.96026
   46     -4.63941    1.69920
   47     -4.48365    1.08671
   48     -4.40374    0.69717
   49     -4.32512    0.39202
   50     -4.19328    0.12247
   51     -4.07031    0.03743
   52     -3.94924    0.01130
   53     -3.80933    0.00280
   54     -3.10384    0.00000
   55     -2.67156    0.00000
   56     -2.38380    0.00000
   57     -2.22214    0.00000
   58     -1.82947    0.00000
   59     -1.76747    0.00000
   60     -1.29724    0.00000
   61     -1.12994    0.00000
   62     -0.68366    0.00000
   63     -0.15842    0.00000
   64      0.40388    0.00000
   65      1.02876    0.00000
   66      1.20362    0.00000
   67      1.64187    0.00000
   68      2.48104    0.00000
   69      2.80921    0.00000
   70      3.55145    0.00000
   71      4.36221    0.00000
   72      4.90220    0.00000
   73      5.07520    0.00000
   74      5.29921    0.00000
   75      6.07847    0.00000
   76      6.40947    0.00000
   77      6.50892    0.00000
   78      6.76341    0.00000
   79      7.12127    0.00000
   80      7.19242    0.00000
   81      7.56860    0.00000
   82      7.74258    0.00000
   83      8.05792    0.00000
   84      8.26552    0.00000
   85      8.41433    0.00000
   86      8.50998    0.00000
   87      8.55608    0.00000
   88      8.82087    0.00000
   89      9.14283    0.00000
   90      9.27260    0.00000
   91      9.41267    0.00000
   92      9.49119    0.00000
   93      9.55404    0.00000
   94      9.68601    0.00000
   95      9.79325    0.00000
   96     10.00656    0.00000
   97     10.07140    0.00000


Forces in eV/Ang:
  0 C     1.85232   -3.75274   24.26086
  1 C    -9.39624   -0.22641   -2.22877
  2 C     0.68113    0.20321    0.18554
  3 C    -1.15383    4.81128    5.16254
  4 C    -1.97392    0.84997    0.34052
  5 C    -4.08443    1.06271    0.21778
  6 C    -0.92947   -2.28451   -0.12485
  7 C    -1.06184   -2.60633   -0.54208
  8 C    -4.99275   -0.69444    1.08022
  9 C     0.23061   -0.45556   -0.07863
 10 C     1.14773    1.12749   -0.03151
 11 C     1.77364    0.29769   -0.23395
 12 C     2.26551   -3.51681    7.24363
 13 C    -0.37960   -5.89653    5.61945
 14 C     3.76140   -0.44897    1.14190
 15 C     1.45746   -1.00570    0.13268
 16 C    -0.42769   -0.44672    0.36131
 17 C    -3.39010    4.18332   -0.56896
 18 C     1.81713   -4.30519   -4.16183
 19 C     1.72177    0.20052   -8.80369
 20 C     3.71177    8.14872  -22.68738
 21 C     3.48306    3.63370   -6.34614
 22 C     1.31441    2.93693    0.15768
 23 C     2.65686   -1.87127   -0.22095

System changes: positions 

Initializing position-dependent things.

Density initialized from wave functions
           .--------------------------------------.  
          /|                                      |  
         / |                                      |  
        /  |                                      |  
       /   |                                      |  
      /    |                                      |  
     /     |                                      |  
    /      |                                      |  
   /       |              C                       |  
  /        |          C    C  C                   |  
 *         |         C  C C  C C                  |  
 |         | C           C  C   CC                |  
 |         .-------C-C--------C-C-----------------.  
 |        /    C     C        C                  /   
 |       /             C  C                     /    
 |      /                                      /     
 |     /                                      /      
 |    /                                      /       
 |   /                                      /        
 |  /                                      /         
 | /                                      /          
 |/                                      /           
 *--------------------------------------*            

Positions:
   0 C      7.550515    9.921823    6.118603
   1 C      6.276960    9.906094    5.952333
   2 C     10.727544    5.233089    5.649980
   3 C      9.802581    8.596335    6.214081
   4 C      5.818023    6.145586    5.530734
   5 C      8.224593    3.195367    5.167164
   6 C      7.622208    7.615740    5.783571
   7 C      9.565147    6.167711    5.750473
   8 C      8.179390    6.277114    5.675353
   9 C      6.200006    7.573977    5.690472
  10 C      7.022760    3.894095    5.339356
  11 C      9.492368    3.319934    5.320296
  12 C     10.385843    7.403087    6.018762
  13 C      8.422320    8.808652    6.031274
  14 C     11.461085    6.414799    5.937178
  15 C      7.032663    5.346796    5.504258
  16 C     10.697066    3.903176    5.297570
  17 C     10.360890    9.412753    4.386885
  18 C     10.799360    8.171117    4.302926
  19 C      9.881663    7.166043    4.757869
  20 C      7.815483   10.188711    4.949364
  21 C      9.021840    9.460826    4.839697
  22 C      4.725013    4.255684    5.397232
  23 C      3.409899    6.556881    5.598452

Unit cell:
           periodic     x           y           z      points  spacing
  1. axis:    yes   16.000000    0.000000    0.000000    80     0.2000
  2. axis:    yes    0.000000   16.000000    0.000000    80     0.2000
  3. axis:    yes    0.000000    0.000000   10.000000    48     0.2083

Effective grid spacing dv^(1/3) = 0.2027

                     log10-error:    total        iterations:
           time      wfs    density  energy       fermi  poisson
iter:   1  09:42:46          +inf  -152.360153    3      5      
iter:   2  09:42:47         -1.89  -152.309279    3      2      
iter:   3  09:42:48         -1.97  -152.293240    2      2      
iter:   4  09:42:48         -2.20  -152.280126    3      2      
iter:   5  09:42:49         -2.33  -152.271144    3      2      
iter:   6  09:42:50         -2.44  -152.265381    3      2      
iter:   7  09:42:50         -2.66  -152.261109    3      2      
iter:   8  09:42:51         -2.76  -152.260782    2      2      
iter:   9  09:42:51         -2.84  -152.261147    2      2      
iter:  10  09:42:52         -3.14  -152.261710    2      1      
iter:  11  09:42:53         -3.22  -152.262407    2      1      
iter:  12  09:42:53         -3.35  -152.261233    2      1      
iter:  13  09:42:54         -3.48  -152.260357    2      1      
iter:  14  09:42:54         -3.71  -152.259759    2      1      
iter:  15  09:42:55         -3.81  -152.259514    2      1      
iter:  16  09:42:56         -3.99  -152.259652    2      1      
iter:  17  09:42:56         -4.06  -152.259664    2      1      

Converged after 17 iterations.

Dipole moment: (-0.031929, -0.347712, 0.330320) |e|*Ang

Energy contributions relative to reference atoms: (reference = -24663.074771)

Kinetic:       +161.976761
Potential:     -143.816490
External:        +0.000000
XC:            -173.003537
Entropy (-ST):   -0.529174
Local:           +2.848189
--------------------------
Free energy:   -152.524251
Extrapolated:  -152.259664

Fermi level: -4.48072

 Band  Eigenvalues  Occupancy
    0    -27.39083    2.00000
    1    -25.99498    2.00000
    2    -23.06963    2.00000
    3    -22.08369    2.00000
    4    -20.85736    2.00000
    5    -20.56659    2.00000
    6    -19.80666    2.00000
    7    -19.23405    2.00000
    8    -19.15818    2.00000
    9    -17.94833    2.00000
   10    -17.71328    2.00000
   11    -16.83495    2.00000
   12    -16.15678    2.00000
   13    -15.48097    2.00000
   14    -14.99762    2.00000
   15    -14.78534    2.00000
   16    -14.17798    2.00000
   17    -13.62265    2.00000
   18    -13.37056    2.00000
   19    -12.87252    2.00000
   20    -12.73489    2.00000
   21    -12.55106    2.00000
   22    -11.98480    2.00000
   23    -11.83163    2.00000
   24    -11.53496    2.00000
   25    -11.48804    2.00000
   26    -11.32282    2.00000
   27    -10.62689    2.00000
   28    -10.46313    2.00000
   29     -9.89600    2.00000
   30     -9.17514    2.00000
   31     -8.94119    2.00000
   32     -8.68664    2.00000
   33     -8.22401    2.00000
   34     -7.95902    2.00000
   35     -7.74036    2.00000
   36     -7.28139    2.00000
   37     -7.07486    2.00000
   38     -6.85628    2.00000
   39     -6.50526    2.00000
   40     -6.02949    2.00000
   41     -5.83143    2.00000
   42     -5.42961    1.99985
   43     -5.13457    1.99711
   44     -5.07570    1.99480
   45     -4.89887    1.96991
   46     -4.66664    1.73040
   47     -4.50974    1.14410
   48     -4.40048    0.61900
   49     -4.33540    0.37903
   50     -4.20221    0.11626
   51     -4.08072    0.03597
   52     -3.96286    0.01121
   53     -3.80639    0.00235
   54     -3.10457    0.00000
   55     -2.68548    0.00000
   56     -2.30501    0.00000
   57     -2.21537    0.00000
   58     -1.82569    0.00000
   59     -1.79217    0.00000
   60     -1.34784    0.00000
   61     -1.19212    0.00000
   62     -0.79061    0.00000
   63     -0.31461    0.00000
   64      0.38546    0.00000
   65      0.84178    0.00000
   66      1.18257    0.00000
   67      1.61085    0.00000
   68      2.44855    0.00000
   69      2.78710    0.00000
   70      3.54016    0.00000
   71      4.31654    0.00000
   72      4.71157    0.00000
   73      5.06681    0.00000
   74      5.23500    0.00000
   75      6.07641    0.00000
   76      6.46242    0.00000
   77      6.54455    0.00000
   78      6.77028    0.00000
   79      7.01664    0.00000
   80      7.19786    0.00000
   81      7.55647    0.00000
   82      7.74654    0.00000
   83      8.02051    0.00000
   84      8.15794    0.00000
   85      8.37723    0.00000
   86      8.48428    0.00000
   87      8.50444    0.00000
   88      8.81212    0.00000
   89      9.14300    0.00000
   90      9.21020    0.00000
   91      9.39501    0.00000
   92      9.46755    0.00000
   93      9.52407    0.00000
   94      9.66479    0.00000
   95      9.71868    0.00000
   96      9.97003    0.00000
   97     10.04610    0.00000


Forces in eV/Ang:
  0 C     2.05113   -1.60343   14.98256
  1 C    -7.07525   -0.28006   -2.06089
  2 C     0.71258    0.24837    0.20563
  3 C    -0.60026    4.05210    4.80718
  4 C    -1.88992    0.72014    0.33931
  5 C    -3.43287    1.03321    0.25631
  6 C    -0.89273   -2.22807   -0.07561
  7 C    -1.17188   -2.17266   -0.75663
  8 C    -4.44320   -0.85725    1.09352
  9 C     0.06711   -0.42865   -0.09072
 10 C     1.11029    1.07138   -0.03884
 11 C     1.20343    0.19954   -0.29219
 12 C     1.60822   -3.07663    6.18602
 13 C    -0.41110   -5.15016    4.74391
 14 C     3.61322   -0.51698    1.14678
 15 C     1.17995   -0.85626    0.17586
 16 C    -0.40711   -0.43819    0.33990
 17 C    -2.78611    3.55658   -0.57840
 18 C     1.44839   -3.70005   -3.83460
 19 C     1.95150    0.12570   -7.60053
 20 C     1.58450    5.74092  -13.54790
 21 C     2.62576    3.40500   -5.37954
 22 C     1.25637    2.99774    0.16288
 23 C     2.70061   -1.91229   -0.22036

System changes: positions 

Initializing position-dependent things.

Density initialized from wave functions
           .--------------------------------------.  
          /|                                      |  
         / |                                      |  
        /  |                                      |  
       /   |                                      |  
      /    |                                      |  
     /     |                                      |  
    /      |                                      |  
   /       |              C                       |  
  /        |          C    C  C                   |  
 *         |         C  C C  C C                  |  
 |         | C           C  C   CC                |  
 |         .-------C-C--------C-C-----------------.  
 |        /    C     C        C                  /   
 |       /             C  C                     /    
 |      /                                      /     
 |     /                                      /      
 |    /                                      /       
 |   /                                      /        
 |  /                                      /         
 | /                                      /          
 |/                                      /           
 *--------------------------------------*            

Positions:
   0 C      7.564753    9.928799    6.138302
   1 C      6.251469    9.903941    5.940916
   2 C     10.732195    5.234979    5.651409
   3 C      9.803221    8.615413    6.240998
   4 C      5.807003    6.149017    5.532821
   5 C      8.208497    3.201521    5.169050
   6 C      7.616979    7.602414    5.783491
   7 C      9.557041    6.157691    5.744112
   8 C      8.156247    6.270537    5.682216
   9 C      6.199136    7.571540    5.689816
  10 C      7.029327    3.900275    5.339058
  11 C      9.495326    3.320396    5.318032
  12 C     10.390618    7.387531    6.048683
  13 C      8.419532    8.782688    6.053713
  14 C     11.482251    6.411069    5.944303
  15 C      7.037775    5.342678    5.505685
  16 C     10.694712    3.900535    5.299503
  17 C     10.348417    9.429809    4.383236
  18 C     10.805414    8.153005    4.281798
  19 C      9.895528    7.166232    4.720350
  20 C      7.808562   10.205274    4.937441
  21 C      9.031332    9.480072    4.814045
  22 C      4.732321    4.274689    5.398279
  23 C      3.426933    6.544741    5.597095

Unit cell:
           periodic     x           y           z      points  spacing
  1. axis:    yes   16.000000    0.000000    0.000000    80     0.2000
  2. axis:    yes    0.000000   16.000000    0.000000    80     0.2000
  3. axis:    yes    0.000000    0.000000   10.000000    48     0.2083

Effective grid spacing dv^(1/3) = 0.2027

                     log10-error:    total        iterations:
           time      wfs    density  energy       fermi  poisson
iter:   1  09:42:58          +inf  -155.147884    3      5      
iter:   2  09:42:59         -1.51  -154.837729    3      2      
iter:   3  09:43:00         -1.72  -154.758413    3      2      
iter:   4  09:43:00         -1.97  -154.731918    3      2      
iter:   5  09:43:01         -2.11  -154.715059    3      2      
iter:   6  09:43:02         -2.23  -154.706246    3      2      
iter:   7  09:43:02         -2.38  -154.700552    3      2      
iter:   8  09:43:03         -2.59  -154.699795    3      2      
iter:   9  09:43:03         -2.73  -154.701940    2      1      
iter:  10  09:43:04         -2.88  -154.698505    2      2      
iter:  11  09:43:05         -3.10  -154.700993    2      1      
iter:  12  09:43:05         -3.20  -154.702714    2      1      
iter:  13  09:43:06         -3.34  -154.700128    2      1      
iter:  14  09:43:07         -3.58  -154.698979    2      1      
iter:  15  09:43:07         -3.70  -154.698219    2      1      
iter:  16  09:43:08         -3.80  -154.697219    2      1      
iter:  17  09:43:08         -4.06  -154.697656    1      1      

Converged after 17 iterations.

Dipole moment: (-0.039908, -0.390579, 0.286273) |e|*Ang

Energy contributions relative to reference atoms: (reference = -24663.074771)

Kinetic:       +143.906083
Potential:     -131.798406
External:        +0.000000
XC:            -169.375925
Entropy (-ST):   -0.473354
Local:           +2.807269
--------------------------
Free energy:   -154.934333
Extrapolated:  -154.697656

Fermi level: -4.49922

 Band  Eigenvalues  Occupancy
    0    -26.84290    2.00000
    1    -25.45145    2.00000
    2    -22.70785    2.00000
    3    -22.08350    2.00000
    4    -20.75096    2.00000
    5    -20.36240    2.00000
    6    -19.66415    2.00000
    7    -19.18848    2.00000
    8    -19.01914    2.00000
    9    -17.84933    2.00000
   10    -17.49844    2.00000
   11    -16.86966    2.00000
   12    -16.05090    2.00000
   13    -15.46159    2.00000
   14    -14.99591    2.00000
   15    -14.57130    2.00000
   16    -14.14958    2.00000
   17    -13.55115    2.00000
   18    -13.22972    2.00000
   19    -12.79729    2.00000
   20    -12.69805    2.00000
   21    -12.49107    2.00000
   22    -11.96782    2.00000
   23    -11.79537    2.00000
   24    -11.38995    2.00000
   25    -11.36405    2.00000
   26    -11.21597    2.00000
   27    -10.58794    2.00000
   28    -10.40541    2.00000
   29     -9.84545    2.00000
   30     -9.12564    2.00000
   31     -8.92748    2.00000
   32     -8.61922    2.00000
   33     -8.21811    2.00000
   34     -8.06708    2.00000
   35     -7.74195    2.00000
   36     -7.31256    2.00000
   37     -7.05525    2.00000
   38     -6.87339    2.00000
   39     -6.48845    2.00000
   40     -6.04885    2.00000
   41     -5.80752    2.00000
   42     -5.47214    1.99988
   43     -5.20157    1.99822
   44     -5.08980    1.99457
   45     -4.92576    1.97230
   46     -4.70962    1.78259
   47     -4.56848    1.33308
   48     -4.37094    0.43415
   49     -4.34622    0.35600
   50     -4.19179    0.08836
   51     -4.07815    0.02924
   52     -3.97106    0.01012
   53     -3.77958    0.00150
   54     -3.12527    0.00000
   55     -2.67286    0.00000
   56     -2.24192    0.00000
   57     -2.16186    0.00000
   58     -1.83886    0.00000
   59     -1.75600    0.00000
   60     -1.41513    0.00000
   61     -1.28481    0.00000
   62     -0.96671    0.00000
   63     -0.50210    0.00000
   64      0.31947    0.00000
   65      0.79386    0.00000
   66      1.16720    0.00000
   67      1.52048    0.00000
   68      2.38300    0.00000
   69      2.74396    0.00000
   70      3.42738    0.00000
   71      4.05719    0.00000
   72      4.54322    0.00000
   73      4.99036    0.00000
   74      5.12107    0.00000
   75      6.07891    0.00000
   76      6.44587    0.00000
   77      6.64033    0.00000
   78      6.78543    0.00000
   79      6.92025    0.00000
   80      7.18467    0.00000
   81      7.48593    0.00000
   82      7.64595    0.00000
   83      7.97434    0.00000
   84      8.06881    0.00000
   85      8.35318    0.00000
   86      8.39651    0.00000
   87      8.45655    0.00000
   88      8.80454    0.00000
   89      9.04252    0.00000
   90      9.19226    0.00000
   91      9.35452    0.00000
   92      9.45649    0.00000
   93      9.50619    0.00000
   94      9.66475    0.00000
   95      9.67484    0.00000
   96      9.94995    0.00000
   97      9.99952    0.00000


Forces in eV/Ang:
  0 C     0.60059   -1.54268   11.46026
  1 C    -4.32011   -0.32007   -1.78204
  2 C     0.73050    0.31023    0.28587
  3 C     0.14171    2.50673    4.17145
  4 C    -1.76346    0.39432    0.27225
  5 C    -2.18729    0.89206    0.29450
  6 C    -0.81649   -1.79774    0.08631
  7 C    -1.28128   -1.21824   -1.24998
  8 C    -2.93597   -1.11470    1.01587
  9 C    -0.14483   -0.18969   -0.10069
 10 C     0.97876    0.93230   -0.03313
 11 C     0.37438    0.07338   -0.38547
 12 C     0.53163   -2.11459    3.96789
 13 C    -0.21701   -3.71772    3.58985
 14 C     2.96536   -0.59527    1.07205
 15 C     0.47140   -0.55218    0.23074
 16 C    -0.49021   -0.41401    0.32308
 17 C    -1.97340    2.32025   -0.71235
 18 C     0.77192   -2.38617   -3.08439
 19 C     2.36641   -0.20107   -5.06653
 20 C     0.86812    4.72170  -10.51232
 21 C     1.51374    2.83551   -3.87088
 22 C     1.04434    3.25571    0.18553
 23 C     2.81227   -2.05187   -0.23500

System changes: positions 

Initializing position-dependent things.

Density initialized from wave functions
           .--------------------------------------.  
          /|                                      |  
         / |                                      |  
        /  |                                      |  
       /   |                                      |  
      /    |                                      |  
     /     |                                      |  
    /      |                                      |  
   /       |              C                       |  
  /        |          C    C  C                   |  
 *         |         C  C C  C C                  |  
 |         |  C          C  C   CC                |  
 |         .-------C-C--------C-C-----------------.  
 |        /    C     C       C                   /   
 |       /             C  C                     /    
 |      /                                      /     
 |     /                                      /      
 |    /                                      /       
 |   /                                      /        
 |  /                                      /         
 | /                                      /          
 |/                                      /           
 *--------------------------------------*            

Positions:
   0 C      7.565321    9.930734    6.162130
   1 C      6.240050    9.900128    5.925806
   2 C     10.739822    5.238732    5.654809
   3 C      9.812606    8.626955    6.276749
   4 C      5.790678    6.150350    5.535205
   5 C      8.197843    3.209509    5.172480
   6 C      7.609489    7.586995    5.785525
   7 C      9.542851    6.153577    5.727552
   8 C      8.138576    6.256878    5.692086
   9 C      6.195371    7.571013    5.688667
  10 C      7.038165    3.908464    5.338697
  11 C      9.490539    3.319742    5.313273
  12 C     10.385516    7.374559    6.069195
  13 C      8.418053    8.758412    6.077032
  14 C     11.507547    6.404211    5.954682
  15 C      7.036860    5.339819    5.508595
  16 C     10.689581    3.896587    5.302476
  17 C     10.337432    9.442031    4.375405
  18 C     10.806930    8.140328    4.257228
  19 C      9.922972    7.162055    4.691551
  20 C      7.796905   10.228394    4.919624
  21 C      9.034277    9.503812    4.790355
  22 C      4.741261    4.308912    5.400282
  23 C      3.455889    6.523261    5.594683

Unit cell:
           periodic     x           y           z      points  spacing
  1. axis:    yes   16.000000    0.000000    0.000000    80     0.2000
  2. axis:    yes    0.000000   16.000000    0.000000    80     0.2000
  3. axis:    yes    0.000000    0.000000   10.000000    48     0.2083

Effective grid spacing dv^(1/3) = 0.2027

                     log10-error:    total        iterations:
           time      wfs    density  energy       fermi  poisson
iter:   1  09:43:10          +inf  -157.401854    3      5      
iter:   2  09:43:11         -1.44  -156.835228    3      2      
iter:   3  09:43:12         -1.74  -156.761897    3      2      
iter:   4  09:43:12         -1.97  -156.729959    3      2      
iter:   5  09:43:13         -2.14  -156.713980    3      2      
iter:   6  09:43:14         -2.28  -156.707559    2      2      
iter:   7  09:43:14         -2.40  -156.703865    2      2      
iter:   8  09:43:15         -2.61  -156.702956    2      2      
iter:   9  09:43:16         -2.75  -156.703203    2      2      
iter:  10  09:43:16         -2.96  -156.702891    2      2      
iter:  11  09:43:17         -3.15  -156.705988    2      1      
iter:  12  09:43:17         -3.30  -156.704426    2      1      
iter:  13  09:43:18         -3.39  -156.704211    2      1      
iter:  14  09:43:19         -3.55  -156.703966    2      1      
iter:  15  09:43:19         -3.72  -156.703065    2      1      
iter:  16  09:43:20         -3.83  -156.702624    2      1      
iter:  17  09:43:20         -3.94  -156.702113    2      1      
iter:  18  09:43:21         -4.04  -156.702035    2      1      

Converged after 18 iterations.

Dipole moment: (-0.060742, -0.445252, 0.235711) |e|*Ang

Energy contributions relative to reference atoms: (reference = -24663.074771)

Kinetic:       +129.624099
Potential:     -122.396555
External:        +0.000000
XC:            -166.537578
Entropy (-ST):   -0.428658
Local:           +2.822327
--------------------------
Free energy:   -156.916364
Extrapolated:  -156.702035

Fermi level: -4.53053

 Band  Eigenvalues  Occupancy
    0    -26.37637    2.00000
    1    -24.88428    2.00000
    2    -22.39596    2.00000
    3    -22.04915    2.00000
    4    -20.71669    2.00000
    5    -20.18167    2.00000
    6    -19.57707    2.00000
    7    -19.11282    2.00000
    8    -18.92896    2.00000
    9    -17.78948    2.00000
   10    -17.33110    2.00000
   11    -16.89419    2.00000
   12    -16.02575    2.00000
   13    -15.43427    2.00000
   14    -14.98697    2.00000
   15    -14.44528    2.00000
   16    -14.11031    2.00000
   17    -13.47887    2.00000
   18    -13.13858    2.00000
   19    -12.71855    2.00000
   20    -12.64464    2.00000
   21    -12.43747    2.00000
   22    -11.94268    2.00000
   23    -11.72908    2.00000
   24    -11.29574    2.00000
   25    -11.18068    2.00000
   26    -11.06371    2.00000
   27    -10.53199    2.00000
   28    -10.30320    2.00000
   29     -9.80337    2.00000
   30     -9.14357    2.00000
   31     -8.91414    2.00000
   32     -8.57193    2.00000
   33     -8.24969    2.00000
   34     -8.12732    2.00000
   35     -7.75525    2.00000
   36     -7.38317    2.00000
   37     -7.02529    2.00000
   38     -6.87244    2.00000
   39     -6.49138    2.00000
   40     -6.06280    2.00000
   41     -5.81229    1.99999
   42     -5.55103    1.99993
   43     -5.28483    1.99894
   44     -5.10301    1.99349
   45     -4.95943    1.97293
   46     -4.74304    1.78663
   47     -4.63504    1.47964
   48     -4.37907    0.36052
   49     -4.36355    0.31690
   50     -4.18887    0.06356
   51     -4.06807    0.01942
   52     -3.96829    0.00721
   53     -3.75289    0.00084
   54     -3.05885    0.00000
   55     -2.66590    0.00000
   56     -2.18254    0.00000
   57     -2.07253    0.00000
   58     -1.91765    0.00000
   59     -1.64278    0.00000
   60     -1.41091    0.00000
   61     -1.33031    0.00000
   62     -1.02562    0.00000
   63     -0.66325    0.00000
   64      0.20426    0.00000
   65      0.76606    0.00000
   66      1.15770    0.00000
   67      1.43506    0.00000
   68      2.38728    0.00000
   69      2.66909    0.00000
   70      3.25212    0.00000
   71      3.91136    0.00000
   72      4.51048    0.00000
   73      4.95089    0.00000
   74      5.05881    0.00000
   75      6.04858    0.00000
   76      6.46496    0.00000
   77      6.58791    0.00000
   78      6.72059    0.00000
   79      6.90907    0.00000
   80      7.15894    0.00000
   81      7.42744    0.00000
   82      7.60794    0.00000
   83      7.94664    0.00000
   84      7.99687    0.00000
   85      8.25569    0.00000
   86      8.35768    0.00000
   87      8.49098    0.00000
   88      8.80452    0.00000
   89      8.94773    0.00000
   90      9.22368    0.00000
   91      9.32474    0.00000
   92      9.47116    0.00000
   93      9.49485    0.00000
   94      9.65742    0.00000
   95      9.69946    0.00000
   96      9.91995    0.00000
   97      9.93440    0.00000


Forces in eV/Ang:
  0 C     0.67294   -1.48125    7.75818
  1 C    -3.18369   -0.32708   -1.61854
  2 C     0.51216    0.21020    0.27791
  3 C     0.01397    1.63971    3.67350
  4 C    -1.69798    0.08887    0.24889
  5 C    -1.81908    0.70824    0.25881
  6 C    -0.71507   -1.39794    0.28884
  7 C    -0.82777   -0.88081   -1.41613
  8 C    -2.15473   -1.00626    0.82460
  9 C    -0.21352   -0.04003   -0.10291
 10 C     0.82659    0.76202   -0.06978
 11 C     0.57552    0.12864   -0.37526
 12 C     0.41355   -1.66913    2.82566
 13 C     0.09486   -2.49153    2.68875
 14 C     2.09266   -0.43696    1.00055
 15 C    -0.04226   -0.43216    0.26673
 16 C    -0.64416   -0.32247    0.36420
 17 C    -1.40150    1.30819   -0.92165
 18 C     0.34324   -1.22573   -2.55261
 19 C     2.41383   -0.43131   -3.69501
 20 C     0.42721    3.57631   -7.05062
 21 C     0.63984    2.44177   -2.64475
 22 C     0.75697    3.60089    0.22968
 23 C     2.99946   -2.31245   -0.26499

System changes: positions 

Initializing position-dependent things.

Density initialized from wave functions
           .--------------------------------------.  
          /|                                      |  
         / |                                      |  
        /  |                                      |  
       /   |                                      |  
      /    |                                      |  
     /     |                                      |  
    /      |                                      |  
   /       |              C                       |  
  /        |          C    C  C                   |  
 *         |         C  C C  C C                  |  
 |         |  C          C  C   CC                |  
 |         .-------C-C--------C-C-----------------.  
 |        /    C     C       C                   /   
 |       /             C  C                     /    
 |      /                                      /     
 |     /                                      /      
 |    /                                      /       
 |   /                                      /        
 |  /                                      /         
 | /                                      /          
 |/                                      /           
 *--------------------------------------*            

Positions:
   0 C      7.569104    9.927112    6.177166
   1 C      6.229376    9.896385    5.911222
   2 C     10.744945    5.241146    5.657971
   3 C      9.817614    8.633951    6.309789
   4 C      5.774259    6.149184    5.537508
   5 C      8.186855    3.215901    5.175380
   6 C      7.602756    7.574866    5.789495
   7 C      9.534175    6.150129    5.710306
   8 C      8.124995    6.245170    5.700062
   9 C      6.191621    7.571660    5.687522
  10 C      7.045797    3.915291    5.337910
  11 C      9.491311    3.320254    5.308884
  12 C     10.382994    7.363282    6.084370
  13 C      8.419876    8.742854    6.095212
  14 C     11.524961    6.399401    5.964592
  15 C      7.032166    5.337252    5.511754
  16 C     10.682651    3.893546    5.306091
  17 C     10.329490    9.447026    4.365258
  18 C     10.805910    8.136504    4.235858
  19 C      9.950074    7.155976    4.669523
  20 C      7.787425   10.247664    4.909313
  21 C      9.031813    9.525293    4.774606
  22 C      4.747644    4.347218    5.402782
  23 C      3.487314    6.498670    5.591897

Unit cell:
           periodic     x           y           z      points  spacing
  1. axis:    yes   16.000000    0.000000    0.000000    80     0.2000
  2. axis:    yes    0.000000   16.000000    0.000000    80     0.2000
  3. axis:    yes    0.000000    0.000000   10.000000    48     0.2083

Effective grid spacing dv^(1/3) = 0.2027

                     log10-error:    total        iterations:
           time      wfs    density  energy       fermi  poisson
iter:   1  09:43:23          +inf  -158.621756    3      5      
iter:   2  09:43:24         -1.51  -158.168414    3      2      
iter:   3  09:43:24         -1.87  -158.128704    2      2      
iter:   4  09:43:25         -2.09  -158.108576    2      2      
iter:   5  09:43:26         -2.22  -158.097030    2      2      
iter:   6  09:43:26         -2.35  -158.091470    2      2      
iter:   7  09:43:27         -2.51  -158.090259    2      2      
iter:   8  09:43:27         -2.69  -158.090394    2      2      
iter:   9  09:43:28         -2.89  -158.090867    2      2      
iter:  10  09:43:29         -3.05  -158.093592    2      1      
iter:  11  09:43:29         -3.20  -158.093312    2      1      
iter:  12  09:43:30         -3.34  -158.092397    2      1      
iter:  13  09:43:31         -3.48  -158.091756    2      1      
iter:  14  09:43:31         -3.60  -158.091173    2      1      
iter:  15  09:43:32         -3.75  -158.090522    2      1      
iter:  16  09:43:32         -3.91  -158.090253    2      1      
iter:  17  09:43:33         -4.12  -158.090087    2      1      

Converged after 17 iterations.

Dipole moment: (-0.067817, -0.490988, 0.198959) |e|*Ang

Energy contributions relative to reference atoms: (reference = -24663.074771)

Kinetic:       +120.055393
Potential:     -116.030940
External:        +0.000000
XC:            -164.723832
Entropy (-ST):   -0.393277
Local:           +2.805930
--------------------------
Free energy:   -158.286725
Extrapolated:  -158.090087

Fermi level: -4.55665

 Band  Eigenvalues  Occupancy
    0    -26.02731    2.00000
    1    -24.50877    2.00000
    2    -22.25559    2.00000
    3    -21.92355    2.00000
    4    -20.71131    2.00000
    5    -20.05694    2.00000
    6    -19.52158    2.00000
    7    -19.04717    2.00000
    8    -18.85073    2.00000
    9    -17.74168    2.00000
   10    -17.23579    2.00000
   11    -16.85159    2.00000
   12    -16.03547    2.00000
   13    -15.41192    2.00000
   14    -14.99619    2.00000
   15    -14.46610    2.00000
   16    -14.02477    2.00000
   17    -13.44786    2.00000
   18    -13.08949    2.00000
   19    -12.68330    2.00000
   20    -12.57662    2.00000
   21    -12.40137    2.00000
   22    -11.93118    2.00000
   23    -11.64583    2.00000
   24    -11.22679    2.00000
   25    -11.06748    2.00000
   26    -10.91448    2.00000
   27    -10.46154    2.00000
   28    -10.20066    2.00000
   29     -9.75984    2.00000
   30     -9.18489    2.00000
   31     -8.89794    2.00000
   32     -8.54024    2.00000
   33     -8.26640    2.00000
   34     -8.14606    2.00000
   35     -7.74846    2.00000
   36     -7.45837    2.00000
   37     -7.02507    2.00000
   38     -6.85533    2.00000
   39     -6.49921    2.00000
   40     -6.08318    2.00000
   41     -5.81260    1.99999
   42     -5.62601    1.99995
   43     -5.34200    1.99922
   44     -5.11128    1.99223
   45     -4.98560    1.97295
   46     -4.76752    1.78348
   47     -4.68821    1.57689
   48     -4.41137    0.37912
   49     -4.35530    0.23557
   50     -4.18006    0.04524
   51     -4.03262    0.01054
   52     -3.94433    0.00437
   53     -3.71211    0.00043
   54     -2.95283    0.00000
   55     -2.65166    0.00000
   56     -2.14456    0.00000
   57     -1.99671    0.00000
   58     -1.92705    0.00000
   59     -1.49754    0.00000
   60     -1.39726    0.00000
   61     -1.35808    0.00000
   62     -1.06338    0.00000
   63     -0.75388    0.00000
   64      0.13141    0.00000
   65      0.76574    0.00000
   66      1.14982    0.00000
   67      1.39745    0.00000
   68      2.40099    0.00000
   69      2.61231    0.00000
   70      3.14086    0.00000
   71      3.86624    0.00000
   72      4.46361    0.00000
   73      4.93560    0.00000
   74      5.03586    0.00000
   75      5.99806    0.00000
   76      6.47127    0.00000
   77      6.51874    0.00000
   78      6.62016    0.00000
   79      6.91447    0.00000
   80      7.12674    0.00000
   81      7.40408    0.00000
   82      7.64218    0.00000
   83      7.89711    0.00000
   84      7.96851    0.00000
   85      8.18591    0.00000
   86      8.35475    0.00000
   87      8.51340    0.00000
   88      8.81771    0.00000
   89      8.88687    0.00000
   90      9.24364    0.00000
   91      9.31517    0.00000
   92      9.46018    0.00000
   93      9.51260    0.00000
   94      9.66421    0.00000
   95      9.73676    0.00000
   96      9.85971    0.00000
   97      9.91596    0.00000


Forces in eV/Ang:
  0 C     0.17003   -1.35668    5.62298
  1 C    -2.15420   -0.34710   -1.45106
  2 C     0.40464    0.17069    0.22921
  3 C    -0.02242    0.79562    3.33840
  4 C    -1.69126   -0.13599    0.23137
  5 C    -1.23219    0.55951    0.27459
  6 C    -0.65595   -1.05455    0.44375
  7 C    -0.61373   -0.68112   -1.45941
  8 C    -1.55321   -0.82984    0.66704
  9 C    -0.18789    0.11140   -0.08540
 10 C     0.82635    0.60000   -0.11297
 11 C     0.19024    0.00207   -0.40115
 12 C     0.29671   -1.15053    2.21884
 13 C     0.27097   -1.94403    2.22331
 14 C     1.50799   -0.39377    0.99770
 15 C    -0.35541   -0.32937    0.28522
 16 C    -0.54934   -0.17233    0.39764
 17 C    -1.28038    0.69980   -1.10095
 18 C     0.10850   -0.46813   -2.28543
 19 C     2.32997   -0.55849   -2.77669
 20 C     0.19861    2.94709   -5.09273
 21 C     0.46471    2.17418   -2.08826
 22 C     0.42359    4.04731    0.28748
 23 C     3.24194   -2.59503   -0.31135

System changes: positions 

Initializing position-dependent things.

Density initialized from wave functions
           .--------------------------------------.  
          /|                                      |  
         / |                                      |  
        /  |                                      |  
       /   |                                      |  
      /    |                                      |  
     /     |                                      |  
    /      |                                      |  
   /       |              C                       |  
  /        |          C    C  C                   |  
 *         |         C  C C  C C                  |  
 |         |  C          C  C   CC                |  
 |         .-------C-C--------C-C-----------------.  
 |        /    C     C       C                   /   
 |       /             C  C                     /    
 |      /                                      /     
 |     /                                      /      
 |    /                                      /       
 |   /                                      /        
 |  /                                      /         
 | /                                      /          
 |/                                      /           
 *--------------------------------------*            

Positions:
   0 C      7.568816    9.922495    6.187624
   1 C      6.223078    9.892846    5.898819
   2 C     10.748740    5.242951    5.660280
   3 C      9.820516    8.635323    6.338454
   4 C      5.758897    6.146659    5.539554
   5 C      8.180174    3.220659    5.178163
   6 C      7.596923    7.566220    5.794278
   7 C      9.528138    6.147051    5.694965
   8 C      8.115453    6.236553    5.706076
   9 C      6.188930    7.573338    5.686673
  10 C      7.053177    3.920328    5.336785
  11 C      9.489467    3.319631    5.304739
  12 C     10.381579    7.356121    6.097096
  13 C      8.422836    8.730332    6.110469
  14 C     11.536865    6.395410    5.973846
  15 C      7.026317    5.335292    5.514702
  16 C     10.677472    3.892144    5.309761
  17 C     10.321194    9.448612    4.354469
  18 C     10.804219    8.137298    4.217112
  19 C      9.973392    7.149783    4.652895
  20 C      7.780045   10.264082    4.902366
  21 C      9.030924    9.543673    4.761664
  22 C      4.750731    4.386325    5.405597
  23 C      3.518355    6.473621    5.588905

Unit cell:
           periodic     x           y           z      points  spacing
  1. axis:    yes   16.000000    0.000000    0.000000    80     0.2000
  2. axis:    yes    0.000000   16.000000    0.000000    80     0.2000
  3. axis:    yes    0.000000    0.000000   10.000000    48     0.2083

Effective grid spacing dv^(1/3) = 0.2027

                     log10-error:    total        iterations:
           time      wfs    density  energy       fermi  poisson
iter:   1  09:43:35          +inf  -159.554844    4      5      
iter:   2  09:43:36         -1.59  -159.211701    3      2      
iter:   3  09:43:36         -2.01  -159.189270    2      2      
iter:   4  09:43:37         -2.19  -159.174705    2      2      
iter:   5  09:43:38         -2.31  -159.166623    2      2      
iter:   6  09:43:38         -2.43  -159.161756    2      2      
iter:   7  09:43:39         -2.65  -159.162211    2      2      
iter:   8  09:43:39         -2.78  -159.163353    2      1      
iter:   9  09:43:40         -2.90  -159.163057    2      2      
iter:  10  09:43:41         -3.14  -159.164338    2      1      
iter:  11  09:43:41         -3.26  -159.164649    2      1      
iter:  12  09:43:42         -3.40  -159.163983    2      1      
iter:  13  09:43:42         -3.55  -159.164502    2      1      
iter:  14  09:43:43         -3.81  -159.162972    2      1      
iter:  15  09:43:44         -3.93  -159.162527    2      1      
iter:  16  09:43:44         -4.01  -159.162620    2      1      

Converged after 16 iterations.

Dipole moment: (-0.065886, -0.525126, 0.174241) |e|*Ang

Energy contributions relative to reference atoms: (reference = -24663.074771)

Kinetic:       +113.424472
Potential:     -111.637771
External:        +0.000000
XC:            -163.567127
Entropy (-ST):   -0.365071
Local:           +2.800342
--------------------------
Free energy:   -159.345155
Extrapolated:  -159.162620

Fermi level: -4.57766

 Band  Eigenvalues  Occupancy
    0    -25.75678    2.00000
    1    -24.21494    2.00000
    2    -22.22030    2.00000
    3    -21.76399    2.00000
    4    -20.71896    2.00000
    5    -19.97389    2.00000
    6    -19.50361    2.00000
    7    -18.98105    2.00000
    8    -18.80060    2.00000
    9    -17.72321    2.00000
   10    -17.19415    2.00000
   11    -16.78903    2.00000
   12    -16.06004    2.00000
   13    -15.41561    2.00000
   14    -14.99894    2.00000
   15    -14.54006    2.00000
   16    -13.94353    2.00000
   17    -13.43871    2.00000
   18    -13.06896    2.00000
   19    -12.65502    2.00000
   20    -12.51056    2.00000
   21    -12.37328    2.00000
   22    -11.92661    2.00000
   23    -11.55949    2.00000
   24    -11.17589    2.00000
   25    -10.98377    2.00000
   26    -10.80098    2.00000
   27    -10.39312    2.00000
   28    -10.11970    2.00000
   29     -9.72463    2.00000
   30     -9.22546    2.00000
   31     -8.89218    2.00000
   32     -8.53229    2.00000
   33     -8.28628    2.00000
   34     -8.14205    2.00000
   35     -7.74414    2.00000
   36     -7.52833    2.00000
   37     -7.03142    2.00000
   38     -6.82574    2.00000
   39     -6.51850    2.00000
   40     -6.10821    2.00000
   41     -5.81159    1.99999
   42     -5.69174    1.99997
   43     -5.38756    1.99939
   44     -5.12211    1.99140
   45     -5.00229    1.97177
   46     -4.78672    1.77998
   47     -4.72970    1.64120
   48     -4.44131    0.40735
   49     -4.34094    0.17143
   50     -4.15899    0.02994
   51     -3.97832    0.00498
   52     -3.90363    0.00236
   53     -3.67322    0.00024
   54     -2.85408    0.00000
   55     -2.65026    0.00000
   56     -2.12457    0.00000
   57     -2.00215    0.00000
   58     -1.81903    0.00000
   59     -1.43301    0.00000
   60     -1.36024    0.00000
   61     -1.28021    0.00000
   62     -1.03995    0.00000
   63     -0.81344    0.00000
   64      0.08004    0.00000
   65      0.77294    0.00000
   66      1.13731    0.00000
   67      1.38203    0.00000
   68      2.39903    0.00000
   69      2.55708    0.00000
   70      3.07752    0.00000
   71      3.85021    0.00000
   72      4.43275    0.00000
   73      4.92268    0.00000
   74      5.03743    0.00000
   75      5.94221    0.00000
   76      6.44723    0.00000
   77      6.46856    0.00000
   78      6.53081    0.00000
   79      6.88900    0.00000
   80      7.10045    0.00000
   81      7.40555    0.00000
   82      7.70151    0.00000
   83      7.85602    0.00000
   84      7.96798    0.00000
   85      8.14676    0.00000
   86      8.36140    0.00000
   87      8.53813    0.00000
   88      8.83160    0.00000
   89      8.83996    0.00000
   90      9.25443    0.00000
   91      9.31610    0.00000
   92      9.45582    0.00000
   93      9.53475    0.00000
   94      9.66444    0.00000
   95      9.77539    0.00000
   96      9.83312    0.00000
   97      9.90228    0.00000


Forces in eV/Ang:
  0 C    -0.00905   -1.27736    4.21747
  1 C    -1.61930   -0.37376   -1.31380
  2 C     0.29117    0.11330    0.17872
  3 C    -0.17024    0.21610    3.10252
  4 C    -1.69369   -0.29285    0.18374
  5 C    -0.97154    0.40658    0.26582
  6 C    -0.58688   -0.85311    0.53880
  7 C    -0.39695   -0.50602   -1.49640
  8 C    -1.16043   -0.71312    0.54116
  9 C    -0.16723    0.20654   -0.05920
 10 C     0.79463    0.50557   -0.13656
 11 C     0.25450   -0.01081   -0.39795
 12 C     0.26587   -0.83318    1.80394
 13 C     0.32501   -1.51258    1.93619
 14 C     1.07073   -0.31922    0.97994
 15 C    -0.51846   -0.29414    0.28352
 16 C    -0.57627   -0.15484    0.40081
 17 C    -1.16095    0.23442   -1.28297
 18 C    -0.03517    0.00762   -2.11680
 19 C     2.23263   -0.58784   -2.12338
 20 C     0.17662    2.47835   -3.78723
 21 C     0.25253    2.10130   -1.69565
 22 C     0.08769    4.50054    0.32825
 23 C     3.43950   -2.87380   -0.32983

System changes: positions 

Initializing position-dependent things.

Density initialized from wave functions
           .--------------------------------------.  
          /|                                      |  
         / |                                      |  
        /  |                                      |  
       /   |                                      |  
      /    |                                      |  
     /     |                                      |  
    /      |                                      |  
   /       |              C                       |  
  /        |          C    C  C                   |  
 *         |         C  C C  C C                  |  
 |         |  C          C  C   CC                |  
 |         .-------C-C--------C-C-----------------.  
 |        /    C     C       C                   /   
 |       /             C  C                     /    
 |      /                                      /     
 |     /                                      /      
 |    /                                      /       
 |   /                                      /        
 |  /                                      /         
 | /                                      /          
 |/                                      /           
 *--------------------------------------*            

Positions:
   0 C      7.568045    9.917601    6.195662
   1 C      6.217688    9.889365    5.888034
   2 C     10.751440    5.244140    5.661961
   3 C      9.821260    8.633834    6.364167
   4 C      5.744392    6.143514    5.541065
   5 C      8.174481    3.224010    5.180635
   6 C      7.591955    7.559141    5.799208
   7 C      9.524137    6.144706    5.680822
   8 C      8.108018    6.229550    5.710831
   9 C      6.186822    7.575392    5.686128
  10 C      7.059933    3.924539    5.335592
  11 C      9.489493    3.319179    5.301011
  12 C     10.381062    7.350831    6.108142
  13 C      8.425583    8.720205    6.124161
  14 C     11.545480    6.392327    5.982385
  15 C      7.020543    5.333359    5.517334
  16 C     10.672376    3.890713    5.313156
  17 C     10.313366    9.447991    4.343086
  18 C     10.802376    8.139896    4.200018
  19 C      9.993942    7.144257    4.639730
  20 C      7.775033   10.278204    4.897340
  21 C      9.029836    9.561139    4.750598
  22 C      4.751105    4.426218    5.408495
  23 C      3.548689    6.448192    5.586028

Unit cell:
           periodic     x           y           z      points  spacing
  1. axis:    yes   16.000000    0.000000    0.000000    80     0.2000
  2. axis:    yes    0.000000   16.000000    0.000000    80     0.2000
  3. axis:    yes    0.000000    0.000000   10.000000    48     0.2083

Effective grid spacing dv^(1/3) = 0.2027

                     log10-error:    total        iterations:
           time      wfs    density  energy       fermi  poisson
iter:   1  09:43:46          +inf  -160.413077    4      5      
iter:   2  09:43:47         -1.66  -160.141208    3      2      
iter:   3  09:43:48         -2.11  -160.123184    2      2      
iter:   4  09:43:48         -2.23  -160.108659    2      2      
iter:   5  09:43:49         -2.37  -160.102120    2      2      
iter:   6  09:43:49         -2.51  -160.099022    2      2      
iter:   7  09:43:50         -2.75  -160.099247    2      1      
iter:   8  09:43:51         -2.85  -160.100724    2      2      
iter:   9  09:43:51         -3.15  -160.101347    2      1      
iter:  10  09:43:52         -3.25  -160.101631    2      1      
iter:  11  09:43:53         -3.40  -160.101307    2      1      
iter:  12  09:43:53         -3.52  -160.101305    2      1      
iter:  13  09:43:54         -3.66  -160.100753    2      1      
iter:  14  09:43:54         -3.90  -160.100151    2      1      
iter:  15  09:43:55         -4.02  -160.100053    2      1      

Converged after 15 iterations.

Dipole moment: (-0.053673, -0.551152, 0.155369) |e|*Ang

Energy contributions relative to reference atoms: (reference = -24663.074771)

Kinetic:       +108.266558
Potential:     -108.223732
External:        +0.000000
XC:            -162.772996
Entropy (-ST):   -0.342205
Local:           +2.801219
--------------------------
Free energy:   -160.271156
Extrapolated:  -160.100053

Fermi level: -4.59735

 Band  Eigenvalues  Occupancy
    0    -25.54121    2.00000
    1    -23.97828    2.00000
    2    -22.20854    2.00000
    3    -21.61787    2.00000
    4    -20.72878    2.00000
    5    -19.91420    2.00000
    6    -19.49726    2.00000
    7    -18.92258    2.00000
    8    -18.76209    2.00000
    9    -17.71767    2.00000
   10    -17.17801    2.00000
   11    -16.71818    2.00000
   12    -16.09746    2.00000
   13    -15.43147    2.00000
   14    -15.00062    2.00000
   15    -14.62682    2.00000
   16    -13.88179    2.00000
   17    -13.44140    2.00000
   18    -13.06387    2.00000
   19    -12.63536    2.00000
   20    -12.45829    2.00000
   21    -12.33443    2.00000
   22    -11.92064    2.00000
   23    -11.47801    2.00000
   24    -11.13266    2.00000
   25    -10.91622    2.00000
   26    -10.71923    2.00000
   27    -10.32556    2.00000
   28    -10.05332    2.00000
   29     -9.68942    2.00000
   30     -9.26025    2.00000
   31     -8.89237    2.00000
   32     -8.53618    2.00000
   33     -8.29411    2.00000
   34     -8.12910    2.00000
   35     -7.74250    2.00000
   36     -7.58546    2.00000
   37     -7.04168    2.00000
   38     -6.79901    2.00000
   39     -6.54271    2.00000
   40     -6.14317    2.00000
   41     -5.80595    1.99999
   42     -5.74792    1.99998
   43     -5.42685    1.99950
   44     -5.13867    1.99113
   45     -5.01661    1.97024
   46     -4.80519    1.77758
   47     -4.76456    1.68371
   48     -4.46973    0.43640
   49     -4.32195    0.11972
   50     -4.13037    0.01858
   51     -3.90592    0.00198
   52     -3.84460    0.00108
   53     -3.63062    0.00013
   54     -2.77572    0.00000
   55     -2.64798    0.00000
   56     -2.10730    0.00000
   57     -2.00013    0.00000
   58     -1.70129    0.00000
   59     -1.39742    0.00000
   60     -1.33668    0.00000
   61     -1.19219    0.00000
   62     -0.91518    0.00000
   63     -0.84864    0.00000
   64      0.05038    0.00000
   65      0.77515    0.00000
   66      1.12987    0.00000
   67      1.38048    0.00000
   68      2.38521    0.00000
   69      2.51688    0.00000
   70      3.03788    0.00000
   71      3.84214    0.00000
   72      4.40913    0.00000
   73      4.90998    0.00000
   74      5.04728    0.00000
   75      5.89562    0.00000
   76      6.39987    0.00000
   77      6.43884    0.00000
   78      6.46081    0.00000
   79      6.84766    0.00000
   80      7.07290    0.00000
   81      7.41545    0.00000
   82      7.75187    0.00000
   83      7.82038    0.00000
   84      7.98897    0.00000
   85      8.12554    0.00000
   86      8.37226    0.00000
   87      8.54946    0.00000
   88      8.79468    0.00000
   89      8.85450    0.00000
   90      9.25998    0.00000
   91      9.32156    0.00000
   92      9.45179    0.00000
   93      9.55740    0.00000
   94      9.65616    0.00000
   95      9.80079    0.00000
   96      9.84164    0.00000
   97      9.89610    0.00000


Forces in eV/Ang:
  0 C    -0.17718   -1.19986    3.16773
  1 C    -1.19743   -0.42424   -1.20929
  2 C     0.21641    0.08638    0.13892
  3 C    -0.28084   -0.25890    2.90502
  4 C    -1.69769   -0.41349    0.15816
  5 C    -0.67546    0.27173    0.24895
  6 C    -0.56393   -0.69521    0.59579
  7 C    -0.25076   -0.40248   -1.49148
  8 C    -0.85926   -0.62040    0.41830
  9 C    -0.14393    0.27896   -0.03093
 10 C     0.79850    0.41133   -0.15100
 11 C     0.15050   -0.08138   -0.40092
 12 C     0.22468   -0.58440    1.52878
 13 C     0.31872   -1.21431    1.77112
 14 C     0.71743   -0.30408    0.96536
 15 C    -0.62565   -0.24470    0.28140
 16 C    -0.53482   -0.10484    0.39511
 17 C    -1.10031   -0.11980   -1.44694
 18 C    -0.16170    0.32098   -1.96794
 19 C     2.15520   -0.54417   -1.61612
 20 C     0.18431    2.10724   -2.83651
 21 C     0.16565    2.03512   -1.45459
 22 C    -0.22967    4.96584    0.36608
 23 C     3.68127   -3.18535   -0.35571

System changes: positions 

Initializing position-dependent things.

Density initialized from wave functions
           .--------------------------------------.  
          /|                                      |  
         / |                                      |  
        /  |                                      |  
       /   |                                      |  
      /    |                                      |  
     /     |                                      |  
    /      |                                      |  
   /       |              C                       |  
  /        |          C    C  C                   |  
 *         |         C  C C  C C                  |  
 |         |  C          C  C   CC                |  
 |         .-------C-C--------C-C-----------------.  
 |        /    C     C       C                   /   
 |       /             C  C                     /    
 |      /                                      /     
 |     /                                      /      
 |    /                                      /       
 |   /                                      /        
 |  /                                      /         
 | /                                      /          
 |/                                      /           
 *--------------------------------------*            

Positions:
   0 C      7.566893    9.912946    6.202379
   1 C      6.212984    9.885771    5.878334
   2 C     10.753661    5.245157    5.663297
   3 C      9.821038    8.630880    6.387537
   4 C      5.730753    6.140204    5.542377
   5 C      8.170217    3.226468    5.182792
   6 C      7.587289    7.553019    5.803894
   7 C      9.521015    6.142511    5.667980
   8 C      8.101767    6.223523    5.714638
   9 C      6.185103    7.577530    5.685807
  10 C      7.066410    3.928056    5.334443
  11 C      9.489092    3.318314    5.297555
  12 C     10.380812    7.346583    6.118417
  13 C      8.427722    8.711235    6.137144
  14 C     11.552187    6.389400    5.990300
  15 C      7.015162    5.331692    5.519726
  16 C     10.668006    3.889618    5.316240
  17 C     10.305776    9.446427    4.331623
  18 C     10.800385    8.142758    4.184418
  19 C     10.012533    7.139792    4.628615
  20 C      7.771418   10.290658    4.893124
  21 C      9.029303    9.577519    4.740257
  22 C      4.749750    4.466090    5.411386
  23 C      3.578429    6.422635    5.583204

Unit cell:
           periodic     x           y           z      points  spacing
  1. axis:    yes   16.000000    0.000000    0.000000    80     0.2000
  2. axis:    yes    0.000000   16.000000    0.000000    80     0.2000
  3. axis:    yes    0.000000    0.000000   10.000000    48     0.2083

Effective grid spacing dv^(1/3) = 0.2027

                     log10-error:    total        iterations:
           time      wfs    density  energy       fermi  poisson
iter:   1  09:43:57          +inf  -161.233994    4      5      
iter:   2  09:43:58         -1.71  -161.009168    3      2      
iter:   3  09:43:58         -2.14  -160.989874    3      2      
iter:   4  09:43:59         -2.26  -160.974307    3      2      
iter:   5  09:44:00         -2.42  -160.968756    2      2      
iter:   6  09:44:00         -2.59  -160.967348    2      2      
iter:   7  09:44:01         -2.71  -160.967237    2      2      
iter:   8  09:44:02         -2.87  -160.967715    2      2      
iter:   9  09:44:02         -3.04  -160.968024    2      2      
iter:  10  09:44:03         -3.27  -160.968436    2      1      
iter:  11  09:44:03         -3.38  -160.969334    2      1      
iter:  12  09:44:04         -3.62  -160.968336    2      1      
iter:  13  09:44:05         -3.72  -160.968205    2      1      
iter:  14  09:44:05         -3.94  -160.968074    2      1      
iter:  15  09:44:06         -4.07  -160.967680    2      1      

Converged after 15 iterations.

Dipole moment: (-0.034163, -0.570748, 0.139530) |e|*Ang

Energy contributions relative to reference atoms: (reference = -24663.074771)

Kinetic:       +104.078266
Potential:     -105.472731
External:        +0.000000
XC:            -162.213194
Entropy (-ST):   -0.324724
Local:           +2.802341
--------------------------
Free energy:   -161.130041
Extrapolated:  -160.967680

Fermi level: -4.61665

 Band  Eigenvalues  Occupancy
    0    -25.36135    2.00000
    1    -23.77404    2.00000
    2    -22.20759    2.00000
    3    -21.49462    2.00000
    4    -20.74001    2.00000
    5    -19.87051    2.00000
    6    -19.49850    2.00000
    7    -18.87386    2.00000
    8    -18.73351    2.00000
    9    -17.72302    2.00000
   10    -17.17704    2.00000
   11    -16.65576    2.00000
   12    -16.14704    2.00000
   13    -15.45953    2.00000
   14    -14.99907    2.00000
   15    -14.71365    2.00000
   16    -13.83682    2.00000
   17    -13.44979    2.00000
   18    -13.06934    2.00000
   19    -12.62264    2.00000
   20    -12.42875    2.00000
   21    -12.27599    2.00000
   22    -11.91427    2.00000
   23    -11.40472    2.00000
   24    -11.09041    2.00000
   25    -10.86060    2.00000
   26    -10.65560    2.00000
   27    -10.26224    2.00000
   28     -9.99756    2.00000
   29     -9.65541    2.00000
   30     -9.29122    2.00000
   31     -8.89631    2.00000
   32     -8.55042    2.00000
   33     -8.29574    2.00000
   34     -8.11433    2.00000
   35     -7.75289    2.00000
   36     -7.62572    2.00000
   37     -7.05165    2.00000
   38     -6.77717    2.00000
   39     -6.57433    2.00000
   40     -6.18571    2.00000
   41     -5.79808    1.99999
   42     -5.79721    1.99999
   43     -5.46483    1.99959
   44     -5.16094    1.99138
   45     -5.03369    1.96958
   46     -4.82346    1.77552
   47     -4.79410    1.71003
   48     -4.49574    0.45972
   49     -4.30145    0.08202
   50     -4.09705    0.01102
   51     -3.82129    0.00070
   52     -3.76598    0.00040
   53     -3.58633    0.00007
   54     -2.72242    0.00000
   55     -2.64797    0.00000
   56     -2.09073    0.00000
   57     -1.98615    0.00000
   58     -1.63741    0.00000
   59     -1.33756    0.00000
   60     -1.25419    0.00000
   61     -1.16124    0.00000
   62     -0.89874    0.00000
   63     -0.66452    0.00000
   64      0.03282    0.00000
   65      0.76673    0.00000
   66      1.12423    0.00000
   67      1.38645    0.00000
   68      2.35861    0.00000
   69      2.48637    0.00000
   70      3.00447    0.00000
   71      3.83487    0.00000
   72      4.39025    0.00000
   73      4.88996    0.00000
   74      5.05916    0.00000
   75      5.85392    0.00000
   76      6.34440    0.00000
   77      6.40154    0.00000
   78      6.41479    0.00000
   79      6.80324    0.00000
   80      7.05072    0.00000
   81      7.42434    0.00000
   82      7.76638    0.00000
   83      7.80212    0.00000
   84      8.02902    0.00000
   85      8.11464    0.00000
   86      8.38138    0.00000
   87      8.55689    0.00000
   88      8.75746    0.00000
   89      8.87372    0.00000
   90      9.26266    0.00000
   91      9.32600    0.00000
   92      9.44798    0.00000
   93      9.57771    0.00000
   94      9.64113    0.00000
   95      9.81228    0.00000
   96      9.86855    0.00000
   97      9.89488    0.00000


Forces in eV/Ang:
  0 C    -0.32198   -1.14477    2.33284
  1 C    -0.84799   -0.46378   -1.10861
  2 C     0.14846    0.04116    0.10538
  3 C    -0.38584   -0.64473    2.71202
  4 C    -1.71627   -0.47245    0.13400
  5 C    -0.45416    0.14685    0.22193
  6 C    -0.55541   -0.55892    0.64841
  7 C    -0.10600   -0.27166   -1.48743
  8 C    -0.61961   -0.54603    0.32577
  9 C    -0.12846    0.32442   -0.00669
 10 C     0.79496    0.36290   -0.15372
 11 C     0.13247   -0.12888   -0.39833
 12 C     0.19651   -0.37873    1.33322
 13 C     0.30887   -0.96611    1.66690
 14 C     0.43905   -0.28588    0.96070
 15 C    -0.70100   -0.21697    0.27657
 16 C    -0.51283   -0.07223    0.38907
 17 C    -1.04332   -0.40250   -1.56619
 18 C    -0.25845    0.55868   -1.87710
 19 C     2.04771   -0.50608   -1.21210
 20 C     0.22789    1.80062   -2.07718
 21 C     0.06598    2.00159   -1.28601
 22 C    -0.54965    5.36001    0.42484
 23 C     3.88415   -3.48808   -0.40219

System changes: positions 

Initializing position-dependent things.

Density initialized from wave functions
           .--------------------------------------.  
          /|                                      |  
         / |                                      |  
        /  |                                      |  
       /   |                                      |  
      /    |                                      |  
     /     |                                      |  
    /      |                                      |  
   /       |              C                       |  
  /        |          C    C  C                   |  
 *         |         C  C C  C C                  |  
 |         |  C          C  C   CC                |  
 |         .-------C-C--------C-C-----------------.  
 |        /    C     C       C                   /   
 |       /             C  C                     /    
 |      /                                      /     
 |     /                                      /      
 |    /                                      /       
 |   /                                      /        
 |  /                                      /         
 | /                                      /          
 |/                                      /           
 *--------------------------------------*            

Positions:
   0 C      7.565490    9.908388    6.208489
   1 C      6.208721    9.882154    5.869296
   2 C     10.755604    5.245909    5.664466
   3 C      9.820289    8.627270    6.409478
   4 C      5.717446    6.137150    5.543568
   5 C      8.166481    3.228393    5.184693
   6 C      7.582697    7.547418    5.808497
   7 C      9.518496    6.140785    5.655774
   8 C      8.096049    6.217943    5.718065
   9 C      6.183532    7.579588    5.685596
  10 C      7.072679    3.931473    5.333393
  11 C      9.489005    3.317342    5.294274
  12 C     10.380698    7.342862    6.128493
  13 C      8.429538    8.702886    6.149974
  14 C     11.558085    6.386596    5.997955
  15 C      7.010069    5.330058    5.521976
  16 C     10.663891    3.888616    5.319156
  17 C     10.298405    9.444480    4.320296
  18 C     10.798377    8.145594    4.169328
  19 C     10.029812    7.135842    4.618436
  20 C      7.768707   10.302233    4.889307
  21 C      9.028771    9.593490    4.730086
  22 C      4.747132    4.505884    5.414484
  23 C      3.607811    6.396747    5.580211

Unit cell:
           periodic     x           y           z      points  spacing
  1. axis:    yes   16.000000    0.000000    0.000000    80     0.2000
  2. axis:    yes    0.000000   16.000000    0.000000    80     0.2000
  3. axis:    yes    0.000000    0.000000   10.000000    48     0.2083

Effective grid spacing dv^(1/3) = 0.2027

                     log10-error:    total        iterations:
           time      wfs    density  energy       fermi  poisson
iter:   1  09:44:08          +inf  -162.050848    4      5      
iter:   2  09:44:09         -1.74  -161.853187    4      2      
iter:   3  09:44:09         -2.14  -161.830955    3      2      
iter:   4  09:44:10         -2.28  -161.814535    3      2      
iter:   5  09:44:10         -2.44  -161.811172    3      2      
iter:   6  09:44:11         -2.55  -161.807841    3      2      
iter:   7  09:44:12         -2.75  -161.807886    2      2      
iter:   8  09:44:12         -2.89  -161.808217    2      2      
iter:   9  09:44:13         -3.11  -161.808158    2      1      
iter:  10  09:44:13         -3.30  -161.809399    2      1      
iter:  11  09:44:14         -3.48  -161.808814    1      1      
iter:  12  09:44:15         -3.57  -161.808657    2      1      
iter:  13  09:44:15         -3.78  -161.809147    2      1      
iter:  14  09:44:16         -3.91  -161.808355    2      1      
iter:  15  09:44:17         -4.06  -161.808333    2      1      

Converged after 15 iterations.

Dipole moment: (-0.008028, -0.585141, 0.124498) |e|*Ang

Energy contributions relative to reference atoms: (reference = -24663.074771)

Kinetic:       +100.430705
Potential:     -103.091444
External:        +0.000000
XC:            -161.795762
Entropy (-ST):   -0.311431
Local:           +2.803885
--------------------------
Free energy:   -161.964048
Extrapolated:  -161.808333

Fermi level: -4.63640

 Band  Eigenvalues  Occupancy
    0    -25.20279    2.00000
    1    -23.59085    2.00000
    2    -22.20984    2.00000
    3    -21.38906    2.00000
    4    -20.75055    2.00000
    5    -19.83773    2.00000
    6    -19.50422    2.00000
    7    -18.83656    2.00000
    8    -18.70843    2.00000
    9    -17.73564    2.00000
   10    -17.18658    2.00000
   11    -16.60792    2.00000
   12    -16.20469    2.00000
   13    -15.49280    2.00000
   14    -14.99793    2.00000
   15    -14.79589    2.00000
   16    -13.80363    2.00000
   17    -13.46120    2.00000
   18    -13.08144    2.00000
   19    -12.61657    2.00000
   20    -12.41497    2.00000
   21    -12.20455    2.00000
   22    -11.90442    2.00000
   23    -11.34094    2.00000
   24    -11.04622    2.00000
   25    -10.81288    2.00000
   26    -10.60084    2.00000
   27    -10.20187    2.00000
   28     -9.94575    2.00000
   29     -9.61930    2.00000
   30     -9.31857    2.00000
   31     -8.90217    2.00000
   32     -8.56884    2.00000
   33     -8.29341    2.00000
   34     -8.10003    2.00000
   35     -7.77771    2.00000
   36     -7.64722    2.00000
   37     -7.06278    2.00000
   38     -6.76107    2.00000
   39     -6.61347    2.00000
   40     -6.23401    2.00000
   41     -5.84193    1.99999
   42     -5.78925    1.99998
   43     -5.50221    1.99965
   44     -5.18629    1.99185
   45     -5.05699    1.97062
   46     -4.84514    1.77934
   47     -4.81762    1.71925
   48     -4.52045    0.47750
   49     -4.27960    0.05487
   50     -4.06454    0.00655
   51     -3.73103    0.00023
   52     -3.66717    0.00012
   53     -3.53087    0.00003
   54     -2.69705    0.00000
   55     -2.64612    0.00000
   56     -2.07497    0.00000
   57     -1.96232    0.00000
   58     -1.62849    0.00000
   59     -1.32399    0.00000
   60     -1.19193    0.00000
   61     -0.98720    0.00000
   62     -0.91734    0.00000
   63     -0.39455    0.00000
   64      0.02915    0.00000
   65      0.74854    0.00000
   66      1.12033    0.00000
   67      1.39867    0.00000
   68      2.32154    0.00000
   69      2.46594    0.00000
   70      2.97196    0.00000
   71      3.82402    0.00000
   72      4.37150    0.00000
   73      4.86119    0.00000
   74      5.07268    0.00000
   75      5.81627    0.00000
   76      6.28040    0.00000
   77      6.36176    0.00000
   78      6.38067    0.00000
   79      6.75666    0.00000
   80      7.03123    0.00000
   81      7.42899    0.00000
   82      7.74303    0.00000
   83      7.80129    0.00000
   84      8.07849    0.00000
   85      8.11339    0.00000
   86      8.38712    0.00000
   87      8.55999    0.00000
   88      8.72261    0.00000
   89      8.89462    0.00000
   90      9.26536    0.00000
   91      9.32732    0.00000
   92      9.44176    0.00000
   93      9.59455    0.00000
   94      9.62739    0.00000
   95      9.82255    0.00000
   96      9.88085    0.00000
   97      9.90391    0.00000


Forces in eV/Ang:
  0 C    -0.44430   -1.08552    1.62509
  1 C    -0.53875   -0.51174   -1.01646
  2 C     0.09807    0.00341    0.08001
  3 C    -0.45352   -0.94997    2.52447
  4 C    -1.70929   -0.54888    0.10866
  5 C    -0.23558    0.02623    0.19800
  6 C    -0.52431   -0.41416    0.70221
  7 C     0.01393   -0.15463   -1.49043
  8 C    -0.39535   -0.47239    0.23165
  9 C    -0.12491    0.35571    0.01356
 10 C     0.76186    0.33794   -0.14610
 11 C     0.08466   -0.18333   -0.39401
 12 C     0.18519   -0.21615    1.15443
 13 C     0.26604   -0.76840    1.59463
 14 C     0.19166   -0.26866    0.94774
 15 C    -0.75613   -0.17675    0.26317
 16 C    -0.46840   -0.03334    0.38671
 17 C    -0.98643   -0.63180   -1.66381
 18 C    -0.36434    0.74624   -1.75704
 19 C     1.93912   -0.47691   -0.84778
 20 C     0.28274    1.50084   -1.41977
 21 C    -0.02946    2.04156   -1.17747
 22 C    -0.86468    5.74128    0.48316
 23 C     4.12787   -3.80168   -0.40348

[...]

Energy contributions relative to reference atoms: (reference = -24663.074771)

Kinetic:       +108.273245
Potential:     -115.692550
External:        +0.000000
XC:            -176.003184
Entropy (-ST):   -0.188798
Local:           +3.024930
--------------------------
Free energy:   -180.586357
Extrapolated:  -180.491958

Fermi level: -4.54428

 Band  Eigenvalues  Occupancy
    0    -23.16626    2.00000
    1    -22.00677    2.00000
    2    -21.75205    2.00000
    3    -20.77020    2.00000
    4    -20.56780    2.00000
    5    -20.10665    2.00000
    6    -19.61019    2.00000
    7    -19.23514    2.00000
    8    -18.99012    2.00000
    9    -18.39810    2.00000
   10    -17.57740    2.00000
   11    -16.87573    2.00000
   12    -16.46212    2.00000
   13    -16.36242    2.00000
   14    -15.83781    2.00000
   15    -14.89822    2.00000
   16    -14.34744    2.00000
   17    -13.71790    2.00000
   18    -13.50752    2.00000
   19    -13.31801    2.00000
   20    -12.85048    2.00000
   21    -12.46418    2.00000
   22    -11.90405    2.00000
   23    -11.69959    2.00000
   24    -11.43153    2.00000
   25    -10.77059    2.00000
   26    -10.40875    2.00000
   27    -10.34540    2.00000
   28     -9.98021    2.00000
   29     -9.74392    2.00000
   30     -9.29773    2.00000
   31     -8.98692    2.00000
   32     -8.85270    2.00000
   33     -8.75857    2.00000
   34     -8.06976    2.00000
   35     -7.88355    2.00000
   36     -7.83019    2.00000
   37     -7.64921    2.00000
   38     -7.40297    2.00000
   39     -6.76160    2.00000
   40     -6.62924    2.00000
   41     -6.03647    2.00000
   42     -5.76459    1.99999
   43     -5.67983    1.99998
   44     -5.34088    1.99931
   45     -5.22594    1.99781
   46     -5.02260    1.98340
   47     -4.71323    1.68831
   48     -4.38234    0.33058
   49     -3.70811    0.00047
   50     -3.59845    0.00016
   51     -3.14383    0.00000
   52     -3.13115    0.00000
   53     -2.77210    0.00000
   54     -1.83321    0.00000
   55     -1.65619    0.00000
   56     -1.55279    0.00000
   57     -1.13193    0.00000
   58     -0.84370    0.00000
   59     -0.68826    0.00000
   60      0.12724    0.00000
   61      0.67214    0.00000
   62      0.99777    0.00000
   63      2.21161    0.00000
   64      2.64865    0.00000
   65      2.88290    0.00000
   66      3.41999    0.00000
   67      3.68370    0.00000
   68      4.73307    0.00000
   69      4.95926    0.00000
   70      5.24112    0.00000
   71      5.40820    0.00000
   72      6.28980    0.00000
   73      6.51785    0.00000
   74      6.70009    0.00000
   75      7.14862    0.00000
   76      7.28346    0.00000
   77      7.44312    0.00000
   78      7.89462    0.00000
   79      8.16129    0.00000
   80      8.18250    0.00000
   81      8.34838    0.00000
   82      8.46052    0.00000
   83      8.72543    0.00000
   84      8.78114    0.00000
   85      8.87311    0.00000
   86      9.06018    0.00000
   87      9.10411    0.00000
   88      9.30660    0.00000
   89      9.32284    0.00000
   90      9.52744    0.00000
   91      9.54584    0.00000
   92      9.70284    0.00000
   93      9.78556    0.00000
   94      9.97784    0.00000
   95     10.11313    0.00000
   96     10.16135    0.00000
   97     10.28765    0.00000


Forces in eV/Ang:
  0 C    -0.02226   -0.07623   -0.05358
  1 C     0.00278    0.09871   -0.00230
  2 C    -0.00191    0.01130   -0.04447
  3 C     0.01371   -0.04646    0.00848
  4 C     0.01534   -0.03245   -0.02842
  5 C    -0.00740    0.00219    0.00175
  6 C    -0.00112   -0.01466    0.01901
  7 C     0.02235    0.04866    0.03004
  8 C     0.02464    0.01170    0.02759
  9 C    -0.00196   -0.03339    0.00530
 10 C    -0.07838    0.03890    0.00212
 11 C    -0.06481    0.02754    0.01986
 12 C     0.05723    0.00754   -0.01255
 13 C     0.01729    0.00159   -0.01684
 14 C     0.00715   -0.02123   -0.00719
 15 C     0.00717    0.01524    0.01579
 16 C    -0.00579    0.01864   -0.01434
 17 C     0.02499   -0.02178   -0.00151
 18 C    -0.00750    0.00778    0.02054
 19 C    -0.04426   -0.06164    0.01750
 20 C    -0.01041    0.02901    0.04563
 21 C    -0.01426   -0.00387   -0.00555
 22 C    -0.01857    0.03560    0.02781
 23 C     0.04864   -0.06521   -0.09878

System changes: positions 

Initializing position-dependent things.

Density initialized from wave functions
           .--------------------------------------.  
          /|                                      |  
         / |                                      |  
        /  |                                      |  
       /   |                                      |  
      /    |                                      |  
     /     |                                      |  
    /      |                                      |  
   /       |                  C                   |  
  /        |          C  C C   C                  |  
 *         |          C  C      C                 |  
 |         |                  C                   |  
 |         .-----C--C-C---C--C-C------------------.  
 |        /      C  C     C    C                 /   
 |       /            C                         /    
 |      /                                      /     
 |     /                                      /      
 |    /                                      /       
 |   /                                      /        
 |  /                                      /         
 | /                                      /          
 |/                                      /           
 *--------------------------------------*            

Positions:
   0 C      7.521813    9.815334    5.840009
   1 C      6.222001    9.203164    5.700801
   2 C     10.626539    5.455882    5.915379
   3 C      9.790388    8.639341    6.923247
   4 C      6.020035    6.481291    5.298977
   5 C      7.935918    3.321013    5.151707
   6 C      7.953088    7.634248    5.675399
   7 C      9.879686    6.236751    4.806180
   8 C      8.444400    6.390730    5.155884
   9 C      6.475602    7.815704    5.576188
  10 C      6.890326    4.202789    4.990339
  11 C      9.192590    3.578691    5.430623
  12 C     10.518292    7.557298    7.017855
  13 C      8.548163    8.755702    6.306484
  14 C     11.085772    6.373478    6.863912
  15 C      7.245822    5.642803    5.076297
  16 C     10.321538    4.086663    5.860277
  17 C      9.882567    9.622904    3.369777
  18 C     10.221887    8.363294    3.503691
  19 C     10.354667    7.128723    3.912715
  20 C      8.097438   10.678574    4.897235
  21 C      9.073149   10.388623    4.092690
  22 C      5.434655    4.302366    5.006659
  23 C      4.980002    5.494255    5.239676

Unit cell:
           periodic     x           y           z      points  spacing
  1. axis:    yes   16.000000    0.000000    0.000000    80     0.2000
  2. axis:    yes    0.000000   16.000000    0.000000    80     0.2000
  3. axis:    yes    0.000000    0.000000   10.000000    48     0.2083

Effective grid spacing dv^(1/3) = 0.2027

                     log10-error:    total        iterations:
           time      wfs    density  energy       fermi  poisson
iter:   1  10:04:23          +inf  -180.494879    2      5      
iter:   2  10:04:23         -2.99  -180.493458    2      1      
iter:   3  10:04:24         -3.15  -180.492500    2      1      
iter:   4  10:04:25         -3.26  -180.492515    2      1      
iter:   5  10:04:25         -3.41  -180.490918    2      1      
iter:   6  10:04:26         -3.31  -180.493153    2      1      
iter:   7  10:04:26         -3.47  -180.493495    2      1      
iter:   8  10:04:27         -3.51  -180.492575    2      1      
iter:   9  10:04:28         -4.18  -180.492569    2      1      

Converged after 9 iterations.

Dipole moment: (0.280270, -0.010766, -0.156858) |e|*Ang

Energy contributions relative to reference atoms: (reference = -24663.074771)

Kinetic:       +108.531975
Potential:     -115.891811
External:        +0.000000
XC:            -176.060560
Entropy (-ST):   -0.190097
Local:           +3.022875
--------------------------
Free energy:   -180.587617
Extrapolated:  -180.492569

Fermi level: -4.54567

 Band  Eigenvalues  Occupancy
    0    -23.17220    2.00000
    1    -22.01089    2.00000
    2    -21.75806    2.00000
    3    -20.77352    2.00000
    4    -20.56728    2.00000
    5    -20.10993    2.00000
    6    -19.61434    2.00000
    7    -19.23808    2.00000
    8    -18.98953    2.00000
    9    -18.40232    2.00000
   10    -17.58144    2.00000
   11    -16.87381    2.00000
   12    -16.46443    2.00000
   13    -16.36678    2.00000
   14    -15.83767    2.00000
   15    -14.90126    2.00000
   16    -14.34553    2.00000
   17    -13.71861    2.00000
   18    -13.50996    2.00000
   19    -13.31805    2.00000
   20    -12.85903    2.00000
   21    -12.46609    2.00000
   22    -11.90376    2.00000
   23    -11.70468    2.00000
   24    -11.43023    2.00000
   25    -10.77329    2.00000
   26    -10.41225    2.00000
   27    -10.34793    2.00000
   28     -9.98318    2.00000
   29     -9.73976    2.00000
   30     -9.29993    2.00000
   31     -8.98818    2.00000
   32     -8.85393    2.00000
   33     -8.76118    2.00000
   34     -8.07361    2.00000
   35     -7.88144    2.00000
   36     -7.83260    2.00000
   37     -7.65204    2.00000
   38     -7.40183    2.00000
   39     -6.76150    2.00000
   40     -6.62886    2.00000
   41     -6.03890    2.00000
   42     -5.77072    1.99999
   43     -5.68271    1.99998
   44     -5.33699    1.99927
   45     -5.22796    1.99783
   46     -5.02449    1.98348
   47     -4.71310    1.68429
   48     -4.38516    0.33454
   49     -3.70944    0.00047
   50     -3.60124    0.00016
   51     -3.14239    0.00000
   52     -3.13080    0.00000
   53     -2.76830    0.00000
   54     -1.83101    0.00000
   55     -1.65803    0.00000
   56     -1.55785    0.00000
   57     -1.12474    0.00000
   58     -0.84275    0.00000
   59     -0.68277    0.00000
   60      0.13570    0.00000
   61      0.67618    0.00000
   62      1.00403    0.00000
   63      2.20633    0.00000
   64      2.64785    0.00000
   65      2.88793    0.00000
   66      3.42466    0.00000
   67      3.68580    0.00000
   68      4.71622    0.00000
   69      4.96016    0.00000
   70      5.23742    0.00000
   71      5.40500    0.00000
   72      6.30438    0.00000
   73      6.52290    0.00000
   74      6.70186    0.00000
   75      7.14020    0.00000
   76      7.29002    0.00000
   77      7.43874    0.00000
   78      7.91117    0.00000
   79      8.15549    0.00000
   80      8.17921    0.00000
   81      8.33863    0.00000
   82      8.45787    0.00000
   83      8.72499    0.00000
   84      8.78082    0.00000
   85      8.87103    0.00000
   86      9.06036    0.00000
   87      9.10462    0.00000
   88      9.30693    0.00000
   89      9.31889    0.00000
   90      9.52112    0.00000
   91      9.54452    0.00000
   92      9.70962    0.00000
   93      9.78250    0.00000
   94      9.98240    0.00000
   95     10.11004    0.00000
   96     10.16237    0.00000
   97     10.29268    0.00000


Forces in eV/Ang:
  0 C     0.00268   -0.01456   -0.04520
  1 C    -0.00423    0.04026    0.00856
  2 C    -0.01841   -0.00467   -0.04172
  3 C     0.01839   -0.04846    0.01016
  4 C     0.02222   -0.00000   -0.02570
  5 C    -0.03338    0.01455    0.03620
  6 C    -0.00853   -0.00191    0.01822
  7 C     0.01434    0.01722    0.03291
  8 C     0.01964    0.00150    0.03278
  9 C    -0.00068   -0.00792   -0.01413
 10 C    -0.05583    0.01418   -0.00202
 11 C    -0.02147    0.02099    0.01152
 12 C     0.05723    0.01424   -0.02798
 13 C     0.01568   -0.02873    0.00616
 14 C     0.00365   -0.01053    0.01895
 15 C     0.01411   -0.03316    0.00132
 16 C    -0.00468    0.00984   -0.00845
 17 C     0.00927   -0.03727   -0.00656
 18 C    -0.00223    0.01730    0.02536
 19 C    -0.04044   -0.03092   -0.00022
 20 C    -0.00724    0.00692    0.04415
 21 C    -0.00410   -0.00577    0.00451
 22 C    -0.00787    0.00301    0.01562
 23 C     0.03654   -0.02258   -0.09492

System changes: positions 

Initializing position-dependent things.

Density initialized from wave functions
           .--------------------------------------.  
          /|                                      |  
         / |                                      |  
        /  |                                      |  
       /   |                                      |  
      /    |                                      |  
     /     |                                      |  
    /      |                                      |  
   /       |                  C                   |  
  /        |          C  C C   C                  |  
 *         |          C  C      C                 |  
 |         |                  C                   |  
 |         .-----C--C-C---C--C-C------------------.  
 |        /      C  C     C    C                 /   
 |       /            C                         /    
 |      /                                      /     
 |     /                                      /      
 |    /                                      /       
 |   /                                      /        
 |  /                                      /         
 | /                                      /          
 |/                                      /           
 *--------------------------------------*            

Positions:
   0 C      7.525059    9.811336    5.837654
   1 C      6.224400    9.203543    5.697818
   2 C     10.627483    5.455231    5.916923
   3 C      9.795588    8.636564    6.919010
   4 C      6.016135    6.481171    5.300579
   5 C      7.933117    3.321990    5.147377
   6 C      7.951767    7.628908    5.684363
   7 C      9.876053    6.236180    4.810481
   8 C      8.441614    6.386795    5.162681
   9 C      6.474422    7.813669    5.579242
  10 C      6.886237    4.203016    4.988844
  11 C      9.188774    3.582428    5.431584
  12 C     10.524673    7.556521    7.017922
  13 C      8.550206    8.752605    6.307874
  14 C     11.094730    6.373765    6.860844
  15 C      7.241261    5.641464    5.079004
  16 C     10.319424    4.086785    5.861561
  17 C      9.883983    9.623055    3.373804
  18 C     10.217285    8.362265    3.507213
  19 C     10.348116    7.127630    3.916522
  20 C      8.097267   10.680945    4.898117
  21 C      9.072543   10.390660    4.093468
  22 C      5.429634    4.302604    5.003844
  23 C      4.975666    5.494121    5.237282

Unit cell:
           periodic     x           y           z      points  spacing
  1. axis:    yes   16.000000    0.000000    0.000000    80     0.2000
  2. axis:    yes    0.000000   16.000000    0.000000    80     0.2000
  3. axis:    yes    0.000000    0.000000   10.000000    48     0.2083

Effective grid spacing dv^(1/3) = 0.2027

                     log10-error:    total        iterations:
           time      wfs    density  energy       fermi  poisson
iter:   1  10:04:30          +inf  -180.493581    2      5      
iter:   2  10:04:30         -3.10  -180.493676    2      1      
iter:   3  10:04:31         -3.20  -180.493497    2      1      
iter:   4  10:04:31         -3.35  -180.493086    2      1      
iter:   5  10:04:32         -3.45  -180.492985    2      1      
iter:   6  10:04:33         -3.73  -180.492632    2      1      
iter:   7  10:04:33         -3.80  -180.492945    2      1      
iter:   8  10:04:34         -4.09  -180.493266    2      1      

Converged after 8 iterations.

Dipole moment: (0.279122, -0.012234, -0.152783) |e|*Ang

Energy contributions relative to reference atoms: (reference = -24663.074771)

Kinetic:       +108.653916
Potential:     -115.989729
External:        +0.000000
XC:            -176.082290
Entropy (-ST):   -0.190651
Local:           +3.020163
--------------------------
Free energy:   -180.588592
Extrapolated:  -180.493266

Fermi level: -4.54606

 Band  Eigenvalues  Occupancy
    0    -23.17469    2.00000
    1    -22.01123    2.00000
    2    -21.76169    2.00000
    3    -20.77472    2.00000
    4    -20.56555    2.00000
    5    -20.11235    2.00000
    6    -19.61768    2.00000
    7    -19.23802    2.00000
    8    -18.98892    2.00000
    9    -18.40727    2.00000
   10    -17.58438    2.00000
   11    -16.87193    2.00000
   12    -16.46498    2.00000
   13    -16.37025    2.00000
   14    -15.83510    2.00000
   15    -14.90430    2.00000
   16    -14.34146    2.00000
   17    -13.71814    2.00000
   18    -13.51149    2.00000
   19    -13.31846    2.00000
   20    -12.86375    2.00000
   21    -12.46833    2.00000
   22    -11.90471    2.00000
   23    -11.70375    2.00000
   24    -11.42834    2.00000
   25    -10.77251    2.00000
   26    -10.41425    2.00000
   27    -10.34966    2.00000
   28     -9.98408    2.00000
   29     -9.73662    2.00000
   30     -9.30098    2.00000
   31     -8.98808    2.00000
   32     -8.85575    2.00000
   33     -8.76172    2.00000
   34     -8.07524    2.00000
   35     -7.87898    2.00000
   36     -7.83480    2.00000
   37     -7.65557    2.00000
   38     -7.39941    2.00000
   39     -6.76332    2.00000
   40     -6.62565    2.00000
   41     -6.04015    2.00000
   42     -5.77824    1.99999
   43     -5.68327    1.99998
   44     -5.33347    1.99924
   45     -5.23054    1.99787
   46     -5.02824    1.98402
   47     -4.71245    1.68150
   48     -4.38635    0.33677
   49     -3.71029    0.00047
   50     -3.60273    0.00016
   51     -3.14303    0.00000
   52     -3.13199    0.00000
   53     -2.76649    0.00000
   54     -1.82937    0.00000
   55     -1.66293    0.00000
   56     -1.56074    0.00000
   57     -1.12169    0.00000
   58     -0.83758    0.00000
   59     -0.67680    0.00000
   60      0.14224    0.00000
   61      0.67852    0.00000
   62      1.00869    0.00000
   63      2.20102    0.00000
   64      2.64736    0.00000
   65      2.88612    0.00000
   66      3.43050    0.00000
   67      3.68761    0.00000
   68      4.70741    0.00000
   69      4.95640    0.00000
   70      5.22754    0.00000
   71      5.39807    0.00000
   72      6.31651    0.00000
   73      6.52550    0.00000
   74      6.70058    0.00000
   75      7.14018    0.00000
   76      7.29395    0.00000
   77      7.43747    0.00000
   78      7.92609    0.00000
   79      8.14870    0.00000
   80      8.17870    0.00000
   81      8.33492    0.00000
   82      8.45517    0.00000
   83      8.72420    0.00000
   84      8.78317    0.00000
   85      8.86967    0.00000
   86      9.05670    0.00000
   87      9.10466    0.00000
   88      9.30665    0.00000
   89      9.31627    0.00000
   90      9.51315    0.00000
   91      9.54224    0.00000
   92      9.71726    0.00000
   93      9.77735    0.00000
   94      9.98224    0.00000
   95     10.10840    0.00000
   96     10.16370    0.00000
   97     10.29710    0.00000


Forces in eV/Ang:
  0 C     0.01201    0.02317   -0.03511
  1 C     0.00620   -0.04060    0.02968
  2 C    -0.01450    0.00813   -0.03801
  3 C     0.00522   -0.00982    0.02338
  4 C     0.02357   -0.01011   -0.01730
  5 C     0.00441    0.04462    0.07067
  6 C    -0.02550    0.02909    0.01564
  7 C     0.02322   -0.01633    0.02654
  8 C     0.00853    0.00294    0.02665
  9 C     0.00029    0.02400   -0.00186
 10 C    -0.06443    0.00264    0.00222
 11 C    -0.04604   -0.00086   -0.00590
 12 C     0.07370    0.00523   -0.04749
 13 C     0.01423   -0.02718    0.01873
 14 C    -0.01400   -0.01767    0.04061
 15 C     0.04172   -0.02476    0.00934
 16 C    -0.02738    0.02019   -0.02206
 17 C    -0.02261   -0.00947   -0.00023
 18 C    -0.00328    0.01683    0.03716
 19 C    -0.02075   -0.01525   -0.02017
 20 C     0.01050   -0.01580    0.04507
 21 C     0.02872   -0.03138   -0.00576
 22 C     0.02452   -0.01768   -0.00238
 23 C     0.02302    0.02252   -0.08366

