
  ___ ___ ___ _ _ _  
 |   |   |_  | | | | 
 | | | | | . | | | | 
 |__ |  _|___|_____|  1.3.0b1
 |___|_|             

User:   esb@s65n21.grendel.cscaa.dk
Date:   Thu Nov  9 09:42:33 2017
Arch:   x86_64
Pid:    2199
Python: 2.7.13
gpaw:   /home/esb/DFT/gpaw_git/gpaw
_gpaw:  /home/esb/DFT/gpaw_git/build/bin.linux-x86_64-2.7/gpaw-python
ase:    /home/esb/DFT/ase_git/ase (version 3.15.0b1)
numpy:  /comm/swstack/core/python/2.7.13/lib/python2.7/site-packages/numpy (version 1.13.3)
scipy:  /comm/swstack/core/python/2.7.13/lib/python2.7/site-packages/scipy (version 0.19.1)
units:  Angstrom and eV
cores:  16
Extra parameters: {'blacs': True}

Input parameters:
  basis: dzp
  gpts: [80 80 48]
  kpts: [1 1 1]
  maxiter: 99
  mixer: {backend: pulay,
          beta: 0.05,
          method: separate,
          nmaxold: 5,
          weight: 75}
  mode: lcao
  nbands: -50
  occupations: {name: fermi-dirac,
                width: 0.1}
  poissonsolver: {eps: 1e-07,
                  name: fd,
                  nn: 3,
                  relax: GS}
  xc: PBE

System changes: positions, numbers, cell, pbc, initial_charges, initial_magmoms 

Initialize ...

C-setup:
  name: Carbon
  id: 4aa54d4b901d75f77cc0ea3eec22967b
  Z: 6
  valence: 4
  core: 2
  charge: 0.0
  file: /home/esb/DFT/gpaw-setups-0.8.7929/C.PBE.gz
  cutoffs: 0.64(comp), 1.14(filt), 1.14(core), lmax=2
  valence states:
                energy  radius
    2s(2.00)   -13.751   0.635
    2p(2.00)    -5.284   0.635
    *s          13.461   0.635
    *p          21.927   0.635
    *d           0.000   0.635

  LCAO basis set for C:
    Name: dzp
    File: /home/esb/DFT/gpaw-setups-0.8.7929/C.dzp.basis.gz
    Number of radial functions: 5
    Number of spherical harmonics: 13
      l=0, rc=5.5469 Bohr: 2s-sz confined orbital
      l=1, rc=6.6719 Bohr: 2p-sz confined orbital
      l=0, rc=3.0312 Bohr: 2s-dz split-valence wave
      l=1, rc=3.7500 Bohr: 2p-dz split-valence wave
      l=2, rc=6.6719 Bohr: d-type Gaussian polarization

Reference energy: -24663.074771

Spin-paired calculation

Occupation numbers:
  Fermi-Dirac: width=0.1000 eV

Convergence criteria:
  Maximum total energy change: 0.0005 eV / electron
  Maximum integral of absolute density change: 0.0001 electrons
  Maximum integral of absolute eigenstate change: 4e-08 eV^2
  Maximum number of iterations: 99

Symmetries present (total): 1

  ( 1  0  0)
  ( 0  1  0)
  ( 0  0  1)

1 k-point (Gamma)
1 k-point in the irreducible part of the Brillouin zone
       k-points in crystal coordinates                weights
   0:     0.00000000    0.00000000    0.00000000          1/1

Wave functions: LCAO
  Diagonalizer: Serial LAPACK
  Atomic Correction: dense with blas
  Datatype: float
  Eigensolver: None 

LCAO using direct dense diagonalizer 

Densities:
  Coarse grid: 80*80*48 grid
  Fine grid: 160*160*96 grid
  Total Charge: 0.000000 

Density mixing:
  Method: separate
  Backend: pulay
  Linear mixing parameter: 0.05
  Mixing with 5 old densities
  Damping of long wave oscillations: 75 

Hamiltonian:
  XC and Coulomb potentials evaluated on a 160*160*96 grid
  Using the PBE Exchange-Correlation functional
  Interpolation: tri-quintic (5. degree polynomial)
  Poisson solver: Gauss-Seidel solver with 6 multi-grid levels
    Coarsest grid: 5 x 5 x 3 points
    Stencil: 6*3+1=19 point O(h^6) finite-difference Laplacian
    Max iterations: 1000
    Tolerance: 1.000000e-07 

Memory estimate:
  Process memory now: 79.55 MiB
  Calculator: 15.59 MiB
    Density: 6.13 MiB
      Arrays: 3.81 MiB
      Localized functions: 0.86 MiB
      Mixer: 1.46 MiB
    Hamiltonian: 5.40 MiB
      Arrays: 2.49 MiB
      XC: 0.00 MiB
      Poisson: 2.85 MiB
      vbar: 0.07 MiB
    Wavefunctions: 4.05 MiB
      C [qnM]: 0.23 MiB
      S, T [2 x qmm]: 1.49 MiB
      P [aqMi]: 0.01 MiB
      TCI: 0.00 MiB
      BasisFunctions: 2.33 MiB
      Eigensolver: 0.00 MiB

Total number of cores used: 16
Domain decomposition: 2 x 4 x 2

Number of atoms: 24
Number of atomic orbitals: 312
Number of bands in calculation: 98
Bands to converge: occupied states only
Number of valence electrons: 96

... initialized

Initializing position-dependent things.

Density initialized from atomic densities
           .--------------------------------------.  
          /|                                      |  
         / |                                      |  
        /  |                                      |  
       /   |                                      |  
      /    |                                      |  
     /     |                                      |  
    /      |                                      |  
   /       |                                      |  
  /        |           C     C C C                |  
 *         |   C C  C     C    C C                |  
 |         |  C           C   CC  C               |  
 |         .------C--C--CC-CC---------------------.  
 |        /      C      C                        /   
 |       /         C                            /    
 |      /                                      /     
 |     /                                      /      
 |    /                                      /       
 |   /                                      /        
 |  /                                      /         
 | /                                      /          
 |/                                      /           
 *--------------------------------------*            

Positions:
   0 C      3.509808    6.783443    5.873978
   1 C     11.179025    7.557348    5.664344
   2 C     10.672979    6.227493    5.601601
   3 C      5.287113    6.447587    4.609432
   4 C      9.938603    9.843161    5.548405
   5 C     10.070118    8.461115    5.499478
   6 C     12.080157    6.457487    5.861338
   7 C     10.363612   11.214820    5.104439
   8 C      5.155535    5.064773    4.557319
   9 C      6.220952    4.376574    4.754138
  10 C      6.234102   10.583463    4.956606
  11 C      5.089952   10.068947    5.095744
  12 C      8.730410   11.105824    5.328144
  13 C      4.075351    9.228465    5.358003
  14 C      7.617843   10.435069    4.775765
  15 C      3.567884    8.089061    5.595037
  16 C      8.076811    9.132592    4.189437
  17 C      7.401878    7.872845    4.010417
  18 C      9.447729    8.806943    4.304330
  19 C      8.562908    4.459614    6.259982
  20 C      7.353857    4.115191    6.367381
  21 C      9.540594    5.382812    5.854151
  22 C      9.136253    6.350992    4.784174
  23 C      7.846957    6.713280    4.256454

Unit cell:
           periodic     x           y           z      points  spacing
  1. axis:    yes   16.000000    0.000000    0.000000    80     0.2000
  2. axis:    yes    0.000000   16.000000    0.000000    80     0.2000
  3. axis:    yes    0.000000    0.000000   10.000000    48     0.2083

Effective grid spacing dv^(1/3) = 0.2027

                     log10-error:    total        iterations:
           time      wfs    density  energy       fermi  poisson
iter:   1  09:42:35          +inf  -167.679811    2      6      
iter:   2  09:42:35         -0.91  -166.631160    3      3      
iter:   3  09:42:36         -0.94  -165.206267    4      3      
iter:   4  09:42:37         -1.03  -164.048033    34     4      
iter:   5  09:42:37         -1.26  -163.945583    4      3      
iter:   6  09:42:38         -1.38  -163.754067    4      3      
iter:   7  09:42:38         -1.61  -163.730602    3      3      
iter:   8  09:42:39         -1.80  -163.717017    3      2      
iter:   9  09:42:39         -1.87  -163.693059    3      3      
iter:  10  09:42:40         -2.09  -163.689452    3      2      
iter:  11  09:42:40         -2.21  -163.685965    3      2      
iter:  12  09:42:41         -2.61  -163.674283    3      2      
iter:  13  09:42:41         -2.81  -163.677854    2      1      
iter:  14  09:42:42         -2.93  -163.675019    2      1      
iter:  15  09:42:42         -3.05  -163.673229    2      1      
iter:  16  09:42:43         -3.18  -163.669397    2      1      
iter:  17  09:42:43         -3.33  -163.669669    2      1      
iter:  18  09:42:44         -3.39  -163.669152    2      1      
iter:  19  09:42:44         -3.49  -163.671339    2      1      
iter:  20  09:42:45         -3.61  -163.674289    2      1      
iter:  21  09:42:45         -3.74  -163.672025    2      1      
iter:  22  09:42:45         -3.82  -163.672397    2      1      
iter:  23  09:42:46         -3.94  -163.672893    2      1      
iter:  24  09:42:46         -4.09  -163.671523    2      1      

Converged after 24 iterations.

Dipole moment: (0.106601, 0.486801, -0.158879) |e|*Ang

Energy contributions relative to reference atoms: (reference = -24663.074771)

Kinetic:        +93.826487
Potential:     -100.794266
External:        +0.000000
XC:            -159.345148
Entropy (-ST):   -0.432779
Local:           +2.857793
--------------------------
Free energy:   -163.887912
Extrapolated:  -163.671523

Fermi level: -4.56649

 Band  Eigenvalues  Occupancy
    0    -24.23126    2.00000
    1    -23.46449    2.00000
    2    -21.42720    2.00000
    3    -21.12643    2.00000
    4    -20.50616    2.00000
    5    -20.38709    2.00000
    6    -20.06021    2.00000
    7    -19.35924    2.00000
    8    -18.62893    2.00000
    9    -18.46776    2.00000
   10    -17.68569    2.00000
   11    -16.84179    2.00000
   12    -16.21203    2.00000
   13    -15.47278    2.00000
   14    -15.33157    2.00000
   15    -14.84608    2.00000
   16    -14.68562    2.00000
   17    -14.11218    2.00000
   18    -13.26343    2.00000
   19    -12.53838    2.00000
   20    -11.85387    2.00000
   21    -11.59627    2.00000
   22    -11.31644    2.00000
   23    -10.57395    2.00000
   24    -10.25859    2.00000
   25    -10.13084    2.00000
   26     -9.72855    2.00000
   27     -9.28838    2.00000
   28     -9.16115    2.00000
   29     -8.99913    2.00000
   30     -8.87940    2.00000
   31     -8.44365    2.00000
   32     -8.32579    2.00000
   33     -8.29934    2.00000
   34     -7.95839    2.00000
   35     -7.79924    2.00000
   36     -7.68698    2.00000
   37     -7.33155    2.00000
   38     -6.91819    2.00000
   39     -6.79234    2.00000
   40     -6.43881    2.00000
   41     -6.39498    2.00000
   42     -6.12145    2.00000
   43     -5.78618    1.99999
   44     -5.58525    1.99992
   45     -5.30867    1.99880
   46     -4.77483    1.77855
   47     -4.59827    1.15756
   48     -4.50923    0.72125
   49     -4.40706    0.33756
   50     -3.98802    0.00613
   51     -3.65502    0.00022
   52     -3.18443    0.00000
   53     -2.93604    0.00000
   54     -2.61606    0.00000
   55     -2.49972    0.00000
   56     -2.04735    0.00000
   57     -1.69075    0.00000
   58     -1.32032    0.00000
   59     -1.19100    0.00000
   60     -0.63994    0.00000
   61     -0.42648    0.00000
   62     -0.18361    0.00000
   63      0.44337    0.00000
   64      0.95028    0.00000
   65      1.05061    0.00000
   66      1.08921    0.00000
   67      1.25063    0.00000
   68      1.89032    0.00000
   69      2.23510    0.00000
   70      2.49277    0.00000
   71      2.74520    0.00000
   72      3.65013    0.00000
   73      3.93551    0.00000
   74      4.63774    0.00000
   75      5.30538    0.00000
   76      5.86134    0.00000
   77      6.58551    0.00000
   78      6.88188    0.00000
   79      6.91449    0.00000
   80      7.28951    0.00000
   81      7.51177    0.00000
   82      7.75164    0.00000
   83      7.95022    0.00000
   84      8.30715    0.00000
   85      8.52427    0.00000
   86      8.61868    0.00000
   87      8.71348    0.00000
   88      8.80013    0.00000
   89      9.03250    0.00000
   90      9.11849    0.00000
   91      9.27199    0.00000
   92      9.53136    0.00000
   93      9.56093    0.00000
   94      9.64273    0.00000
   95      9.75168    0.00000
   96      9.83652    0.00000
   97      9.98903    0.00000


Forces in eV/Ang:
  0 C     0.55946   -0.31457   -0.28736
  1 C     0.63772   -0.26183    0.84139
  2 C    -0.74758   -3.77941    0.39352
  3 C    -2.41250   -1.44360    0.11764
  4 C    -0.13207    4.92386   -0.60839
  5 C     2.32235    0.50448    0.48047
  6 C     0.14383    1.95662   -0.25983
  7 C    -4.41791   -1.28828    1.37696
  8 C    -1.35663    3.12193   -0.06924
  9 C     4.37575   -1.87441    2.94507
 10 C     1.49546    0.45811    0.06721
 11 C    -1.72068   -1.13345    0.20994
 12 C     5.29221   -0.79826   -0.07823
 13 C     1.83916    2.90564   -0.37556
 14 C    -0.72856   -0.73892   -0.41300
 15 C    -0.63666   -1.50251    0.10795
 16 C    -0.95895   -0.80500   -0.46338
 17 C    -0.73538    2.92391   -0.16932
 18 C    -1.56382    0.55221   -0.71824
 19 C     2.02447    0.76322   -0.02617
 20 C    -3.05744   -0.37441   -2.53251
 21 C    -2.05274    2.20196   -2.50571
 22 C    -2.48748   -3.21398    1.12208
 23 C     4.34531   -2.74921    0.90581

System changes: positions 

Initializing position-dependent things.

Density initialized from wave functions
           .--------------------------------------.  
          /|                                      |  
         / |                                      |  
        /  |                                      |  
       /   |                                      |  
      /    |                                      |  
     /     |                                      |  
    /      |                                      |  
   /       |                                      |  
  /        |           C     C C C                |  
 *         |   C C  C     C    C C                |  
 |         |  C           C   CC  C               |  
 |         .------C--C--CC-CC---------------------.  
 |        /      C      C                        /   
 |       /         C                            /    
 |      /                                      /     
 |     /                                      /      
 |    /                                      /       
 |   /                                      /        
 |  /                                      /         
 | /                                      /          
 |/                                      /           
 *--------------------------------------*            

Positions:
   0 C      3.513806    6.781195    5.871925
   1 C     11.183582    7.555477    5.670356
   2 C     10.667637    6.200486    5.604413
   3 C      5.269873    6.437271    4.610273
   4 C      9.937659    9.878346    5.544057
   5 C     10.086713    8.464720    5.502911
   6 C     12.081184    6.471468    5.859481
   7 C     10.332043   11.205614    5.114278
   8 C      5.145841    5.087082    4.556824
   9 C      6.252220    4.363180    4.775182
  10 C      6.244788   10.586736    4.957087
  11 C      5.077656   10.060848    5.097244
  12 C      8.768227   11.100120    5.327585
  13 C      4.088494    9.249228    5.355319
  14 C      7.612637   10.429789    4.772814
  15 C      3.563335    8.078324    5.595808
  16 C      8.069959    9.126840    4.186126
  17 C      7.396624    7.893739    4.009207
  18 C      9.436555    8.810889    4.299197
  19 C      8.577375    4.465068    6.259795
  20 C      7.332009    4.112515    6.349284
  21 C      9.525926    5.398547    5.836246
  22 C      9.118478    6.328025    4.792192
  23 C      7.878008    6.693635    4.262927

Unit cell:
           periodic     x           y           z      points  spacing
  1. axis:    yes   16.000000    0.000000    0.000000    80     0.2000
  2. axis:    yes    0.000000   16.000000    0.000000    80     0.2000
  3. axis:    yes    0.000000    0.000000   10.000000    48     0.2083

Effective grid spacing dv^(1/3) = 0.2027

                     log10-error:    total        iterations:
           time      wfs    density  energy       fermi  poisson
iter:   1  09:42:48          +inf  -165.799499    3      5      
iter:   2  09:42:49         -1.50  -165.282206    3      2      
iter:   3  09:42:49         -1.83  -165.207557    3      2      
iter:   4  09:42:50         -1.95  -165.161557    2      2      
iter:   5  09:42:50         -2.10  -165.145573    2      2      
iter:   6  09:42:51         -2.24  -165.140813    2      2      
iter:   7  09:42:51         -2.37  -165.137137    3      2      
iter:   8  09:42:52         -2.60  -165.136642    2      2      
iter:   9  09:42:52         -2.68  -165.136556    2      2      
iter:  10  09:42:53         -2.94  -165.136195    2      2      
iter:  11  09:42:53         -3.19  -165.135639    2      1      
iter:  12  09:42:54         -3.25  -165.135436    2      1      
iter:  13  09:42:54         -3.37  -165.135622    2      1      
iter:  14  09:42:55         -3.55  -165.135212    2      1      
iter:  15  09:42:55         -3.88  -165.136111    1      1      
iter:  16  09:42:56         -3.96  -165.136168    2      1      
iter:  17  09:42:56         -4.08  -165.135967    2      1      

Converged after 17 iterations.

Dipole moment: (0.173869, 0.458890, -0.129782) |e|*Ang

Energy contributions relative to reference atoms: (reference = -24663.074771)

Kinetic:        +86.365444
Potential:      -95.361102
External:        +0.000000
XC:            -158.759839
Entropy (-ST):   -0.418334
Local:           +2.828697
--------------------------
Free energy:   -165.345134
Extrapolated:  -165.135967

Fermi level: -4.57786

 Band  Eigenvalues  Occupancy
    0    -24.12723    2.00000
    1    -23.42053    2.00000
    2    -21.56992    2.00000
    3    -21.07708    2.00000
    4    -20.72171    2.00000
    5    -20.33648    2.00000
    6    -19.95261    2.00000
    7    -19.42920    2.00000
    8    -18.64808    2.00000
    9    -18.45571    2.00000
   10    -17.72594    2.00000
   11    -16.77207    2.00000
   12    -16.30588    2.00000
   13    -15.48011    2.00000
   14    -15.35569    2.00000
   15    -14.87274    2.00000
   16    -14.62504    2.00000
   17    -14.09254    2.00000
   18    -13.23229    2.00000
   19    -12.51438    2.00000
   20    -11.85002    2.00000
   21    -11.70896    2.00000
   22    -11.33490    2.00000
   23    -10.65555    2.00000
   24    -10.34322    2.00000
   25    -10.30907    2.00000
   26     -9.83338    2.00000
   27     -9.26712    2.00000
   28     -9.16964    2.00000
   29     -9.07740    2.00000
   30     -8.89991    2.00000
   31     -8.49394    2.00000
   32     -8.38169    2.00000
   33     -8.34723    2.00000
   34     -7.95839    2.00000
   35     -7.81930    2.00000
   36     -7.68807    2.00000
   37     -7.34358    2.00000
   38     -6.85248    2.00000
   39     -6.69365    2.00000
   40     -6.39774    2.00000
   41     -6.38323    2.00000
   42     -6.05839    2.00000
   43     -5.68458    1.99997
   44     -5.59243    1.99992
   45     -5.28040    1.99822
   46     -4.79490    1.79513
   47     -4.62261    1.22009
   48     -4.50938    0.67042
   49     -4.40927    0.31263
   50     -3.94389    0.00352
   51     -3.58023    0.00009
   52     -3.22275    0.00000
   53     -2.86288    0.00000
   54     -2.62643    0.00000
   55     -2.41901    0.00000
   56     -2.19488    0.00000
   57     -1.53728    0.00000
   58     -1.38881    0.00000
   59     -1.09836    0.00000
   60     -0.67938    0.00000
   61     -0.43991    0.00000
   62     -0.08001    0.00000
   63      0.39851    0.00000
   64      0.88494    0.00000
   65      1.08125    0.00000
   66      1.12472    0.00000
   67      1.32275    0.00000
   68      1.86475    0.00000
   69      2.41089    0.00000
   70      2.80736    0.00000
   71      3.01943    0.00000
   72      3.68511    0.00000
   73      3.97345    0.00000
   74      4.70239    0.00000
   75      5.29069    0.00000
   76      5.83185    0.00000
   77      6.53528    0.00000
   78      6.89472    0.00000
   79      7.07338    0.00000
   80      7.29269    0.00000
   81      7.62883    0.00000
   82      7.73898    0.00000
   83      8.19299    0.00000
   84      8.34154    0.00000
   85      8.50507    0.00000
   86      8.57169    0.00000
   87      8.69598    0.00000
   88      8.83614    0.00000
   89      9.06774    0.00000
   90      9.10938    0.00000
   91      9.32088    0.00000
   92      9.51548    0.00000
   93      9.53111    0.00000
   94      9.64233    0.00000
   95      9.77377    0.00000
   96      9.88160    0.00000
   97      9.98705    0.00000


Forces in eV/Ang:
  0 C     0.51708   -0.31164   -0.29721
  1 C     0.22821   -0.40036    0.55310
  2 C     0.30322   -2.60849    0.48453
  3 C    -2.10108   -0.37497    0.15486
  4 C    -0.44166    2.44209   -0.43213
  5 C     1.62700    1.53725   -0.12413
  6 C    -0.09448    1.51795   -0.22638
  7 C    -3.54162    0.13768    1.03365
  8 C     1.06981    0.35092    0.49667
  9 C     2.00869   -0.23942    2.60728
 10 C     0.39028    0.13236    0.24598
 11 C     0.51016    0.30553   -0.21121
 12 C     4.07615   -1.39894   -0.49122
 13 C    -0.08303    0.09565    0.25124
 14 C    -0.09526   -0.10373   -0.04986
 15 C     0.10830    0.30720   -0.26327
 16 C    -0.66852   -0.24005   -0.28935
 17 C    -0.00422   -0.26745    0.25744
 18 C    -0.92077    0.21658   -0.06772
 19 C    -0.63322   -0.22981    0.25867
 20 C    -0.91020    0.40037   -2.95446
 21 C    -1.62819    1.25026   -1.66541
 22 C    -2.28905   -2.51528    0.64147
 23 C     2.61273    0.06805    0.06064

System changes: positions 

Initializing position-dependent things.

Density initialized from wave functions
           .--------------------------------------.  
          /|                                      |  
         / |                                      |  
        /  |                                      |  
       /   |                                      |  
      /    |                                      |  
     /     |                                      |  
    /      |                                      |  
   /       |                                      |  
  /        |           C     C C C                |  
 *         |   C C  C     C    C C                |  
 |         |  C           C  C C  C               |  
 |         .------C--C--CC-CC---------------------.  
 |        /      C      C                        /   
 |       /         C                            /    
 |      /                                      /     
 |     /                                      /      
 |    /                                      /       
 |   /                                      /        
 |  /                                      /         
 | /                                      /          
 |/                                      /           
 *--------------------------------------*            

Positions:
   0 C      3.518550    6.778344    5.869211
   1 C     11.185822    7.551868    5.675522
   2 C     10.670015    6.176196    5.608809
   3 C      5.250545    6.433442    4.611675
   4 C      9.933737    9.901606    5.540040
   5 C     10.101851    8.478389    5.502003
   6 C     12.080410    6.485512    5.857399
   7 C     10.299331   11.206339    5.123858
   8 C      5.154713    5.091330    4.561153
   9 C      6.271474    4.360378    4.799149
  10 C      6.248771   10.588069    4.959269
  11 C      5.081484   10.063102    5.095471
  12 C      8.805954   11.087554    5.323248
  13 C      4.088455    9.251156    5.357382
  14 C      7.611528   10.428602    4.772222
  15 C      3.564046    8.080454    5.593540
  16 C      8.063737    9.124433    4.183415
  17 C      7.396311    7.892490    4.011401
  18 C      9.427894    8.812995    4.298334
  19 C      8.572581    4.463339    6.262053
  20 C      7.322881    4.115886    6.322428
  21 C      9.510879    5.410336    5.820703
  22 C      9.097473    6.304764    4.798238
  23 C      7.902547    6.693201    4.263798

Unit cell:
           periodic     x           y           z      points  spacing
  1. axis:    yes   16.000000    0.000000    0.000000    80     0.2000
  2. axis:    yes    0.000000   16.000000    0.000000    80     0.2000
  3. axis:    yes    0.000000    0.000000   10.000000    48     0.2083

Effective grid spacing dv^(1/3) = 0.2027

                     log10-error:    total        iterations:
           time      wfs    density  energy       fermi  poisson
iter:   1  09:42:58          +inf  -166.425073    3      5      
iter:   2  09:42:58         -1.65  -166.164710    3      2      
iter:   3  09:42:59         -1.91  -166.096854    2      2      
iter:   4  09:42:59         -2.12  -166.072341    2      2      
iter:   5  09:43:00         -2.26  -166.057944    2      2      
iter:   6  09:43:00         -2.45  -166.054531    2      2      
iter:   7  09:43:01         -2.58  -166.052435    2      2      
iter:   8  09:43:01         -2.77  -166.052673    2      2      
iter:   9  09:43:02         -2.99  -166.049076    2      1      
iter:  10  09:43:02         -3.12  -166.053239    2      2      
iter:  11  09:43:03         -3.36  -166.053863    2      1      
iter:  12  09:43:03         -3.42  -166.052310    2      1      
iter:  13  09:43:04         -3.65  -166.053828    2      1      
iter:  14  09:43:04         -3.74  -166.053878    2      1      
iter:  15  09:43:05         -3.85  -166.053078    2      1      
iter:  16  09:43:05         -4.04  -166.053559    2      1      

Converged after 16 iterations.

Dipole moment: (0.197844, 0.420207, -0.101971) |e|*Ang

Energy contributions relative to reference atoms: (reference = -24663.074771)

Kinetic:        +87.945755
Potential:      -96.610816
External:        +0.000000
XC:            -160.053704
Entropy (-ST):   -0.394535
Local:           +2.862475
--------------------------
Free energy:   -166.250826
Extrapolated:  -166.053559

Fermi level: -4.54379

 Band  Eigenvalues  Occupancy
    0    -24.07071    2.00000
    1    -23.47468    2.00000
    2    -21.67249    2.00000
    3    -21.05483    2.00000
    4    -20.96084    2.00000
    5    -20.27839    2.00000
    6    -19.91465    2.00000
    7    -19.50428    2.00000
    8    -18.64625    2.00000
    9    -18.49804    2.00000
   10    -17.69469    2.00000
   11    -16.70496    2.00000
   12    -16.34190    2.00000
   13    -15.49998    2.00000
   14    -15.36552    2.00000
   15    -14.87112    2.00000
   16    -14.58448    2.00000
   17    -14.05087    2.00000
   18    -13.19092    2.00000
   19    -12.48337    2.00000
   20    -11.86625    2.00000
   21    -11.78435    2.00000
   22    -11.33120    2.00000
   23    -10.75110    2.00000
   24    -10.52238    2.00000
   25    -10.37152    2.00000
   26     -9.94293    2.00000
   27     -9.30253    2.00000
   28     -9.16761    2.00000
   29     -9.12022    2.00000
   30     -8.93654    2.00000
   31     -8.53749    2.00000
   32     -8.43493    2.00000
   33     -8.39925    2.00000
   34     -7.96525    2.00000
   35     -7.85008    2.00000
   36     -7.69601    2.00000
   37     -7.34191    2.00000
   38     -6.83554    2.00000
   39     -6.70539    2.00000
   40     -6.41481    2.00000
   41     -6.34635    2.00000
   42     -6.02164    2.00000
   43     -5.68334    1.99998
   44     -5.57840    1.99994
   45     -5.22637    1.99783
   46     -4.77210    1.81493
   47     -4.60456    1.29485
   48     -4.47127    0.65252
   49     -4.34319    0.23716
   50     -3.88444    0.00273
   51     -3.48587    0.00005
   52     -3.19354    0.00000
   53     -2.77290    0.00000
   54     -2.57969    0.00000
   55     -2.33220    0.00000
   56     -2.21368    0.00000
   57     -1.44076    0.00000
   58     -1.38096    0.00000
   59     -0.97601    0.00000
   60     -0.64383    0.00000
   61     -0.39596    0.00000
   62      0.02957    0.00000
   63      0.47006    0.00000
   64      0.93021    0.00000
   65      1.15325    0.00000
   66      1.19432    0.00000
   67      1.42264    0.00000
   68      1.93593    0.00000
   69      2.55855    0.00000
   70      3.13736    0.00000
   71      3.36479    0.00000
   72      3.79367    0.00000
   73      4.09610    0.00000
   74      4.65159    0.00000
   75      5.29574    0.00000
   76      5.84896    0.00000
   77      6.53154    0.00000
   78      6.98148    0.00000
   79      7.17187    0.00000
   80      7.33352    0.00000
   81      7.72860    0.00000
   82      7.81718    0.00000
   83      8.23239    0.00000
   84      8.34084    0.00000
   85      8.54046    0.00000
   86      8.57219    0.00000
   87      8.70096    0.00000
   88      8.89053    0.00000
   89      9.11119    0.00000
   90      9.16377    0.00000
   91      9.39390    0.00000
   92      9.51693    0.00000
   93      9.54231    0.00000
   94      9.68358    0.00000
   95      9.81509    0.00000
   96      9.89509    0.00000
   97     10.00649    0.00000


Forces in eV/Ang:
  0 C     0.60887   -0.11464   -0.42094
  1 C    -0.33481   -0.25261    0.27645
  2 C     0.81850   -1.82974    0.66046
  3 C    -2.04269    0.04900    0.20159
  4 C    -0.51482    0.50855   -0.14970
  5 C     1.41919    1.79312   -0.34265
  6 C    -0.04361    0.98595   -0.13564
  7 C    -2.51434    1.48151    0.65202
  8 C     1.64598   -0.51445    0.66799
  9 C     1.58739    0.09910    2.75305
 10 C     0.47404    0.16922    0.30724
 11 C     0.18849    0.12729   -0.15758
 12 C     2.83641   -1.65190   -0.68421
 13 C     0.13635    0.29791    0.20890
 14 C     0.23682    0.11301    0.01826
 15 C     0.09471    0.07204   -0.22573
 16 C    -0.54175    0.06688   -0.13949
 17 C    -0.03281   -0.73994    0.27062
 18 C    -0.66115    0.04778    0.26905
 19 C    -0.91993   -0.30205    0.27318
 20 C    -0.86526    0.54233   -3.27485
 21 C    -1.28069    0.37419   -0.94212
 22 C    -1.92582   -1.95408    0.28891
 23 C     1.66509    0.61424   -0.35777

System changes: positions 

Initializing position-dependent things.

Density initialized from wave functions
           .--------------------------------------.  
          /|                                      |  
         / |                                      |  
        /  |                                      |  
       /   |                                      |  
      /    |                                      |  
     /     |                                      |  
    /      |                                      |  
   /       |                                      |  
  /        |           C     C C C                |  
 *         |   C C  C     C    C C                |  
 |         |  C           C  C C   C              |  
 |         .------C--C--CC-CC---------------------.  
 |        /      C C     C                       /   
 |       /                                      /    
 |      /                                      /     
 |     /                                      /      
 |    /                                      /       
 |   /                                      /        
 |  /                                      /         
 | /                                      /          
 |/                                      /           
 *--------------------------------------*            

Positions:
   0 C      3.525509    6.776888    5.864500
   1 C     11.182994    7.549077    5.679302
   2 C     10.677470    6.153004    5.616103
   3 C      5.226690    6.432137    4.613892
   4 C      9.928355    9.912432    5.537868
   5 C     10.119245    8.497200    5.499125
   6 C     12.080223    6.497808    5.855734
   7 C     10.268564   11.220234    5.132089
   8 C      5.169574    5.090118    4.567842
   9 C      6.293389    4.358878    4.831020
  10 C      6.255748   10.590454    4.962477
  11 C      5.080607   10.062580    5.094246
  12 C      8.841052   11.069723    5.316166
  13 C      4.092669    9.258528    5.358884
  14 C      7.613073   10.428811    4.771851
  15 C      3.564049    8.078799    5.591475
  16 C      8.057027    9.124152    4.181458
  17 C      7.394887    7.889034    4.013862
  18 C      9.419208    8.814153    4.300219
  19 C      8.566154    4.461389    6.264750
  20 C      7.309814    4.120853    6.285826
  21 C      9.495365    5.416632    5.808184
  22 C      9.074902    6.280996    4.802496
  23 C      7.924798    6.695714    4.261242

Unit cell:
           periodic     x           y           z      points  spacing
  1. axis:    yes   16.000000    0.000000    0.000000    80     0.2000
  2. axis:    yes    0.000000   16.000000    0.000000    80     0.2000
  3. axis:    yes    0.000000    0.000000   10.000000    48     0.2083

Effective grid spacing dv^(1/3) = 0.2027

                     log10-error:    total        iterations:
           time      wfs    density  energy       fermi  poisson
iter:   1  09:43:07          +inf  -167.216507    3      5      
iter:   2  09:43:07         -1.68  -167.020810    3      2      
iter:   3  09:43:08         -1.92  -166.943542    2      2      
iter:   4  09:43:08         -2.16  -166.929655    2      2      
iter:   5  09:43:09         -2.26  -166.916129    2      2      
iter:   6  09:43:09         -2.44  -166.911776    2      2      
iter:   7  09:43:10         -2.61  -166.911018    2      2      
iter:   8  09:43:10         -2.83  -166.911474    2      2      
iter:   9  09:43:11         -3.06  -166.909814    2      1      
iter:  10  09:43:11         -3.16  -166.908880    2      1      
iter:  11  09:43:12         -3.38  -166.912415    2      1      
iter:  12  09:43:12         -3.46  -166.912514    2      1      
iter:  13  09:43:13         -3.57  -166.912015    2      1      
iter:  14  09:43:13         -3.68  -166.912368    2      1      
iter:  15  09:43:13         -3.77  -166.912233    2      1      
iter:  16  09:43:14         -3.85  -166.910929    2      1      
iter:  17  09:43:14         -4.13  -166.911798    2      1      

Converged after 17 iterations.

Dipole moment: (0.222078, 0.346638, -0.076555) |e|*Ang

Energy contributions relative to reference atoms: (reference = -24663.074771)

Kinetic:        +89.893700
Potential:      -98.070500
External:        +0.000000
XC:            -161.427581
Entropy (-ST):   -0.359333
Local:           +2.872250
--------------------------
Free energy:   -167.091464
Extrapolated:  -166.911798

Fermi level: -4.51247

 Band  Eigenvalues  Occupancy
    0    -24.05237    2.00000
    1    -23.54464    2.00000
    2    -21.73323    2.00000
    3    -21.26582    2.00000
    4    -20.92016    2.00000
    5    -20.22292    2.00000
    6    -19.87221    2.00000
    7    -19.51847    2.00000
    8    -18.61441    2.00000
    9    -18.55383    2.00000
   10    -17.67616    2.00000
   11    -16.64875    2.00000
   12    -16.37159    2.00000
   13    -15.58852    2.00000
   14    -15.36203    2.00000
   15    -14.86187    2.00000
   16    -14.53375    2.00000
   17    -13.99948    2.00000
   18    -13.15879    2.00000
   19    -12.45551    2.00000
   20    -11.99277    2.00000
   21    -11.74562    2.00000
   22    -11.34521    2.00000
   23    -11.00077    2.00000
   24    -10.63001    2.00000
   25    -10.39731    2.00000
   26    -10.06003    2.00000
   27     -9.35185    2.00000
   28     -9.21382    2.00000
   29     -9.09556    2.00000
   30     -8.95336    2.00000
   31     -8.58223    2.00000
   32     -8.46769    2.00000
   33     -8.43697    2.00000
   34     -7.94382    2.00000
   35     -7.87852    2.00000
   36     -7.71189    2.00000
   37     -7.32459    2.00000
   38     -6.83522    2.00000
   39     -6.78389    2.00000
   40     -6.40918    2.00000
   41     -6.29290    2.00000
   42     -5.97980    2.00000
   43     -5.69885    1.99999
   44     -5.51834    1.99991
   45     -5.16586    1.99710
   46     -4.75772    1.84149
   47     -4.59088    1.37313
   48     -4.43985    0.65205
   49     -4.24905    0.13394
   50     -3.83898    0.00237
   51     -3.36158    0.00002
   52     -3.18957    0.00000
   53     -2.68909    0.00000
   54     -2.51190    0.00000
   55     -2.24750    0.00000
   56     -2.20524    0.00000
   57     -1.40533    0.00000
   58     -1.32874    0.00000
   59     -0.85026    0.00000
   60     -0.59785    0.00000
   61     -0.34590    0.00000
   62      0.12810    0.00000
   63      0.53441    0.00000
   64      0.97134    0.00000
   65      1.24701    0.00000
   66      1.31017    0.00000
   67      1.53303    0.00000
   68      2.02870    0.00000
   69      2.71205    0.00000
   70      3.36043    0.00000
   71      3.61331    0.00000
   72      3.97319    0.00000
   73      4.22358    0.00000
   74      4.65283    0.00000
   75      5.32246    0.00000
   76      5.85075    0.00000
   77      6.52274    0.00000
   78      7.11714    0.00000
   79      7.26068    0.00000
   80      7.39136    0.00000
   81      7.81753    0.00000
   82      7.91375    0.00000
   83      8.25754    0.00000
   84      8.40372    0.00000
   85      8.55755    0.00000
   86      8.59522    0.00000
   87      8.72568    0.00000
   88      8.94068    0.00000
   89      9.13390    0.00000
   90      9.21665    0.00000
   91      9.45611    0.00000
   92      9.50391    0.00000
   93      9.56026    0.00000
   94      9.75724    0.00000
   95      9.85645    0.00000
   96      9.94409    0.00000
   97     10.01974    0.00000


Forces in eV/Ang:
  0 C     0.74463   -0.02614   -0.57191
  1 C    -0.72259   -0.23076    0.08228
  2 C     0.97296   -1.24505    0.85018
  3 C    -2.05439    0.18686    0.26416
  4 C    -0.32776   -0.41428   -0.12319
  5 C     1.27857    1.59219   -0.44278
  6 C     0.10055    0.55285   -0.06303
  7 C    -1.36856    2.26130    0.47113
  8 C     2.10950   -1.00827    0.80729
  9 C     1.33004    0.35994    3.05701
 10 C     0.23496    0.09751    0.40661
 11 C     0.68708    0.46393   -0.26800
 12 C     1.47006   -1.74675   -0.71019
 13 C    -0.26944   -0.29698    0.36889
 14 C     0.23059    0.16454   -0.05314
 15 C     0.25622    0.38376   -0.28801
 16 C    -0.41943    0.13439   -0.05739
 17 C    -0.09523   -0.83778    0.25495
 18 C    -0.55322    0.02884    0.54827
 19 C    -1.33336   -0.44211    0.24982
 20 C    -0.79955    0.69860   -3.70498
 21 C    -0.58732   -0.20783   -0.28633
 22 C    -1.58228   -1.45766   -0.11953
 23 C     0.72591    0.99080   -0.69643

System changes: positions 

Initializing position-dependent things.

Density initialized from wave functions
           .--------------------------------------.  
          /|                                      |  
         / |                                      |  
        /  |                                      |  
       /   |                                      |  
      /    |                                      |  
     /     |                                      |  
    /      |                                      |  
   /       |                                      |  
  /        |           C      CC C                |  
 *         |   C C  C     C    C C                |  
 |         |  C           C  C C   C              |  
 |         .------C--C--CC-CC---------------------.  
 |        /      C C     C                       /   
 |       /                                      /    
 |      /                                      /     
 |     /                                      /      
 |    /                                      /       
 |   /                                      /        
 |  /                                      /         
 | /                                      /          
 |/                                      /           
 *--------------------------------------*            

Positions:
   0 C      3.533115    6.775927    5.858969
   1 C     11.178226    7.546452    5.681850
   2 C     10.684214    6.134121    5.624258
   3 C      5.203815    6.430646    4.616422
   4 C      9.925275    9.919691    5.535415
   5 C     10.135215    8.511997    5.496327
   6 C     12.081378    6.506840    5.854616
   7 C     10.247227   11.236772    5.139177
   8 C      5.185032    5.088009    4.574687
   9 C      6.314053    4.358090    4.863658
  10 C      6.260753   10.592205    4.966146
  11 C      5.083367   10.064480    5.092286
  12 C      8.865136   11.052955    5.309894
  13 C      4.093865    9.261626    5.361392
  14 C      7.613443   10.428649    4.770511
  15 C      3.565029    8.079282    5.589146
  16 C      8.051366    9.123547    4.179948
  17 C      7.392581    7.887840    4.015744
  18 C      9.411084    8.815608    4.303412
  19 C      8.558683    4.459085    6.266874
  20 C      7.296636    4.126149    6.248432
  21 C      9.485959    5.419673    5.800294
  22 C      9.055874    6.261502    4.803867
  23 C      7.940339    6.698583    4.257169

Unit cell:
           periodic     x           y           z      points  spacing
  1. axis:    yes   16.000000    0.000000    0.000000    80     0.2000
  2. axis:    yes    0.000000   16.000000    0.000000    80     0.2000
  3. axis:    yes    0.000000    0.000000   10.000000    48     0.2083

Effective grid spacing dv^(1/3) = 0.2027

                     log10-error:    total        iterations:
           time      wfs    density  energy       fermi  poisson
iter:   1  09:43:16          +inf  -167.806558    3      5      
iter:   2  09:43:16         -1.79  -167.680237    2      2      
iter:   3  09:43:17         -2.00  -167.621666    2      2      
iter:   4  09:43:18         -2.29  -167.613835    3      2      
iter:   5  09:43:18         -2.40  -167.606289    2      1      
iter:   6  09:43:18         -2.48  -167.605709    2      2      
iter:   7  09:43:19         -2.67  -167.606617    2      2      
iter:   8  09:43:20         -2.75  -167.605109    2      2      
iter:   9  09:43:20         -3.11  -167.605222    2      1      
iter:  10  09:43:20         -3.22  -167.603757    2      1      
iter:  11  09:43:21         -3.38  -167.604138    2      1      
iter:  12  09:43:21         -3.52  -167.604381    2      1      
iter:  13  09:43:22         -3.68  -167.605357    2      1      
iter:  14  09:43:22         -3.81  -167.606057    2      1      
iter:  15  09:43:23         -4.00  -167.606147    2      1      

Converged after 15 iterations.

Dipole moment: (0.227386, 0.257638, -0.052881) |e|*Ang

Energy contributions relative to reference atoms: (reference = -24663.074771)

Kinetic:        +91.663268
Potential:      -99.416144
External:        +0.000000
XC:            -162.571626
Entropy (-ST):   -0.337750
Local:           +2.887230
--------------------------
Free energy:   -167.775022
Extrapolated:  -167.606147

Fermi level: -4.48311

 Band  Eigenvalues  Occupancy
    0    -24.07082    2.00000
    1    -23.55770    2.00000
    2    -21.75641    2.00000
    3    -21.39967    2.00000
    4    -20.87033    2.00000
    5    -20.17463    2.00000
    6    -19.83912    2.00000
    7    -19.52033    2.00000
    8    -18.64590    2.00000
    9    -18.56082    2.00000
   10    -17.65228    2.00000
   11    -16.62258    2.00000
   12    -16.38650    2.00000
   13    -15.70483    2.00000
   14    -15.35759    2.00000
   15    -14.84297    2.00000
   16    -14.48808    2.00000
   17    -13.95325    2.00000
   18    -13.12837    2.00000
   19    -12.44447    2.00000
   20    -12.07516    2.00000
   21    -11.71645    2.00000
   22    -11.42141    2.00000
   23    -11.27204    2.00000
   24    -10.63988    2.00000
   25    -10.40037    2.00000
   26    -10.13134    2.00000
   27     -9.37995    2.00000
   28     -9.25265    2.00000
   29     -9.07635    2.00000
   30     -8.93927    2.00000
   31     -8.61934    2.00000
   32     -8.48703    2.00000
   33     -8.44343    2.00000
   34     -7.92489    2.00000
   35     -7.89264    2.00000
   36     -7.72814    2.00000
   37     -7.31268    2.00000
   38     -6.91667    2.00000
   39     -6.82419    2.00000
   40     -6.40428    2.00000
   41     -6.25354    2.00000
   42     -5.95187    2.00000
   43     -5.69260    1.99999
   44     -5.46271    1.99989
   45     -5.11977    1.99657
   46     -4.74093    1.85890
   47     -4.56874    1.40377
   48     -4.41188    0.65819
   49     -4.16578    0.08037
   50     -3.80664    0.00230
   51     -3.26412    0.00001
   52     -3.20922    0.00001
   53     -2.63869    0.00000
   54     -2.43873    0.00000
   55     -2.16838    0.00000
   56     -2.14209    0.00000
   57     -1.41424    0.00000
   58     -1.24211    0.00000
   59     -0.75169    0.00000
   60     -0.55374    0.00000
   61     -0.30477    0.00000
   62      0.21182    0.00000
   63      0.58559    0.00000
   64      1.00518    0.00000
   65      1.33894    0.00000
   66      1.41638    0.00000
   67      1.65262    0.00000
   68      2.12089    0.00000
   69      2.82897    0.00000
   70      3.45979    0.00000
   71      3.71185    0.00000
   72      4.21356    0.00000
   73      4.37979    0.00000
   74      4.71892    0.00000
   75      5.33340    0.00000
   76      5.84546    0.00000
   77      6.54827    0.00000
   78      7.22060    0.00000
   79      7.33982    0.00000
   80      7.45169    0.00000
   81      7.90286    0.00000
   82      8.01790    0.00000
   83      8.27631    0.00000
   84      8.44738    0.00000
   85      8.58101    0.00000
   86      8.62589    0.00000
   87      8.73766    0.00000
   88      8.97997    0.00000
   89      9.15599    0.00000
   90      9.26403    0.00000
   91      9.46763    0.00000
   92      9.53421    0.00000
   93      9.58669    0.00000
   94      9.81237    0.00000
   95      9.88711    0.00000
   96      9.98005    0.00000
   97     10.02630    0.00000


Forces in eV/Ang:
  0 C     0.88951    0.03241   -0.72531
  1 C    -0.91252   -0.28768   -0.04710
  2 C     1.13201   -0.81217    1.06103
  3 C    -2.11770    0.22055    0.33057
  4 C    -0.06602   -0.84507   -0.20171
  5 C     1.07988    1.39782   -0.55070
  6 C     0.14008    0.25789   -0.01891
  7 C    -0.26913    2.63803    0.41064
  8 C     2.50016   -1.35732    0.93543
  9 C     1.04374    0.60766    3.27517
 10 C     0.21673    0.13068    0.44965
 11 C     0.55802    0.38370   -0.23449
 12 C     0.12283   -1.73466   -0.68502
 13 C    -0.19066   -0.25954    0.36836
 14 C     0.25903    0.17229   -0.12384
 15 C     0.28954    0.40421   -0.28619
 16 C    -0.35892    0.20050   -0.00926
 17 C    -0.17569   -0.92145    0.23102
 18 C    -0.40015    0.00909    0.80282
 19 C    -1.58577   -0.47442    0.20321
 20 C    -0.65565    0.81253   -3.99469
 21 C    -0.11943   -0.69563    0.20466
 22 C    -1.34856   -1.13176   -0.40974
 23 C     0.05120    1.26588   -0.97393

System changes: positions 

Initializing position-dependent things.

Density initialized from wave functions
           .--------------------------------------.  
          /|                                      |  
         / |                                      |  
        /  |                                      |  
       /   |                                      |  
      /    |                                      |  
     /     |                                      |  
    /      |                                      |  
   /       |                                      |  
  /        |           C      CC C                |  
 *         |   C C  C     C    C C                |  
 |         |  C           C  C C   C              |  
 |         .------C--C--CC-C----------------------.  
 |        /      C C     C                       /   
 |       /                                      /    
 |      /                                      /     
 |     /                                      /      
 |    /                                      /       
 |   /                                      /        
 |  /                                      /         
 | /                                      /          
 |/                                      /           
 *--------------------------------------*            

Positions:
   0 C      3.541445    6.775091    5.852661
   1 C     11.173379    7.543162    5.683930
   2 C     10.691216    6.117362    5.633494
   3 C      5.180868    6.428635    4.619296
   4 C      9.924338    9.927307    5.531908
   5 C     10.149594    8.524736    5.493136
   6 C     12.082512    6.514571    5.853659
   7 C     10.232607   11.252959    5.146407
   8 C      5.201826    5.085045    4.581988
   9 C      6.332817    4.358505    4.896668
  10 C      6.265922   10.594330    4.969823
  11 C      5.084149   10.065062    5.090858
  12 C      8.880945   11.037241    5.304313
  13 C      4.096410    9.266113    5.363522
  14 C      7.613633   10.428157    4.768614
  15 C      3.565928    8.079485    5.586993
  16 C      8.045963    9.123004    4.178545
  17 C      7.389735    7.886875    4.017358
  18 C      9.403957    8.817113    4.307788
  19 C      8.550477    4.456977    6.268543
  20 C      7.284765    4.131801    6.210655
  21 C      9.479103    5.420586    5.794721
  22 C      9.038245    6.243660    4.803899
  23 C      7.952636    6.702254    4.251961

Unit cell:
           periodic     x           y           z      points  spacing
  1. axis:    yes   16.000000    0.000000    0.000000    80     0.2000
  2. axis:    yes    0.000000   16.000000    0.000000    80     0.2000
  3. axis:    yes    0.000000    0.000000   10.000000    48     0.2083

Effective grid spacing dv^(1/3) = 0.2027

                     log10-error:    total        iterations:
           time      wfs    density  energy       fermi  poisson
iter:   1  09:43:24          +inf  -168.433202    3      5      
iter:   2  09:43:25         -1.83  -168.301980    2      2      
iter:   3  09:43:25         -2.04  -168.240757    2      2      
iter:   4  09:43:26         -2.34  -168.237460    3      2      
iter:   5  09:43:26         -2.44  -168.232378    2      2      
iter:   6  09:43:27         -2.54  -168.230179    2      2      
iter:   7  09:43:27         -2.68  -168.226969    2      2      
iter:   8  09:43:28         -3.04  -168.226127    2      1      
iter:   9  09:43:28         -3.17  -168.225238    2      1      
iter:  10  09:43:29         -3.37  -168.228263    2      1      
iter:  11  09:43:29         -3.48  -168.229201    2      1      
iter:  12  09:43:30         -3.61  -168.229724    2      1      
iter:  13  09:43:30         -3.81  -168.230281    2      1      
iter:  14  09:43:31         -3.91  -168.230186    2      1      
iter:  15  09:43:31         -3.98  -168.229729    2      1      
iter:  16  09:43:32         -4.07  -168.229687    1      1      

Converged after 16 iterations.

Dipole moment: (0.227445, 0.163505, -0.034667) |e|*Ang

Energy contributions relative to reference atoms: (reference = -24663.074771)

Kinetic:        +93.524894
Potential:     -100.856471
External:        +0.000000
XC:            -163.638770
Entropy (-ST):   -0.326338
Local:           +2.903829
--------------------------
Free energy:   -168.392856
Extrapolated:  -168.229687

Fermi level: -4.45807

 Band  Eigenvalues  Occupancy
    0    -24.11693    2.00000
    1    -23.53760    2.00000
    2    -21.76728    2.00000
    3    -21.47988    2.00000
    4    -20.83492    2.00000
    5    -20.13855    2.00000
    6    -19.82982    2.00000
    7    -19.52991    2.00000
    8    -18.70160    2.00000
    9    -18.53835    2.00000
   10    -17.63904    2.00000
   11    -16.61981    2.00000
   12    -16.38873    2.00000
   13    -15.84107    2.00000
   14    -15.35051    2.00000
   15    -14.82862    2.00000
   16    -14.45119    2.00000
   17    -13.91640    2.00000
   18    -13.10222    2.00000
   19    -12.47081    2.00000
   20    -12.12976    2.00000
   21    -11.75126    2.00000
   22    -11.65563    2.00000
   23    -11.32312    2.00000
   24    -10.63017    2.00000
   25    -10.39666    2.00000
   26    -10.17137    2.00000
   27     -9.40160    2.00000
   28     -9.28369    2.00000
   29     -9.07438    2.00000
   30     -8.92031    2.00000
   31     -8.65079    2.00000
   32     -8.51663    2.00000
   33     -8.44753    2.00000
   34     -7.94066    2.00000
   35     -7.88814    2.00000
   36     -7.74642    2.00000
   37     -7.30129    2.00000
   38     -7.05245    2.00000
   39     -6.82729    2.00000
   40     -6.39613    2.00000
   41     -6.22355    2.00000
   42     -5.92670    2.00000
   43     -5.66957    1.99999
   44     -5.41153    1.99986
   45     -5.08604    1.99626
   46     -4.72773    1.87365
   47     -4.54390    1.40461
   48     -4.38914    0.66834
   49     -4.10062    0.05453
   50     -3.79924    0.00275
   51     -3.23120    0.00001
   52     -3.18236    0.00001
   53     -2.60506    0.00000
   54     -2.36916    0.00000
   55     -2.09573    0.00000
   56     -2.04293    0.00000
   57     -1.42129    0.00000
   58     -1.15670    0.00000
   59     -0.67572    0.00000
   60     -0.50232    0.00000
   61     -0.25821    0.00000
   62      0.28366    0.00000
   63      0.62411    0.00000
   64      1.03631    0.00000
   65      1.41210    0.00000
   66      1.51253    0.00000
   67      1.79214    0.00000
   68      2.20771    0.00000
   69      2.91295    0.00000
   70      3.50080    0.00000
   71      3.72216    0.00000
   72      4.21621    0.00000
   73      4.79568    0.00000
   74      4.93431    0.00000
   75      5.33889    0.00000
   76      5.83512    0.00000
   77      6.59134    0.00000
   78      7.28502    0.00000
   79      7.41782    0.00000
   80      7.51168    0.00000
   81      7.97815    0.00000
   82      8.09443    0.00000
   83      8.29518    0.00000
   84      8.50559    0.00000
   85      8.61017    0.00000
   86      8.64662    0.00000
   87      8.75379    0.00000
   88      9.01195    0.00000
   89      9.18415    0.00000
   90      9.30481    0.00000
   91      9.46066    0.00000
   92      9.57741    0.00000
   93      9.61218    0.00000
   94      9.84669    0.00000
   95      9.91008    0.00000
   96     10.01325    0.00000
   97     10.04545    0.00000


Forces in eV/Ang:
  0 C     1.06785    0.08142   -0.91226
  1 C    -1.07042   -0.28081   -0.15918
  2 C     1.19248   -0.50091    1.22736
  3 C    -2.21315    0.17469    0.44126
  4 C     0.13794   -1.08728   -0.27500
  5 C     0.92197    1.14859   -0.63428
  6 C     0.22175   -0.01948    0.03549
  7 C     0.60166    2.89010    0.34747
  8 C     2.77661   -1.57444    1.01983
  9 C     0.78122    0.82609    3.40258
 10 C     0.05492    0.11876    0.47966
 11 C     0.74613    0.49121   -0.25525
 12 C    -0.94797   -1.65544   -0.61924
 13 C    -0.34105   -0.45216    0.42097
 14 C     0.24165    0.16201   -0.17541
 15 C     0.35260    0.49013   -0.27925
 16 C    -0.28303    0.17739   -0.00036
 17 C    -0.26704   -0.89360    0.18766
 18 C    -0.28740   -0.01472    0.97954
 19 C    -1.68489   -0.47020    0.17418
 20 C    -0.53740    0.85450   -4.15998
 21 C     0.24005   -1.06610    0.54997
 22 C    -1.15626   -0.88448   -0.62167
 23 C    -0.45926    1.42338   -1.19673

System changes: positions 

Initializing position-dependent things.

Density initialized from wave functions
           .--------------------------------------.  
          /|                                      |  
         / |                                      |  
        /  |                                      |  
       /   |                                      |  
      /    |                                      |  
     /     |                                      |  
    /      |                                      |  
   /       |                                      |  
  /        |           C      CC C                |  
 *         |   C C  C     C    C C                |  
 |         |  C           C  C C   C              |  
 |         .------C--C--CC-C----------------------.  
 |        /      C C     C                       /   
 |       /                                      /    
 |      /                                      /     
 |     /                                      /      
 |    /                                      /       
 |   /                                      /        
 |  /                                      /         
 | /                                      /          
 |/                                      /           
 *--------------------------------------*            

Positions:
   0 C      3.550944    6.774401    5.845158
   1 C     11.168209    7.540017    5.685620
   2 C     10.697960    6.101392    5.643503
   3 C      5.157104    6.425687    4.622983
   4 C      9.924515    9.935717    5.527744
   5 C     10.163259    8.535667    5.489650
   6 C     12.084148    6.521146    5.852989
   7 C     10.221719   11.269064    5.153574
   8 C      5.219341    5.082002    4.589506
   9 C      6.350423    4.359836    4.929956
  10 C      6.269949   10.596369    4.973517
  11 C      5.086338   10.066378    5.089309
  12 C      8.892095   11.022512    5.299432
  13 C      4.097926    9.269600    5.365914
  14 C      7.613440   10.427357    4.766442
  15 C      3.567084    8.079980    5.585004
  16 C      8.040913    9.121837    4.176933
  17 C      7.386239    7.886915    4.018597
  18 C      9.397259    8.818540    4.312709
  19 C      8.542797    4.455282    6.270055
  20 C      7.273407    4.137259    6.172692
  21 C      9.473464    5.420267    5.790074
  22 C      9.021283    6.226477    4.803309
  23 C      7.963394    6.705867    4.245939

Unit cell:
           periodic     x           y           z      points  spacing
  1. axis:    yes   16.000000    0.000000    0.000000    80     0.2000
  2. axis:    yes    0.000000   16.000000    0.000000    80     0.2000
  3. axis:    yes    0.000000    0.000000   10.000000    48     0.2083

Effective grid spacing dv^(1/3) = 0.2027

                     log10-error:    total        iterations:
           time      wfs    density  energy       fermi  poisson
iter:   1  09:43:33          +inf  -169.032359    2      5      
iter:   2  09:43:34         -1.85  -168.894656    2      2      
iter:   3  09:43:34         -2.06  -168.829856    2      2      
iter:   4  09:43:35         -2.36  -168.826231    3      2      
iter:   5  09:43:35         -2.47  -168.822045    2      2      
iter:   6  09:43:36         -2.58  -168.820813    2      2      
iter:   7  09:43:36         -2.72  -168.817660    2      2      
iter:   8  09:43:37         -3.04  -168.815957    2      1      
iter:   9  09:43:37         -3.19  -168.816107    2      1      
iter:  10  09:43:38         -3.38  -168.819015    2      1      
iter:  11  09:43:38         -3.50  -168.819822    2      1      
iter:  12  09:43:39         -3.62  -168.821089    2      1      
iter:  13  09:43:39         -3.81  -168.820733    2      1      
iter:  14  09:43:40         -3.92  -168.820430    2      1      
iter:  15  09:43:40         -4.09  -168.820756    2      1      

Converged after 15 iterations.

Dipole moment: (0.220060, 0.075626, -0.019400) |e|*Ang

Energy contributions relative to reference atoms: (reference = -24663.074771)

Kinetic:        +95.553079
Potential:     -102.456991
External:        +0.000000
XC:            -164.666645
Entropy (-ST):   -0.321474
Local:           +2.910537
--------------------------
Free energy:   -168.981493
Extrapolated:  -168.820756

Fermi level: -4.43572

 Band  Eigenvalues  Occupancy
    0    -24.17161    2.00000
    1    -23.49330    2.00000
    2    -21.77110    2.00000
    3    -21.53336    2.00000
    4    -20.80426    2.00000
    5    -20.11078    2.00000
    6    -19.84248    2.00000
    7    -19.54306    2.00000
    8    -18.73915    2.00000
    9    -18.52435    2.00000
   10    -17.62823    2.00000
   11    -16.63790    2.00000
   12    -16.39549    2.00000
   13    -15.98293    2.00000
   14    -15.34301    2.00000
   15    -14.81120    2.00000
   16    -14.41820    2.00000
   17    -13.88713    2.00000
   18    -13.07866    2.00000
   19    -12.53646    2.00000
   20    -12.19202    2.00000
   21    -11.97668    2.00000
   22    -11.66975    2.00000
   23    -11.32943    2.00000
   24    -10.61206    2.00000
   25    -10.38596    2.00000
   26    -10.19397    2.00000
   27     -9.41513    2.00000
   28     -9.31120    2.00000
   29     -9.09175    2.00000
   30     -8.90400    2.00000
   31     -8.68005    2.00000
   32     -8.55081    2.00000
   33     -8.45397    2.00000
   34     -7.97543    2.00000
   35     -7.88716    2.00000
   36     -7.75511    2.00000
   37     -7.29060    2.00000
   38     -7.18513    2.00000
   39     -6.82646    2.00000
   40     -6.39035    2.00000
   41     -6.20586    2.00000
   42     -5.90518    2.00000
   43     -5.63388    1.99999
   44     -5.36449    1.99981
   45     -5.06201    1.99620
   46     -4.71282    1.88218
   47     -4.51939    1.39557
   48     -4.36966    0.68123
   49     -4.04932    0.04111
   50     -3.81179    0.00390
   51     -3.23256    0.00001
   52     -3.12595    0.00000
   53     -2.57841    0.00000
   54     -2.30555    0.00000
   55     -2.02777    0.00000
   56     -1.91248    0.00000
   57     -1.41913    0.00000
   58     -1.07662    0.00000
   59     -0.61785    0.00000
   60     -0.44403    0.00000
   61     -0.20421    0.00000
   62      0.34926    0.00000
   63      0.64939    0.00000
   64      1.06549    0.00000
   65      1.47156    0.00000
   66      1.59873    0.00000
   67      1.95691    0.00000
   68      2.28843    0.00000
   69      2.97201    0.00000
   70      3.51117    0.00000
   71      3.68929    0.00000
   72      4.22301    0.00000
   73      4.88963    0.00000
   74      5.33313    0.00000
   75      5.58598    0.00000
   76      5.82657    0.00000
   77      6.64002    0.00000
   78      7.33425    0.00000
   79      7.49037    0.00000
   80      7.56786    0.00000
   81      8.04187    0.00000
   82      8.16339    0.00000
   83      8.32520    0.00000
   84      8.55609    0.00000
   85      8.63024    0.00000
   86      8.68109    0.00000
   87      8.76576    0.00000
   88      9.03999    0.00000
   89      9.22092    0.00000
   90      9.34104    0.00000
   91      9.46562    0.00000
   92      9.61831    0.00000
   93      9.64011    0.00000
   94      9.86267    0.00000
   95      9.93039    0.00000
   96     10.03192    0.00000
   97     10.07434    0.00000


Forces in eV/Ang:
  0 C     1.22948    0.09975   -1.10427
  1 C    -1.18755   -0.31998   -0.24523
  2 C     1.24067   -0.18561    1.37576
  3 C    -2.33741    0.07168    0.57924
  4 C     0.35158   -1.30104   -0.32921
  5 C     0.74094    0.96533   -0.74061
  6 C     0.26248   -0.24865    0.07169
  7 C     1.35681    3.09785    0.36390
  8 C     2.99387   -1.65957    1.07982
  9 C     0.30815    1.04374    3.27288
 10 C     0.00388    0.14617    0.47569
 11 C     0.70334    0.45469   -0.22725
 12 C    -1.82821   -1.57483   -0.56376
 13 C    -0.36061   -0.49228    0.43405
 14 C     0.21653    0.15673   -0.21217
 15 C     0.39440    0.56812   -0.26295
 16 C    -0.22747    0.17994   -0.00486
 17 C    -0.36973   -0.88504    0.15151
 18 C    -0.17091   -0.04818    1.12676
 19 C    -1.75231   -0.49368    0.17206
 20 C    -0.17077    0.87307   -4.06600
 21 C     0.54099   -1.36503    0.81952
 22 C    -1.01006   -0.68475   -0.80726
 23 C    -0.86510    1.55705   -1.38511

System changes: positions 

Initializing position-dependent things.

Density initialized from wave functions
           .--------------------------------------.  
          /|                                      |  
         / |                                      |  
        /  |                                      |  
       /   |                                      |  
      /    |                                      |  
     /     |                                      |  
    /      |                                      |  
   /       |                                      |  
  /        |           C      CC C                |  
 *         |   C C  C     C    C C                |  
 |         |  C           C  C C   C              |  
 |         .------C--C--CC-C----------------------.  
 |        /      C C     C                       /   
 |       /                                      /    
 |      /                                      /     
 |     /                                      /      
 |    /                                      /       
 |   /                                      /        
 |  /                                      /         
 | /                                      /          
 |/                                      /           
 *--------------------------------------*            

Positions:
   0 C      3.562232    6.773510    5.835732
   1 C     11.162417    7.536185    5.687203
   2 C     10.705127    6.085509    5.655046
   3 C      5.130272    6.421153    4.628102
   4 C      9.926024    9.944860    5.522886
   5 C     10.176932    8.546528    5.485190
   6 C     12.085988    6.527348    5.852377
   7 C     10.213176   11.286729    5.162046
   8 C      5.238871    5.079558    4.597733
   9 C      6.365520    4.362463    4.963477
  10 C      6.274376   10.598914    4.977226
  11 C      5.087636   10.067029    5.088017
  12 C      8.900716   11.007349    5.294610
  13 C      4.099850    9.273746    5.368414
  14 C      7.612847   10.426359    4.763966
  15 C      3.568478    8.081000    5.583047
  16 C      8.035645    9.120432    4.174929
  17 C      7.381697    7.887344    4.019690
  18 C      9.390606    8.819856    4.318510
  19 C      8.534797    4.453319    6.271857
  20 C      7.264739    4.142917    6.134054
  21 C      9.468442    5.419000    5.785678
  22 C      9.003307    6.208414    4.801995
  23 C      7.973882    6.709977    4.238695

Unit cell:
           periodic     x           y           z      points  spacing
  1. axis:    yes   16.000000    0.000000    0.000000    80     0.2000
  2. axis:    yes    0.000000   16.000000    0.000000    80     0.2000
  3. axis:    yes    0.000000    0.000000   10.000000    48     0.2083

Effective grid spacing dv^(1/3) = 0.2027

                     log10-error:    total        iterations:
           time      wfs    density  energy       fermi  poisson
iter:   1  09:43:42          +inf  -169.652994    2      5      
iter:   2  09:43:42         -1.82  -169.492085    2      2      
iter:   3  09:43:43         -2.04  -169.416211    3      2      
iter:   4  09:43:43         -2.33  -169.410055    3      2      
iter:   5  09:43:44         -2.46  -169.405751    2      2      
iter:   6  09:43:44         -2.57  -169.405789    3      2      
iter:   7  09:43:45         -2.71  -169.402069    2      2      
iter:   8  09:43:45         -2.98  -169.399021    2      1      
iter:   9  09:43:46         -3.16  -169.399176    2      1      
iter:  10  09:43:46         -3.37  -169.403675    2      1      
iter:  11  09:43:47         -3.46  -169.404342    2      1      
iter:  12  09:43:47         -3.57  -169.405757    2      1      
iter:  13  09:43:48         -3.77  -169.405529    2      1      
iter:  14  09:43:48         -3.85  -169.405595    2      1      
iter:  15  09:43:49         -3.93  -169.405357    2      1      
iter:  16  09:43:49         -4.05  -169.404788    2      1      

Converged after 16 iterations.

Dipole moment: (0.206227, -0.003078, -0.010214) |e|*Ang

Energy contributions relative to reference atoms: (reference = -24663.074771)

Kinetic:        +98.265277
Potential:     -104.627148
External:        +0.000000
XC:            -165.806613
Entropy (-ST):   -0.317463
Local:           +2.922426
--------------------------
Free energy:   -169.563520
Extrapolated:  -169.404788

Fermi level: -4.41711

 Band  Eigenvalues  Occupancy
    0    -24.23291    2.00000
    1    -23.43796    2.00000
    2    -21.77216    2.00000
    3    -21.57106    2.00000
    4    -20.78417    2.00000
    5    -20.10004    2.00000
    6    -19.88954    2.00000
    7    -19.55834    2.00000
    8    -18.76261    2.00000
    9    -18.51239    2.00000
   10    -17.62533    2.00000
   11    -16.67476    2.00000
   12    -16.41578    2.00000
   13    -16.10713    2.00000
   14    -15.33702    2.00000
   15    -14.79607    2.00000
   16    -14.38958    2.00000
   17    -13.86831    2.00000
   18    -13.06189    2.00000
   19    -12.65179    2.00000
   20    -12.34856    2.00000
   21    -12.05692    2.00000
   22    -11.66851    2.00000
   23    -11.33177    2.00000
   24    -10.59140    2.00000
   25    -10.37263    2.00000
   26    -10.20729    2.00000
   27     -9.42360    2.00000
   28     -9.34250    2.00000
   29     -9.13619    2.00000
   30     -8.89540    2.00000
   31     -8.71396    2.00000
   32     -8.59381    2.00000
   33     -8.47033    2.00000
   34     -8.02356    2.00000
   35     -7.90162    2.00000
   36     -7.75952    2.00000
   37     -7.30447    2.00000
   38     -7.28085    2.00000
   39     -6.82638    2.00000
   40     -6.38699    2.00000
   41     -6.19442    2.00000
   42     -5.88673    2.00000
   43     -5.59079    1.99998
   44     -5.31958    1.99976
   45     -5.04713    1.99633
   46     -4.70293    1.89149
   47     -4.49981    1.39146
   48     -4.35108    0.68135
   49     -4.01025    0.03363
   50     -3.83621    0.00598
   51     -3.20843    0.00001
   52     -3.07731    0.00000
   53     -2.54974    0.00000
   54     -2.24145    0.00000
   55     -1.96111    0.00000
   56     -1.76025    0.00000
   57     -1.40527    0.00000
   58     -0.99472    0.00000
   59     -0.57299    0.00000
   60     -0.36818    0.00000
   61     -0.12750    0.00000
   62      0.40752    0.00000
   63      0.67080    0.00000
   64      1.09093    0.00000
   65      1.52954    0.00000
   66      1.68189    0.00000
   67      2.15488    0.00000
   68      2.36776    0.00000
   69      3.02162    0.00000
   70      3.47408    0.00000
   71      3.66233    0.00000
   72      4.24589    0.00000
   73      4.99159    0.00000
   74      5.32042    0.00000
   75      5.79640    0.00000
   76      6.24838    0.00000
   77      6.69556    0.00000
   78      7.37749    0.00000
   79      7.56664    0.00000
   80      7.62628    0.00000
   81      8.08900    0.00000
   82      8.21605    0.00000
   83      8.36966    0.00000
   84      8.58937    0.00000
   85      8.64115    0.00000
   86      8.74627    0.00000
   87      8.78386    0.00000
   88      9.06618    0.00000
   89      9.25659    0.00000
   90      9.38729    0.00000
   91      9.48068    0.00000
   92      9.64987    0.00000
   93      9.67126    0.00000
   94      9.86730    0.00000
   95      9.94381    0.00000
   96     10.04958    0.00000
   97     10.11563    0.00000


Forces in eV/Ang:
  0 C     1.44139    0.14798   -1.37797
  1 C    -1.29215   -0.33246   -0.32230
  2 C     1.25420    0.13074    1.53285
  3 C    -2.46129   -0.02741    0.76261
  4 C     0.57235   -1.47717   -0.36121
  5 C     0.59008    0.74892   -0.80193
  6 C     0.31593   -0.46757    0.10458
  7 C     1.86612    3.24551    0.38307
  8 C     3.07756   -1.64992    1.08163
  9 C    -0.27855    1.24003    2.82399
 10 C    -0.15425    0.14980    0.47662
 11 C     0.82696    0.51755   -0.22658
 12 C    -2.53176   -1.45914   -0.52887
 13 C    -0.46374   -0.60039    0.46513
 14 C     0.20030    0.14714   -0.24450
 15 C     0.43234    0.63006   -0.23033
 16 C    -0.15057    0.17156   -0.02122
 17 C    -0.46958   -0.85323    0.11536
 18 C    -0.09632   -0.08607    1.25684
 19 C    -1.62399   -0.49783    0.21717
 20 C     0.27899    0.78142   -3.66311
 21 C     0.80601   -1.63267    1.05638
 22 C    -0.88315   -0.52441   -0.98517
 23 C    -1.22509    1.66677   -1.53436

System changes: positions 

Initializing position-dependent things.

Density initialized from wave functions
           .--------------------------------------.  
          /|                                      |  
         / |                                      |  
        /  |                                      |  
       /   |                                      |  
      /    |                                      |  
     /     |                                      |  
    /      |                                      |  
   /       |                                      |  
  /        |           C      CC C                |  
 *         |   C C  C     C    C C                |  
 |         |  C           C  C C   C              |  
 |         .-----C---C--CC-C----------------------.  
 |        /      C C     C                       /   
 |       /                                      /    
 |      /                                      /     
 |     /                                      /      
 |    /                                      /       
 |   /                                      /        
 |  /                                      /         
 | /                                      /          
 |/                                      /           
 *--------------------------------------*            

Positions:
   0 C      3.577114    6.772905    5.822320
   1 C     11.155190    7.531736    5.688679
   2 C     10.713239    6.069073    5.669514
   3 C      5.098062    6.414981    4.635729
   4 C      9.929284    9.954732    5.517257
   5 C     10.191998    8.557697    5.479820
   6 C     12.088470    6.533323    5.851816
   7 C     10.204467   11.307704    5.172302
   8 C      5.260958    5.077977    4.606816
   9 C      6.377754    4.366645    4.996446
  10 C      6.278095   10.601869    4.981449
  11 C      5.090364   10.068409    5.086495
  12 C      8.908041   10.990761    5.289084
  13 C      4.101255    9.277935    5.371513
  14 C      7.612073   10.425107    4.760965
  15 C      3.570235    8.082381    5.581159
  16 C      8.030108    9.118697    4.172334
  17 C      7.375681    7.888292    4.020716
  18 C      9.383072    8.821055    4.325865
  19 C      8.527972    4.451114    6.274669
  20 C      7.258964    4.147998    6.094801
  21 C      9.463812    5.416228    5.781570
  22 C      8.982920    6.187976    4.799480
  23 C      7.984486    6.715108    4.229675

Unit cell:
           periodic     x           y           z      points  spacing
  1. axis:    yes   16.000000    0.000000    0.000000    80     0.2000
  2. axis:    yes    0.000000   16.000000    0.000000    80     0.2000
  3. axis:    yes    0.000000    0.000000   10.000000    48     0.2083

Effective grid spacing dv^(1/3) = 0.2027

                     log10-error:    total        iterations:
           time      wfs    density  energy       fermi  poisson
iter:   1  09:43:51          +inf  -170.270144    2      5      
iter:   2  09:43:51         -1.79  -170.093239    2      2      
iter:   3  09:43:52         -2.02  -170.015444    3      2      
iter:   4  09:43:52         -2.27  -170.003084    3      2      
iter:   5  09:43:53         -2.43  -169.999110    2      2      
iter:   6  09:43:53         -2.55  -170.000179    3      2      
iter:   7  09:43:54         -2.68  -169.995879    2      2      
iter:   8  09:43:54         -2.97  -169.993259    2      1      
iter:   9  09:43:55         -3.12  -169.998689    2      2      
iter:  10  09:43:55         -3.34  -169.998719    2      1      
iter:  11  09:43:56         -3.42  -169.997757    2      1      
iter:  12  09:43:56         -3.55  -170.000377    2      1      
iter:  13  09:43:57         -3.67  -169.999766    2      1      
iter:  14  09:43:57         -3.75  -169.997735    2      1      
iter:  15  09:43:57         -3.96  -169.998990    2      1      
iter:  16  09:43:58         -4.05  -169.999614    2      1      

Converged after 16 iterations.

Dipole moment: (0.179809, -0.067625, -0.008329) |e|*Ang

Energy contributions relative to reference atoms: (reference = -24663.074771)

Kinetic:       +101.722759
Potential:     -107.408928
External:        +0.000000
XC:            -167.093334
Entropy (-ST):   -0.311791
Local:           +2.935784
--------------------------
Free energy:   -170.155509
Extrapolated:  -169.999614

Fermi level: -4.40114

 Band  Eigenvalues  Occupancy
    0    -24.29927    2.00000
    1    -23.36675    2.00000
    2    -21.76989    2.00000
    3    -21.59622    2.00000
    4    -20.77253    2.00000
    5    -20.12453    2.00000
    6    -19.94377    2.00000
    7    -19.57067    2.00000
    8    -18.76538    2.00000
    9    -18.51519    2.00000
   10    -17.62737    2.00000
   11    -16.73911    2.00000
   12    -16.46106    2.00000
   13    -16.19284    2.00000
   14    -15.33766    2.00000
   15    -14.78333    2.00000
   16    -14.36380    2.00000
   17    -13.86086    2.00000
   18    -13.05287    2.00000
   19    -12.81871    2.00000
   20    -12.49438    2.00000
   21    -12.05350    2.00000
   22    -11.67393    2.00000
   23    -11.33480    2.00000
   24    -10.57143    2.00000
   25    -10.35164    2.00000
   26    -10.21153    2.00000
   27     -9.43135    2.00000
   28     -9.37604    2.00000
   29     -9.22296    2.00000
   30     -8.89939    2.00000
   31     -8.75771    2.00000
   32     -8.63918    2.00000
   33     -8.49552    2.00000
   34     -8.07730    2.00000
   35     -7.93111    2.00000
   36     -7.77127    2.00000
   37     -7.39368    2.00000
   38     -7.27742    2.00000
   39     -6.82736    2.00000
   40     -6.38812    2.00000
   41     -6.19350    2.00000
   42     -5.87685    2.00000
   43     -5.54006    1.99998
   44     -5.27651    1.99968
   45     -5.03979    1.99664
   46     -4.69712    1.90146
   47     -4.48697    1.40464
   48     -4.33004    0.65876
   49     -3.98503    0.03070
   50     -3.85100    0.00813
   51     -3.16392    0.00001
   52     -3.03640    0.00000
   53     -2.51915    0.00000
   54     -2.17636    0.00000
   55     -1.88558    0.00000
   56     -1.59635    0.00000
   57     -1.38079    0.00000
   58     -0.90280    0.00000
   59     -0.53797    0.00000
   60     -0.27033    0.00000
   61     -0.01522    0.00000
   62      0.46511    0.00000
   63      0.68539    0.00000
   64      1.11350    0.00000
   65      1.59855    0.00000
   66      1.76978    0.00000
   67      2.35228    0.00000
   68      2.50068    0.00000
   69      3.06677    0.00000
   70      3.38577    0.00000
   71      3.68084    0.00000
   72      4.27896    0.00000
   73      5.10663    0.00000
   74      5.29449    0.00000
   75      5.77489    0.00000
   76      6.75819    0.00000
   77      6.79618    0.00000
   78      7.42509    0.00000
   79      7.65137    0.00000
   80      7.70228    0.00000
   81      8.11477    0.00000
   82      8.27057    0.00000
   83      8.43316    0.00000
   84      8.56790    0.00000
   85      8.67975    0.00000
   86      8.80393    0.00000
   87      8.83028    0.00000
   88      9.09024    0.00000
   89      9.28122    0.00000
   90      9.44297    0.00000
   91      9.50896    0.00000
   92      9.67021    0.00000
   93      9.71251    0.00000
   94      9.86873    0.00000
   95      9.95835    0.00000
   96     10.06978    0.00000
   97     10.14213    0.00000


Forces in eV/Ang:
  0 C     1.68095    0.15866   -1.69511
  1 C    -1.35497   -0.39710   -0.36660
  2 C     1.23463    0.42080    1.66593
  3 C    -2.65521   -0.23693    0.99594
  4 C     0.82314   -1.60661   -0.42179
  5 C     0.43491    0.52529   -0.88465
  6 C     0.35749   -0.65474    0.13238
  7 C     2.28606    3.31370    0.43843
  8 C     2.98845   -1.49217    1.00324
  9 C    -1.05614    1.41482    2.07285
 10 C    -0.19540    0.19613    0.46679
 11 C     0.77634    0.47858   -0.18709
 12 C    -3.14635   -1.27401   -0.53011
 13 C    -0.49546   -0.63905    0.47518
 14 C     0.16640    0.13822   -0.27094
 15 C     0.47035    0.75613   -0.19700
 16 C    -0.08040    0.17893   -0.05014
 17 C    -0.60363   -0.80096    0.08287
 18 C    -0.02068   -0.11884    1.37220
 19 C    -1.39438   -0.52791    0.29379
 20 C     1.02928    0.61935   -2.84368
 21 C     1.04442   -1.81906    1.20727
 22 C    -0.74941   -0.39482   -1.12111
 23 C    -1.52144    1.74487   -1.69611

System changes: positions 

Initializing position-dependent things.

Density initialized from wave functions
           .--------------------------------------.  
          /|                                      |  
         / |                                      |  
        /  |                                      |  
[...]
    1    -22.33434    2.00000
    2    -21.05747    2.00000
    3    -20.71596    2.00000
    4    -20.40606    2.00000
    5    -19.99690    2.00000
    6    -19.82097    2.00000
    7    -19.39883    2.00000
    8    -18.65949    2.00000
    9    -18.46305    2.00000
   10    -17.67395    2.00000
   11    -17.35069    2.00000
   12    -16.61885    2.00000
   13    -16.06398    2.00000
   14    -15.77303    2.00000
   15    -15.28473    2.00000
   16    -14.84318    2.00000
   17    -14.20743    2.00000
   18    -13.57755    2.00000
   19    -13.25235    2.00000
   20    -12.98237    2.00000
   21    -12.51885    2.00000
   22    -12.06953    2.00000
   23    -11.41717    2.00000
   24    -10.64414    2.00000
   25    -10.59588    2.00000
   26     -9.69843    2.00000
   27     -9.31199    2.00000
   28     -9.21709    2.00000
   29     -9.19290    2.00000
   30     -9.12423    2.00000
   31     -8.83246    2.00000
   32     -8.64750    2.00000
   33     -8.61156    2.00000
   34     -8.23555    2.00000
   35     -8.08842    2.00000
   36     -7.64542    2.00000
   37     -7.56143    2.00000
   38     -7.48159    2.00000
   39     -7.32749    2.00000
   40     -6.44532    2.00000
   41     -6.30748    2.00000
   42     -5.98052    2.00000
   43     -5.79429    2.00000
   44     -5.20871    1.99985
   45     -4.89548    1.99656
   46     -4.82672    1.99317
   47     -4.32423    1.31434
   48     -4.19637    0.69597
   49     -3.24990    0.00008
   50     -3.15152    0.00003
   51     -2.77617    0.00000
   52     -2.42895    0.00000
   53     -1.77232    0.00000
   54     -1.56648    0.00000
   55     -1.26239    0.00000
   56     -0.67937    0.00000
   57     -0.53247    0.00000
   58     -0.30323    0.00000
   59      0.13279    0.00000
   60      0.29914    0.00000
   61      0.47007    0.00000
   62      0.67561    0.00000
   63      1.47752    0.00000
   64      1.84242    0.00000
   65      2.44031    0.00000
   66      3.44155    0.00000
   67      3.63158    0.00000
   68      3.91470    0.00000
   69      4.39442    0.00000
   70      5.16095    0.00000
   71      5.47501    0.00000
   72      5.67115    0.00000
   73      6.14279    0.00000
   74      6.49028    0.00000
   75      6.76597    0.00000
   76      7.16096    0.00000
   77      7.64412    0.00000
   78      7.90783    0.00000
   79      8.10712    0.00000
   80      8.36306    0.00000
   81      8.48783    0.00000
   82      8.55624    0.00000
   83      8.72447    0.00000
   84      8.84412    0.00000
   85      9.09283    0.00000
   86      9.35443    0.00000
   87      9.36233    0.00000
   88      9.45639    0.00000
   89      9.50807    0.00000
   90      9.60228    0.00000
   91      9.72331    0.00000
   92      9.90529    0.00000
   93      9.94189    0.00000
   94      9.98063    0.00000
   95     10.13470    0.00000
   96     10.23721    0.00000
   97     10.35315    0.00000


Forces in eV/Ang:
  0 C     0.03119   -0.23635    0.11782
  1 C     0.05935   -0.02381   -0.05547
  2 C    -0.01653    0.04026    0.16490
  3 C     0.04797    0.23751   -0.07574
  4 C     0.09054    0.05110    0.12197
  5 C    -0.15265    0.11110   -0.11788
  6 C     0.05809   -0.09314    0.03988
  7 C    -0.22618    0.07703   -0.01943
  8 C     0.03058   -0.04820    0.01932
  9 C    -0.02161    0.00801    0.01029
 10 C     0.05633   -0.04575   -0.00082
 11 C     0.05449    0.07108   -0.01307
 12 C    -0.00101   -0.20932   -0.08027
 13 C     0.07968    0.19520   -0.02388
 14 C     0.15922    0.02897   -0.03083
 15 C    -0.05729   -0.30274    0.06624
 16 C    -0.01219    0.11301    0.16567
 17 C     0.01513    0.05442   -0.02455
 18 C    -0.08049   -0.23344   -0.15388
 19 C    -0.15578   -0.09074    0.08391
 20 C    -0.01938    0.03998   -0.01356
 21 C     0.10295    0.07469   -0.11466
 22 C    -0.11215    0.07975   -0.06062
 23 C     0.05910    0.03793    0.02741

System changes: positions 

Initializing position-dependent things.

Density initialized from wave functions
           .--------------------------------------.  
          /|                                      |  
         / |                                      |  
        /  |                                      |  
       /   |                                      |  
      /    |                                      |  
     /     |                                      |  
    /      |                                      |  
   /       |                 C  C                 |  
  /        |           C         C                |  
 *         |     C  C      C    C                 |  
 |         |  CC           C  C  CC               |  
 |         .---CC-C------C-C---C------------------.  
 |        /           C  CC                      /   
 |       /                                      /    
 |      /                                      /     
 |     /                                      /      
 |    /                                      /       
 |   /                                      /        
 |  /                                      /         
 | /                                      /          
 |/                                      /           
 *--------------------------------------*            

Positions:
   0 C      3.728413    6.744889    5.392902
   1 C     11.058913    7.329446    5.650451
   2 C     10.572892    5.980547    5.621684
   3 C      4.154981    5.571903    5.649741
   4 C     10.479434   10.037781    5.489521
   5 C     10.700286    8.621835    5.242775
   6 C     11.809419    6.286238    6.296029
   7 C      9.855448   11.248872    5.657768
   8 C      5.002265    4.549024    5.814266
   9 C      6.120138    3.952869    5.930010
  10 C      6.282698   10.840629    4.802095
  11 C      5.208586   10.165677    4.830073
  12 C      8.646897   11.643950    5.432596
  13 C      4.255449    9.232141    4.971304
  14 C      7.686412   10.837020    4.770174
  15 C      3.795397    8.060640    5.163716
  16 C      8.291284    9.532957    4.240498
  17 C      7.605247    8.362369    3.852314
  18 C      9.606826    9.272930    4.618055
  19 C      8.649798    4.198909    5.680728
  20 C      7.453324    3.803010    5.821167
  21 C      9.408885    5.301299    5.163641
  22 C      8.633437    6.110844    4.336188
  23 C      8.001729    7.108805    3.829889

Unit cell:
           periodic     x           y           z      points  spacing
  1. axis:    yes   16.000000    0.000000    0.000000    80     0.2000
  2. axis:    yes    0.000000   16.000000    0.000000    80     0.2000
  3. axis:    yes    0.000000    0.000000   10.000000    48     0.2083

Effective grid spacing dv^(1/3) = 0.2027

                     log10-error:    total        iterations:
           time      wfs    density  energy       fermi  poisson
iter:   1  09:53:09          +inf  -180.293711    3      5      
iter:   2  09:53:09         -2.49  -180.287789    3      1      
iter:   3  09:53:10         -2.66  -180.284069    2      1      
iter:   4  09:53:10         -2.90  -180.283440    2      1      
iter:   5  09:53:11         -3.07  -180.283450    2      1      
iter:   6  09:53:11         -3.15  -180.282360    2      1      
iter:   7  09:53:12         -3.42  -180.284249    2      1      
iter:   8  09:53:12         -3.04  -180.284349    2      1      
iter:   9  09:53:13         -3.78  -180.283888    2      1      
iter:  10  09:53:13         -3.77  -180.284127    2      1      
iter:  11  09:53:13         -3.72  -180.284032    2      1      
iter:  12  09:53:14         -4.15  -180.283869    2      1      

Converged after 12 iterations.

Dipole moment: (-0.337655, 0.102087, -0.225283) |e|*Ang

Energy contributions relative to reference atoms: (reference = -24663.074771)

Kinetic:        +99.221332
Potential:     -108.358326
External:        +0.000000
XC:            -174.073780
Entropy (-ST):   -0.261610
Local:           +3.057709
--------------------------
Free energy:   -180.414674
Extrapolated:  -180.283869

Fermi level: -4.25908

 Band  Eigenvalues  Occupancy
    0    -23.53497    2.00000
    1    -22.31573    2.00000
    2    -21.07512    2.00000
    3    -20.71625    2.00000
    4    -20.40564    2.00000
    5    -20.00834    2.00000
    6    -19.82281    2.00000
    7    -19.40359    2.00000
    8    -18.65294    2.00000
    9    -18.47687    2.00000
   10    -17.68243    2.00000
   11    -17.35514    2.00000
   12    -16.61208    2.00000
   13    -16.06167    2.00000
   14    -15.77541    2.00000
   15    -15.29066    2.00000
   16    -14.84932    2.00000
   17    -14.20400    2.00000
   18    -13.57981    2.00000
   19    -13.25193    2.00000
   20    -12.99395    2.00000
   21    -12.51586    2.00000
   22    -12.09075    2.00000
   23    -11.45031    2.00000
   24    -10.64901    2.00000
   25    -10.60614    2.00000
   26     -9.69776    2.00000
   27     -9.31538    2.00000
   28     -9.20413    2.00000
   29     -9.19320    2.00000
   30     -9.12207    2.00000
   31     -8.84150    2.00000
   32     -8.64201    2.00000
   33     -8.60763    2.00000
   34     -8.24379    2.00000
   35     -8.10125    2.00000
   36     -7.65263    2.00000
   37     -7.55799    2.00000
   38     -7.49151    2.00000
   39     -7.33805    2.00000
   40     -6.44408    2.00000
   41     -6.31626    2.00000
   42     -5.97806    2.00000
   43     -5.78768    2.00000
   44     -5.20610    1.99985
   45     -4.89768    1.99664
   46     -4.82800    1.99326
   47     -4.32997    1.34031
   48     -4.19048    0.66985
   49     -3.23671    0.00007
   50     -3.14007    0.00003
   51     -2.75195    0.00000
   52     -2.43495    0.00000
   53     -1.77391    0.00000
   54     -1.56098    0.00000
   55     -1.28082    0.00000
   56     -0.68667    0.00000
   57     -0.53617    0.00000
   58     -0.30867    0.00000
   59      0.11470    0.00000
   60      0.33085    0.00000
   61      0.47799    0.00000
   62      0.65122    0.00000
   63      1.48917    0.00000
   64      1.83819    0.00000
   65      2.43377    0.00000
   66      3.43793    0.00000
   67      3.64145    0.00000
   68      3.91930    0.00000
   69      4.39305    0.00000
   70      5.15158    0.00000
   71      5.49694    0.00000
   72      5.65366    0.00000
   73      6.12504    0.00000
   74      6.48686    0.00000
   75      6.75440    0.00000
   76      7.17150    0.00000
   77      7.63158    0.00000
   78      7.89272    0.00000
   79      8.13448    0.00000
   80      8.35576    0.00000
   81      8.49220    0.00000
   82      8.55328    0.00000
   83      8.71990    0.00000
   84      8.83665    0.00000
   85      9.11272    0.00000
   86      9.36031    0.00000
   87      9.37700    0.00000
   88      9.45257    0.00000
   89      9.50935    0.00000
   90      9.60094    0.00000
   91      9.72546    0.00000
   92      9.90164    0.00000
   93      9.95743    0.00000
   94      9.97930    0.00000
   95     10.12717    0.00000
   96     10.23570    0.00000
   97     10.35074    0.00000


Forces in eV/Ang:
  0 C    -0.01984   -0.02105    0.06914
  1 C     0.04326   -0.04930   -0.02467
  2 C     0.02230    0.04850    0.09177
  3 C     0.04952    0.01622   -0.03511
  4 C    -0.00526    0.03615    0.04472
  5 C    -0.04900    0.02914   -0.05528
  6 C    -0.01729   -0.02162    0.01512
  7 C    -0.04732   -0.02338    0.01911
  8 C    -0.03814   -0.00458   -0.00452
  9 C     0.05397   -0.02616    0.01824
 10 C     0.03841   -0.03943    0.00491
 11 C     0.03830    0.03217   -0.02451
 12 C    -0.06349   -0.06584   -0.04719
 13 C    -0.00224   -0.02723    0.02065
 14 C     0.04992   -0.01733   -0.03028
 15 C     0.06969    0.00051    0.00199
 16 C     0.00152    0.01711    0.06791
 17 C     0.00113    0.03235   -0.00712
 18 C    -0.03242   -0.07182   -0.05341
 19 C    -0.04992    0.00538    0.02955
 20 C    -0.04352   -0.00310   -0.01321
 21 C     0.01959    0.02265   -0.03604
 22 C    -0.05567    0.05002   -0.02846
 23 C     0.02776    0.02644    0.00578

System changes: positions 

Initializing position-dependent things.

Density initialized from wave functions
           .--------------------------------------.  
          /|                                      |  
         / |                                      |  
        /  |                                      |  
       /   |                                      |  
      /    |                                      |  
     /     |                                      |  
    /      |                                      |  
   /       |                 C  C                 |  
  /        |           C  C      C                |  
 *         |     C  C           C C               |  
 |         |  CC           C  C  C                |  
 |         .---CC-C------C-C---C------------------.  
 |        /           C  CC                      /   
 |       /                                      /    
 |      /                                      /     
 |     /                                      /      
 |    /                                      /       
 |   /                                      /        
 |  /                                      /         
 | /                                      /          
 |/                                      /           
 *--------------------------------------*            

Positions:
   0 C      3.729117    6.747852    5.391228
   1 C     11.061284    7.329946    5.646304
   2 C     10.572451    5.983968    5.629583
   3 C      4.167062    5.578675    5.642780
   4 C     10.483007   10.036008    5.482058
   5 C     10.702474    8.620183    5.227860
   6 C     11.806285    6.291971    6.307127
   7 C      9.852019   11.240166    5.655917
   8 C      5.005807    4.550986    5.809996
   9 C      6.123321    3.953103    5.925113
  10 C      6.279708   10.837674    4.805001
  11 C      5.201892   10.169869    4.831910
  12 C      8.641714   11.636560    5.438225
  13 C      4.244014    9.238601    4.969058
  14 C      7.683198   10.832551    4.775181
  15 C      3.794462    8.063785    5.162465
  16 C      8.288145    9.531283    4.245908
  17 C      7.603507    8.358475    3.867412
  18 C      9.606752    9.269789    4.608742
  19 C      8.650851    4.201543    5.683573
  20 C      7.455360    3.801713    5.820550
  21 C      9.411668    5.302274    5.164079
  22 C      8.634602    6.109293    4.334839
  23 C      8.000046    7.105817    3.829654

Unit cell:
           periodic     x           y           z      points  spacing
  1. axis:    yes   16.000000    0.000000    0.000000    80     0.2000
  2. axis:    yes    0.000000   16.000000    0.000000    80     0.2000
  3. axis:    yes    0.000000    0.000000   10.000000    48     0.2083

Effective grid spacing dv^(1/3) = 0.2027

                     log10-error:    total        iterations:
           time      wfs    density  energy       fermi  poisson
iter:   1  09:53:15          +inf  -180.289745    2      5      
iter:   2  09:53:16         -2.77  -180.287990    2      1      
iter:   3  09:53:16         -2.88  -180.286664    2      1      
iter:   4  09:53:17         -2.99  -180.287074    2      2      
iter:   5  09:53:17         -3.18  -180.285888    2      1      
iter:   6  09:53:18         -3.19  -180.285488    2      1      
iter:   7  09:53:18         -3.55  -180.286658    2      1      
iter:   8  09:53:18         -3.29  -180.286844    2      1      
iter:   9  09:53:19         -3.94  -180.286644    2      1      
iter:  10  09:53:19         -3.96  -180.286714    2      1      
iter:  11  09:53:20         -4.04  -180.286642    2      1      

Converged after 11 iterations.

Dipole moment: (-0.333787, 0.099141, -0.234775) |e|*Ang

Energy contributions relative to reference atoms: (reference = -24663.074771)

Kinetic:        +99.808974
Potential:     -108.820563
External:        +0.000000
XC:            -174.207666
Entropy (-ST):   -0.257443
Local:           +3.061333
--------------------------
Free energy:   -180.415364
Extrapolated:  -180.286642

Fermi level: -4.26034

 Band  Eigenvalues  Occupancy
    0    -23.53409    2.00000
    1    -22.32272    2.00000
    2    -21.08734    2.00000
    3    -20.72198    2.00000
    4    -20.40657    2.00000
    5    -20.01775    2.00000
    6    -19.82684    2.00000
    7    -19.40359    2.00000
    8    -18.65428    2.00000
    9    -18.48364    2.00000
   10    -17.68881    2.00000
   11    -17.35795    2.00000
   12    -16.60582    2.00000
   13    -16.06015    2.00000
   14    -15.77731    2.00000
   15    -15.29418    2.00000
   16    -14.85713    2.00000
   17    -14.20169    2.00000
   18    -13.58173    2.00000
   19    -13.25241    2.00000
   20    -12.99975    2.00000
   21    -12.51951    2.00000
   22    -12.10184    2.00000
   23    -11.46387    2.00000
   24    -10.65183    2.00000
   25    -10.61132    2.00000
   26     -9.69928    2.00000
   27     -9.32151    2.00000
   28     -9.20043    2.00000
   29     -9.19646    2.00000
   30     -9.12052    2.00000
   31     -8.84653    2.00000
   32     -8.64356    2.00000
   33     -8.60943    2.00000
   34     -8.24852    2.00000
   35     -8.10994    2.00000
   36     -7.65588    2.00000
   37     -7.56071    2.00000
   38     -7.49572    2.00000
   39     -7.33968    2.00000
   40     -6.44354    2.00000
   41     -6.32217    2.00000
   42     -5.97766    2.00000
   43     -5.78168    2.00000
   44     -5.20144    1.99984
   45     -4.89897    1.99664
   46     -4.82789    1.99317
   47     -4.33785    1.36926
   48     -4.18519    0.64101
   49     -3.22784    0.00007
   50     -3.13561    0.00003
   51     -2.74035    0.00000
   52     -2.43877    0.00000
   53     -1.77660    0.00000
   54     -1.55264    0.00000
   55     -1.29518    0.00000
   56     -0.68535    0.00000
   57     -0.53749    0.00000
   58     -0.30950    0.00000
   59      0.09525    0.00000
   60      0.34877    0.00000
   61      0.48064    0.00000
   62      0.64132    0.00000
   63      1.49058    0.00000
   64      1.83220    0.00000
   65      2.41836    0.00000
   66      3.44458    0.00000
   67      3.64999    0.00000
   68      3.93201    0.00000
   69      4.38888    0.00000
   70      5.15516    0.00000
   71      5.51273    0.00000
   72      5.64874    0.00000
   73      6.12473    0.00000
   74      6.48777    0.00000
   75      6.75353    0.00000
   76      7.19105    0.00000
   77      7.61259    0.00000
   78      7.89885    0.00000
   79      8.14300    0.00000
   80      8.36327    0.00000
   81      8.49443    0.00000
   82      8.56216    0.00000
   83      8.71336    0.00000
   84      8.84873    0.00000
   85      9.13268    0.00000
   86      9.36127    0.00000
   87      9.38759    0.00000
   88      9.45259    0.00000
   89      9.51115    0.00000
   90      9.60471    0.00000
   91      9.73477    0.00000
   92      9.89870    0.00000
   93      9.96721    0.00000
   94      9.98727    0.00000
   95     10.12604    0.00000
   96     10.23147    0.00000
   97     10.34419    0.00000


Forces in eV/Ang:
  0 C    -0.02997    0.01663    0.04885
  1 C     0.02279    0.02316   -0.03287
  2 C    -0.02434   -0.00792    0.02106
  3 C     0.02341   -0.00715   -0.00861
  4 C    -0.02654   -0.01059    0.00977
  5 C    -0.00327   -0.00050   -0.00980
  6 C     0.01561   -0.02428    0.05224
  7 C    -0.05601    0.01068    0.01171
  8 C     0.01610   -0.04925   -0.01624
  9 C    -0.00647   -0.00743    0.03350
 10 C     0.02556   -0.01674   -0.00565
 11 C     0.00922   -0.01180   -0.02613
 12 C     0.03637   -0.01121   -0.00313
 13 C     0.07046    0.04525    0.01023
 14 C     0.01397   -0.02303   -0.03450
 15 C     0.05671   -0.02159    0.00208
 16 C    -0.01911   -0.01946    0.01005
 17 C    -0.00534    0.01388   -0.04542
 18 C     0.01923   -0.01218    0.00962
 19 C    -0.01729    0.02036    0.02027
 20 C    -0.00682   -0.02378   -0.02058
 21 C    -0.00142    0.01159    0.00335
 22 C    -0.00294    0.02553    0.00318
 23 C     0.01571    0.00434   -0.00650

