
  ___ ___ ___ _ _ _  
 |   |   |_  | | | | 
 | | | | | . | | | | 
 |__ |  _|___|_____|  1.3.0b1
 |___|_|             

User:   esb@s65n12.grendel.cscaa.dk
Date:   Thu Nov  9 10:22:42 2017
Arch:   x86_64
Pid:    19386
Python: 2.7.13
gpaw:   /home/esb/DFT/gpaw_git/gpaw
_gpaw:  /home/esb/DFT/gpaw_git/build/bin.linux-x86_64-2.7/gpaw-python
ase:    /home/esb/DFT/ase_git/ase (version 3.15.0b1)
numpy:  /comm/swstack/core/python/2.7.13/lib/python2.7/site-packages/numpy (version 1.13.3)
scipy:  /comm/swstack/core/python/2.7.13/lib/python2.7/site-packages/scipy (version 0.19.1)
units:  Angstrom and eV
cores:  16
Extra parameters: {'blacs': True}

Input parameters:
  basis: dzp
  gpts: [80 80 48]
  kpts: [1 1 1]
  maxiter: 99
  mixer: {backend: pulay,
          beta: 0.05,
          method: separate,
          nmaxold: 5,
          weight: 75}
  mode: lcao
  nbands: -50
  occupations: {name: fermi-dirac,
                width: 0.1}
  poissonsolver: {eps: 1e-07,
                  name: fd,
                  nn: 3,
                  relax: GS}
  xc: PBE

System changes: positions, numbers, cell, pbc, initial_charges, initial_magmoms 

Initialize ...

C-setup:
  name: Carbon
  id: 4aa54d4b901d75f77cc0ea3eec22967b
  Z: 6
  valence: 4
  core: 2
  charge: 0.0
  file: /home/esb/DFT/gpaw-setups-0.8.7929/C.PBE.gz
  cutoffs: 0.64(comp), 1.14(filt), 1.14(core), lmax=2
  valence states:
                energy  radius
    2s(2.00)   -13.751   0.635
    2p(2.00)    -5.284   0.635
    *s          13.461   0.635
    *p          21.927   0.635
    *d           0.000   0.635

  LCAO basis set for C:
    Name: dzp
    File: /home/esb/DFT/gpaw-setups-0.8.7929/C.dzp.basis.gz
    Number of radial functions: 5
    Number of spherical harmonics: 13
      l=0, rc=5.5469 Bohr: 2s-sz confined orbital
      l=1, rc=6.6719 Bohr: 2p-sz confined orbital
      l=0, rc=3.0312 Bohr: 2s-dz split-valence wave
      l=1, rc=3.7500 Bohr: 2p-dz split-valence wave
      l=2, rc=6.6719 Bohr: d-type Gaussian polarization

Reference energy: -24663.074771

Spin-paired calculation

Occupation numbers:
  Fermi-Dirac: width=0.1000 eV

Convergence criteria:
  Maximum total energy change: 0.0005 eV / electron
  Maximum integral of absolute density change: 0.0001 electrons
  Maximum integral of absolute eigenstate change: 4e-08 eV^2
  Maximum number of iterations: 99

Symmetries present (total): 1

  ( 1  0  0)
  ( 0  1  0)
  ( 0  0  1)

1 k-point (Gamma)
1 k-point in the irreducible part of the Brillouin zone
       k-points in crystal coordinates                weights
   0:     0.00000000    0.00000000    0.00000000          1/1

Wave functions: LCAO
  Diagonalizer: Serial LAPACK
  Atomic Correction: dense with blas
  Datatype: float
  Eigensolver: None 

LCAO using direct dense diagonalizer 

Densities:
  Coarse grid: 80*80*48 grid
  Fine grid: 160*160*96 grid
  Total Charge: 0.000000 

Density mixing:
  Method: separate
  Backend: pulay
  Linear mixing parameter: 0.05
  Mixing with 5 old densities
  Damping of long wave oscillations: 75 

Hamiltonian:
  XC and Coulomb potentials evaluated on a 160*160*96 grid
  Using the PBE Exchange-Correlation functional
  Interpolation: tri-quintic (5. degree polynomial)
  Poisson solver: Gauss-Seidel solver with 6 multi-grid levels
    Coarsest grid: 5 x 5 x 3 points
    Stencil: 6*3+1=19 point O(h^6) finite-difference Laplacian
    Max iterations: 1000
    Tolerance: 1.000000e-07 

Memory estimate:
  Process memory now: 77.56 MiB
  Calculator: 15.59 MiB
    Density: 6.13 MiB
      Arrays: 3.81 MiB
      Localized functions: 0.86 MiB
      Mixer: 1.46 MiB
    Hamiltonian: 5.40 MiB
      Arrays: 2.49 MiB
      XC: 0.00 MiB
      Poisson: 2.85 MiB
      vbar: 0.07 MiB
    Wavefunctions: 4.05 MiB
      C [qnM]: 0.23 MiB
      S, T [2 x qmm]: 1.49 MiB
      P [aqMi]: 0.01 MiB
      TCI: 0.00 MiB
      BasisFunctions: 2.33 MiB
      Eigensolver: 0.00 MiB

Total number of cores used: 16
Domain decomposition: 2 x 4 x 2

Number of atoms: 24
Number of atomic orbitals: 312
Number of bands in calculation: 98
Bands to converge: occupied states only
Number of valence electrons: 96

... initialized

Initializing position-dependent things.

Density initialized from atomic densities
           .--------------------------------------.  
          /|                                      |  
         / |                                      |  
        /  |                                      |  
       /   |                                      |  
      /    |                                      |  
     /     |                                      |  
    /      |                                      |  
   /       |                                      |  
  /        |    C            C  C                 |  
 *         |  C     C  C  C   C   C               |  
 |         | C       C    C   CC C                |  
 |         .---C---C-C---C--C---------------------.  
 |        /          C    C                      /   
 |       /             C                        /    
 |      /                                      /     
 |     /                                      /      
 |    /                                      /       
 |   /                                      /        
 |  /                                      /         
 | /                                      /          
 |/                                      /           
 *--------------------------------------*            

Positions:
   0 C      6.109356   10.724318    4.587181
   1 C      8.623441   11.367017    4.767283
   2 C      7.509525   10.538073    4.552001
   3 C      8.011976    9.163822    4.624036
   4 C      9.858653   10.421551    5.070145
   5 C      9.422307    9.084404    4.993991
   6 C     11.081623    5.208559    6.317269
   7 C      9.731897    5.284600    5.874400
   8 C     11.612298    6.409360    6.202597
   9 C      9.271008    6.576419    5.323905
  10 C     11.419870    7.644342    5.809301
  11 C     10.081878    7.822915    5.339924
  12 C      9.367469    4.132462    5.116581
  13 C      5.378194    8.712916    5.802876
  14 C      3.478645    7.461403    5.782887
  15 C      5.816388    6.119330    5.454633
  16 C      8.349364    3.398632    5.171257
  17 C      4.483426    5.475644    5.523497
  18 C      8.198879    6.195252    5.294327
  19 C      6.237274    7.531132    5.555899
  20 C      7.023028    3.875364    5.245263
  21 C      3.962109    8.671975    5.906811
  22 C      3.243281    6.174632    5.664165
  23 C      7.020796    5.340016    5.298345

Unit cell:
           periodic     x           y           z      points  spacing
  1. axis:    yes   16.000000    0.000000    0.000000    80     0.2000
  2. axis:    yes    0.000000   16.000000    0.000000    80     0.2000
  3. axis:    yes    0.000000    0.000000   10.000000    48     0.2083

Effective grid spacing dv^(1/3) = 0.2027

                     log10-error:    total        iterations:
           time      wfs    density  energy       fermi  poisson
iter:   1  10:22:44          +inf  -169.985234    3      6      
iter:   2  10:22:44         -0.88  -168.813881    3      3      
iter:   3  10:22:45         -0.93  -167.830141    3      3      
iter:   4  10:22:45         -1.01  -166.696216    31     3      
iter:   5  10:22:46         -1.13  -166.109734    33     3      
iter:   6  10:22:47         -1.33  -166.007613    34     3      
iter:   7  10:22:47         -1.55  -166.006555    3      3      
iter:   8  10:22:48         -1.67  -165.971775    3      3      
iter:   9  10:22:48         -1.80  -165.940868    3      3      
iter:  10  10:22:49         -1.98  -165.924065    3      2      
iter:  11  10:22:49         -2.22  -165.918909    3      2      
iter:  12  10:22:50         -2.34  -165.914611    3      2      
iter:  13  10:22:51         -2.45  -165.911558    3      2      
iter:  14  10:22:51         -2.63  -165.909837    3      2      
iter:  15  10:22:52         -2.78  -165.919489    2      1      
iter:  16  10:22:52         -2.86  -165.908851    2      2      
iter:  17  10:22:53         -3.10  -165.908963    2      1      
iter:  18  10:22:53         -3.16  -165.911479    2      1      
iter:  19  10:22:54         -3.29  -165.913460    2      1      
iter:  20  10:22:54         -3.43  -165.910594    2      1      
iter:  21  10:22:55         -3.53  -165.905633    2      1      
iter:  22  10:22:55         -3.91  -165.907580    2      1      
iter:  23  10:22:56         -3.95  -165.907081    2      1      
iter:  24  10:22:56         -4.00  -165.905429    2      1      

Converged after 24 iterations.

Dipole moment: (0.031439, -0.572393, 0.037451) |e|*Ang

Energy contributions relative to reference atoms: (reference = -24663.074771)

Kinetic:       +107.839612
Potential:     -112.572840
External:        +0.000000
XC:            -163.824947
Entropy (-ST):   -0.407427
Local:           +2.856459
--------------------------
Free energy:   -166.109142
Extrapolated:  -165.905429

Fermi level: -4.49915

 Band  Eigenvalues  Occupancy
    0    -24.14433    2.00000
    1    -21.88065    2.00000
    2    -21.76951    2.00000
    3    -21.30714    2.00000
    4    -20.83001    2.00000
    5    -20.43043    2.00000
    6    -19.64955    2.00000
    7    -19.47063    2.00000
    8    -18.51780    2.00000
    9    -17.93408    2.00000
   10    -16.84708    2.00000
   11    -16.62222    2.00000
   12    -16.19736    2.00000
   13    -15.68328    2.00000
   14    -15.56992    2.00000
   15    -15.03671    2.00000
   16    -14.55097    2.00000
   17    -13.36010    2.00000
   18    -13.16438    2.00000
   19    -12.68377    2.00000
   20    -12.37135    2.00000
   21    -12.27704    2.00000
   22    -11.83674    2.00000
   23    -11.39943    2.00000
   24    -10.95860    2.00000
   25    -10.64871    2.00000
   26    -10.44363    2.00000
   27    -10.14761    2.00000
   28     -9.68939    2.00000
   29     -9.40495    2.00000
   30     -8.91137    2.00000
   31     -8.84305    2.00000
   32     -8.61533    2.00000
   33     -8.10562    2.00000
   34     -7.76900    2.00000
   35     -7.70215    2.00000
   36     -7.54354    2.00000
   37     -7.31468    2.00000
   38     -7.14923    2.00000
   39     -6.94858    2.00000
   40     -6.36642    2.00000
   41     -6.06056    2.00000
   42     -5.80874    2.00000
   43     -5.70955    1.99999
   44     -5.28176    1.99920
   45     -4.88536    1.95882
   46     -4.70812    1.77979
   47     -4.62159    1.54567
   48     -4.35015    0.36785
   49     -4.31026    0.26274
   50     -4.18480    0.08269
   51     -3.85657    0.00323
   52     -3.30293    0.00001
   53     -3.24593    0.00001
   54     -3.06291    0.00000
   55     -2.97039    0.00000
   56     -2.64380    0.00000
   57     -2.59338    0.00000
   58     -2.14268    0.00000
   59     -1.91629    0.00000
   60     -1.47218    0.00000
   61     -1.38932    0.00000
   62      0.37650    0.00000
   63      0.77621    0.00000
   64      1.26841    0.00000
   65      1.76599    0.00000
   66      2.38396    0.00000
   67      2.65943    0.00000
   68      3.59987    0.00000
   69      3.79833    0.00000
   70      4.22231    0.00000
   71      4.90626    0.00000
   72      5.01541    0.00000
   73      5.77487    0.00000
   74      5.96678    0.00000
   75      6.14298    0.00000
   76      7.00472    0.00000
   77      7.10980    0.00000
   78      7.44107    0.00000
   79      7.56451    0.00000
   80      7.65845    0.00000
   81      8.08807    0.00000
   82      8.18769    0.00000
   83      8.32516    0.00000
   84      8.37877    0.00000
   85      8.57743    0.00000
   86      8.84867    0.00000
   87      8.97567    0.00000
   88      9.05742    0.00000
   89      9.24006    0.00000
   90      9.31876    0.00000
   91      9.39861    0.00000
   92      9.41030    0.00000
   93      9.61820    0.00000
   94      9.84324    0.00000
   95     10.01891    0.00000
   96     10.03922    0.00000
   97     10.11941    0.00000


Forces in eV/Ang:
  0 C     1.13411   -1.31820    0.87568
  1 C     3.77595   -1.50215    0.97609
  2 C    -3.63619    0.14404   -0.41712
  3 C     1.24227   -0.35668    0.80652
  4 C    -2.80606    2.20369   -1.06342
  5 C    -0.22364   -1.97845    0.58517
  6 C     0.76106    0.16835    0.98382
  7 C     3.79210   -3.13927   -1.74338
  8 C    -0.07530    0.70203    0.58935
  9 C    16.37039    7.19219    0.75107
 10 C    -0.58009    0.20320   -0.61344
 11 C     0.84790    1.10390   -0.30196
 12 C     1.05663    0.43945    1.61405
 13 C     0.11489   -1.68429   -1.94705
 14 C    -0.75423    0.60968    0.56541
 15 C    -0.15548    0.14073    0.35402
 16 C    -2.37986   -0.17810   -0.67417
 17 C    -0.92420    2.70340    0.20243
 18 C   -20.22097   -5.60961   -0.68370
 19 C    -1.82354    2.47009    0.17849
 20 C     0.27861    1.19928   -0.08526
 21 C     1.80783    0.20836   -0.03839
 22 C     2.66227   -2.17158   -0.52622
 23 C    -0.32385   -1.47039   -0.34550

System changes: positions 

Initializing position-dependent things.

Density initialized from wave functions
           .--------------------------------------.  
          /|                                      |  
         / |                                      |  
        /  |                                      |  
       /   |                                      |  
      /    |                                      |  
     /     |                                      |  
    /      |                                      |  
   /       |                                      |  
  /        |    C            C  C                 |  
 *         |  C     C  C  C   C   C               |  
 |         | C       C    C C CC C                |  
 |         .---C---C-C---C--C---------------------.  
 |        /          C    C                      /   
 |       /             C                        /    
 |      /                                      /     
 |     /                                      /      
 |    /                                      /       
 |   /                                      /        
 |  /                                      /         
 | /                                      /          
 |/                                      /           
 *--------------------------------------*            

Positions:
   0 C      6.111517   10.721807    4.588849
   1 C      8.630635   11.364155    4.769143
   2 C      7.502597   10.538348    4.551206
   3 C      8.014343    9.163143    4.625572
   4 C      9.853307   10.425749    5.068119
   5 C      9.421881    9.080635    4.995105
   6 C     11.083073    5.208880    6.319143
   7 C      9.739121    5.278620    5.871079
   8 C     11.612155    6.410698    6.203720
   9 C      9.302196    6.590121    5.325336
  10 C     11.418765    7.644730    5.808133
  11 C     10.083493    7.825018    5.339349
  12 C      9.369482    4.133299    5.119656
  13 C      5.378413    8.709707    5.799166
  14 C      3.477208    7.462565    5.783964
  15 C      5.816092    6.119598    5.455308
  16 C      8.344830    3.398292    5.169973
  17 C      4.481665    5.480794    5.523882
  18 C      8.160355    6.184565    5.293025
  19 C      6.233800    7.535838    5.556239
  20 C      7.023559    3.877648    5.245101
  21 C      3.965553    8.672372    5.906738
  22 C      3.248353    6.170494    5.663163
  23 C      7.020179    5.337215    5.297686

Unit cell:
           periodic     x           y           z      points  spacing
  1. axis:    yes   16.000000    0.000000    0.000000    80     0.2000
  2. axis:    yes    0.000000   16.000000    0.000000    80     0.2000
  3. axis:    yes    0.000000    0.000000   10.000000    48     0.2083

Effective grid spacing dv^(1/3) = 0.2027

                     log10-error:    total        iterations:
           time      wfs    density  energy       fermi  poisson
iter:   1  10:22:58          +inf  -167.269579    3      5      
iter:   2  10:22:59         -2.04  -167.242736    3      2      
iter:   3  10:22:59         -2.20  -167.233045    3      2      
iter:   4  10:23:00         -2.31  -167.229095    3      2      
iter:   5  10:23:01         -2.44  -167.225990    2      2      
iter:   6  10:23:01         -2.52  -167.223789    2      2      
iter:   7  10:23:02         -2.73  -167.222110    2      2      
iter:   8  10:23:02         -2.89  -167.221244    2      2      
iter:   9  10:23:03         -3.11  -167.221749    2      1      
iter:  10  10:23:03         -3.24  -167.220727    2      1      
iter:  11  10:23:04         -3.40  -167.219623    2      1      
iter:  12  10:23:04         -3.62  -167.220231    2      1      
iter:  13  10:23:05         -3.71  -167.220231    2      1      
iter:  14  10:23:05         -3.80  -167.219803    2      1      
iter:  15  10:23:06         -3.97  -167.219708    2      1      
iter:  16  10:23:06         -4.14  -167.220224    2      1      

Converged after 16 iterations.

Dipole moment: (-0.006834, -0.572528, 0.039362) |e|*Ang

Energy contributions relative to reference atoms: (reference = -24663.074771)

Kinetic:       +101.129250
Potential:     -107.885126
External:        +0.000000
XC:            -163.111170
Entropy (-ST):   -0.406903
Local:           +2.850273
--------------------------
Free energy:   -167.423675
Extrapolated:  -167.220224

Fermi level: -4.49265

 Band  Eigenvalues  Occupancy
    0    -23.83910    2.00000
    1    -21.93123    2.00000
    2    -21.77580    2.00000
    3    -21.33818    2.00000
    4    -20.63423    2.00000
    5    -20.45879    2.00000
    6    -19.67645    2.00000
    7    -19.53870    2.00000
    8    -18.52220    2.00000
    9    -18.00834    2.00000
   10    -16.83872    2.00000
   11    -16.64402    2.00000
   12    -16.24667    2.00000
   13    -15.67034    2.00000
   14    -15.56300    2.00000
   15    -15.04005    2.00000
   16    -14.57970    2.00000
   17    -13.34962    2.00000
   18    -13.18813    2.00000
   19    -12.59584    2.00000
   20    -12.39943    2.00000
   21    -12.15530    2.00000
   22    -11.77959    2.00000
   23    -11.46577    2.00000
   24    -10.90736    2.00000
   25    -10.69124    2.00000
   26    -10.45567    2.00000
   27    -10.19113    2.00000
   28     -9.72900    2.00000
   29     -9.40996    2.00000
   30     -8.91704    2.00000
   31     -8.87667    2.00000
   32     -8.54652    2.00000
   33     -8.01660    2.00000
   34     -7.75348    2.00000
   35     -7.67843    2.00000
   36     -7.58215    2.00000
   37     -7.33176    2.00000
   38     -7.14857    2.00000
   39     -6.92923    2.00000
   40     -6.39355    2.00000
   41     -6.05831    2.00000
   42     -5.82975    2.00000
   43     -5.73718    1.99999
   44     -5.23952    1.99886
   45     -4.86466    1.95268
   46     -4.70404    1.78448
   47     -4.62047    1.56426
   48     -4.33713    0.34868
   49     -4.29658    0.24677
   50     -4.19723    0.09907
   51     -3.89733    0.00518
   52     -3.31253    0.00001
   53     -3.25910    0.00001
   54     -3.08174    0.00000
   55     -2.96316    0.00000
   56     -2.60826    0.00000
   57     -2.58606    0.00000
   58     -2.14973    0.00000
   59     -1.92138    0.00000
   60     -1.45407    0.00000
   61     -1.41645    0.00000
   62      0.20010    0.00000
   63      0.78369    0.00000
   64      1.28575    0.00000
   65      1.78124    0.00000
   66      2.40008    0.00000
   67      2.66805    0.00000
   68      3.57063    0.00000
   69      3.87736    0.00000
   70      4.32011    0.00000
   71      4.93866    0.00000
   72      5.07007    0.00000
   73      5.85215    0.00000
   74      5.99553    0.00000
   75      6.13685    0.00000
   76      6.99944    0.00000
   77      7.16858    0.00000
   78      7.42467    0.00000
   79      7.60451    0.00000
   80      7.72304    0.00000
   81      8.09778    0.00000
   82      8.22919    0.00000
   83      8.37717    0.00000
   84      8.50835    0.00000
   85      8.61542    0.00000
   86      8.88926    0.00000
   87      8.99016    0.00000
   88      9.11557    0.00000
   89      9.25541    0.00000
   90      9.31566    0.00000
   91      9.39552    0.00000
   92      9.40611    0.00000
   93      9.58749    0.00000
   94      9.83916    0.00000
   95     10.00307    0.00000
   96     10.03465    0.00000
   97     10.10792    0.00000


Forces in eV/Ang:
  0 C     0.92811   -1.27069    0.87701
  1 C     3.62757   -1.73967    0.94681
  2 C    -3.10134    0.17478   -0.35527
  3 C     1.26194   -0.23842    0.80737
  4 C    -2.96853    2.12981   -1.11415
  5 C    -0.28326   -1.61282    0.54858
  6 C     1.12985    0.12980    1.08143
  7 C     3.52066   -2.23110   -1.82319
  8 C    -0.03602    0.65056    0.60847
  9 C     7.26124    3.12263    0.52878
 10 C    -0.19530    0.21498   -0.49806
 11 C     0.74219    1.05960   -0.28566
 12 C     0.58627    0.08257    1.56548
 13 C     0.17982   -1.58807   -1.92149
 14 C    -0.72934    0.52880    0.53153
 15 C    -0.35875    0.16327    0.38041
 16 C    -1.96125   -0.01620   -0.77218
 17 C    -0.68446    2.53682    0.16048
 18 C   -10.69885   -1.77997   -0.46638
 19 C    -1.65335    2.12542    0.12539
 20 C     0.16826    0.83196   -0.05627
 21 C     1.61504    0.10699   -0.03831
 22 C     2.43452   -1.80939   -0.46076
 23 C    -0.86967   -1.51926   -0.34188

System changes: positions 

Initializing position-dependent things.

Density initialized from wave functions
           .--------------------------------------.  
          /|                                      |  
         / |                                      |  
        /  |                                      |  
       /   |                                      |  
      /    |                                      |  
     /     |                                      |  
    /      |                                      |  
   /       |                                      |  
  /        |    C            C C                  |  
 *         |  C     C  C  C   C   C               |  
 |         | C       C    C C CC C                |  
 |         .---C---C-C---C--C---------------------.  
 |        /          C    C                      /   
 |       /             C                        /    
 |      /                                      /     
 |     /                                      /      
 |    /                                      /       
 |   /                                      /        
 |  /                                      /         
 | /                                      /          
 |/                                      /           
 *--------------------------------------*            

Positions:
   0 C      6.119083   10.709860    4.597326
   1 C      8.664656   11.345748    4.778086
   2 C      7.476276   10.540243    4.548195
   3 C      8.026661    9.161642    4.633374
   4 C      9.823543   10.445813    5.057017
   5 C      9.418742    9.067539    5.000154
   6 C     11.096481    5.209872    6.330246
   7 C      9.771276    5.263230    5.852934
   8 C     11.612073    6.416630    6.209725
   9 C      9.310594    6.592701    5.328935
  10 C     11.419486    7.646885    5.804105
  11 C     10.089943    7.834948    5.336701
  12 C      9.371956    4.131679    5.134442
  13 C      5.380589    8.695025    5.780787
  14 C      3.470335    7.467123    5.788866
  15 C      5.811251    6.121327    5.459160
  16 C      8.328729    3.399233    5.161853
  17 C      4.476680    5.504160    5.525148
  18 C      8.121563    6.193324    5.289994
  19 C      6.218989    7.554025    5.557090
  20 C      7.024436    3.883193    5.244754
  21 C      3.979841    8.672718    5.906369
  22 C      3.270317    6.155478    5.659158
  23 C      7.008084    5.322215    5.294410

Unit cell:
           periodic     x           y           z      points  spacing
  1. axis:    yes   16.000000    0.000000    0.000000    80     0.2000
  2. axis:    yes    0.000000   16.000000    0.000000    80     0.2000
  3. axis:    yes    0.000000    0.000000   10.000000    48     0.2083

Effective grid spacing dv^(1/3) = 0.2027

                     log10-error:    total        iterations:
           time      wfs    density  energy       fermi  poisson
iter:   1  10:23:08          +inf  -168.942103    3      5      
iter:   2  10:23:09         -1.62  -168.723057    3      2      
iter:   3  10:23:09         -1.83  -168.655057    3      2      
iter:   4  10:23:10         -2.00  -168.630362    3      2      
iter:   5  10:23:11         -2.12  -168.618488    3      2      
iter:   6  10:23:11         -2.26  -168.612103    2      2      
iter:   7  10:23:12         -2.37  -168.607425    2      2      
iter:   8  10:23:12         -2.56  -168.605775    2      2      
iter:   9  10:23:13         -2.72  -168.604957    2      2      
iter:  10  10:23:13         -2.95  -168.604720    2      1      
iter:  11  10:23:14         -3.02  -168.604552    2      2      
iter:  12  10:23:14         -3.24  -168.603444    2      1      
iter:  13  10:23:15         -3.39  -168.603776    2      1      
iter:  14  10:23:15         -3.57  -168.604430    2      1      
iter:  15  10:23:16         -3.65  -168.603950    2      1      
iter:  16  10:23:16         -3.80  -168.604123    2      1      
iter:  17  10:23:17         -3.96  -168.604678    2      1      
iter:  18  10:23:17         -4.06  -168.604778    2      1      

Converged after 18 iterations.

Dipole moment: (-0.086318, -0.579478, 0.063373) |e|*Ang

Energy contributions relative to reference atoms: (reference = -24663.074771)

Kinetic:        +98.058340
Potential:     -105.605658
External:        +0.000000
XC:            -163.756391
Entropy (-ST):   -0.373656
Local:           +2.885759
--------------------------
Free energy:   -168.791606
Extrapolated:  -168.604778

Fermi level: -4.45593

 Band  Eigenvalues  Occupancy
    0    -23.50515    2.00000
    1    -22.00516    2.00000
    2    -21.77269    2.00000
    3    -21.36435    2.00000
    4    -20.53500    2.00000
    5    -20.32538    2.00000
    6    -19.77076    2.00000
    7    -19.67434    2.00000
    8    -18.53691    2.00000
    9    -18.08831    2.00000
   10    -16.91898    2.00000
   11    -16.73231    2.00000
   12    -16.28078    2.00000
   13    -15.71731    2.00000
   14    -15.53169    2.00000
   15    -15.02815    2.00000
   16    -14.52026    2.00000
   17    -13.31815    2.00000
   18    -13.20779    2.00000
   19    -12.58627    2.00000
   20    -12.47526    2.00000
   21    -12.07521    2.00000
   22    -11.70845    2.00000
   23    -11.56462    2.00000
   24    -10.85197    2.00000
   25    -10.83609    2.00000
   26    -10.53570    2.00000
   27    -10.31348    2.00000
   28     -9.82708    2.00000
   29     -9.40860    2.00000
   30     -8.97099    2.00000
   31     -8.90625    2.00000
   32     -8.47919    2.00000
   33     -7.92377    2.00000
   34     -7.77347    2.00000
   35     -7.65307    2.00000
   36     -7.63267    2.00000
   37     -7.44968    2.00000
   38     -7.11328    2.00000
   39     -6.90369    2.00000
   40     -6.43959    2.00000
   41     -6.06007    2.00000
   42     -5.82069    2.00000
   43     -5.76782    2.00000
   44     -5.21565    1.99900
   45     -4.82318    1.95043
   46     -4.67073    1.79095
   47     -4.61411    1.65890
   48     -4.28639    0.31012
   49     -4.22606    0.18245
   50     -4.16564    0.10401
   51     -3.83756    0.00412
   52     -3.32454    0.00002
   53     -3.22014    0.00001
   54     -2.97782    0.00000
   55     -2.85803    0.00000
   56     -2.63448    0.00000
   57     -2.51868    0.00000
   58     -2.13623    0.00000
   59     -1.90727    0.00000
   60     -1.48774    0.00000
   61     -1.30571    0.00000
   62      0.19845    0.00000
   63      0.90833    0.00000
   64      1.39946    0.00000
   65      1.87352    0.00000
   66      2.41209    0.00000
   67      2.72746    0.00000
   68      3.64037    0.00000
   69      4.04406    0.00000
   70      4.26661    0.00000
   71      5.10206    0.00000
   72      5.44465    0.00000
   73      5.92638    0.00000
   74      6.06976    0.00000
   75      6.34235    0.00000
   76      6.84993    0.00000
   77      7.25400    0.00000
   78      7.49785    0.00000
   79      7.72059    0.00000
   80      7.93667    0.00000
   81      8.19780    0.00000
   82      8.28533    0.00000
   83      8.44698    0.00000
   84      8.65235    0.00000
   85      8.71977    0.00000
   86      8.97832    0.00000
   87      9.04917    0.00000
   88      9.23366    0.00000
   89      9.29012    0.00000
   90      9.36739    0.00000
   91      9.41957    0.00000
   92      9.47340    0.00000
   93      9.53099    0.00000
   94      9.85934    0.00000
   95      9.96574    0.00000
   96     10.02757    0.00000
   97     10.11910    0.00000


Forces in eV/Ang:
  0 C    -0.02945   -1.02246    0.90648
  1 C     3.36685   -2.49262    0.81408
  2 C    -1.04818    0.00353   -0.03334
  3 C     0.94636    0.09473    0.76506
  4 C    -3.64578    2.13418   -1.25850
  5 C    -0.30007   -0.69031    0.42843
  6 C     1.41360    0.11278    1.05300
  7 C     3.08964   -1.27466   -1.63242
  8 C     0.00778    0.60744    0.57968
  9 C     3.63778    1.22403    0.51026
 10 C     0.01468    0.27908   -0.40298
 11 C     0.55263    0.31147   -0.10511
 12 C    -0.27821   -0.81366    1.27839
 13 C     0.28763   -1.13625   -1.83335
 14 C    -0.60062    0.42705    0.46602
 15 C    -0.13654    0.11562    0.34747
 16 C    -0.85821    0.48435   -0.79271
 17 C     0.14386    1.85828    0.04307
 18 C    -6.45491   -0.11451   -0.46105
 19 C    -1.01994    1.16547   -0.16296
 20 C    -0.18492    0.26813   -0.04570
 21 C     0.77373   -0.34420    0.00868
 22 C     1.46468   -0.54943   -0.25158
 23 C    -1.12435   -0.58445   -0.20253

System changes: positions 

Initializing position-dependent things.

Density initialized from wave functions
           .--------------------------------------.  
          /|                                      |  
         / |                                      |  
        /  |                                      |  
       /   |                                      |  
      /    |                                      |  
     /     |                                      |  
    /      |                                      |  
   /       |                                      |  
  /        |    C            C C                  |  
 *         |  C     C  C  C   C   C               |  
 |         | C       C    C C  C C                |  
 |         .---C---C-C---C--C---------------------.  
 |        /          C    C                      /   
 |       /             C                        /    
 |      /                                      /     
 |     /                                      /      
 |    /                                      /       
 |   /                                      /        
 |  /                                      /         
 | /                                      /          
 |/                                      /           
 *--------------------------------------*            

Positions:
   0 C      6.118642   10.700618    4.605529
   1 C      8.694803   11.322763    4.785437
   2 C      7.467469   10.540477    4.547926
   3 C      8.035480    9.162721    4.640333
   4 C      9.790323   10.464898    5.045519
   5 C      9.415827    9.062025    5.003978
   6 C     11.110400    5.210771    6.340140
   7 C      9.798584    5.254265    5.837760
   8 C     11.612254    6.421982    6.215060
   9 C      9.314290    6.590873    5.332806
  10 C     11.420823    7.649419    5.800796
  11 C     10.094694    7.838036    5.335704
  12 C      9.368302    4.123579    5.146021
  13 C      5.383358    8.684807    5.764211
  14 C      3.464905    7.470772    5.793010
  15 C      5.809191    6.122479    5.462418
  16 C      8.321774    3.403899    5.154344
  17 C      4.478345    5.520806    5.525460
  18 C      8.093410    6.204513    5.286559
  19 C      6.209978    7.563938    5.555592
  20 C      7.022578    3.884675    5.244433
  21 C      3.986660    8.669502    5.906421
  22 C      3.283349    6.151040    5.656986
  23 C      6.996162    5.316229    5.292509

Unit cell:
           periodic     x           y           z      points  spacing
  1. axis:    yes   16.000000    0.000000    0.000000    80     0.2000
  2. axis:    yes    0.000000   16.000000    0.000000    80     0.2000
  3. axis:    yes    0.000000    0.000000   10.000000    48     0.2083

Effective grid spacing dv^(1/3) = 0.2027

                     log10-error:    total        iterations:
           time      wfs    density  energy       fermi  poisson
iter:   1  10:23:19          +inf  -169.787934    3      5      
iter:   2  10:23:20         -1.66  -169.554458    3      2      
iter:   3  10:23:21         -1.94  -169.507432    2      2      
iter:   4  10:23:21         -2.14  -169.491361    2      2      
iter:   5  10:23:22         -2.29  -169.486920    2      2      
iter:   6  10:23:22         -2.41  -169.482172    2      2      
iter:   7  10:23:23         -2.57  -169.480474    2      2      
iter:   8  10:23:23         -2.73  -169.480357    2      2      
iter:   9  10:23:24         -2.84  -169.480100    2      2      
iter:  10  10:23:24         -3.16  -169.479846    2      1      
iter:  11  10:23:25         -3.26  -169.478995    2      1      
iter:  12  10:23:25         -3.49  -169.480153    2      1      
iter:  13  10:23:26         -3.67  -169.480197    2      1      
iter:  14  10:23:26         -3.75  -169.480167    2      1      
iter:  15  10:23:27         -3.82  -169.479785    2      1      
iter:  16  10:23:28         -4.03  -169.479649    1      1      

Converged after 16 iterations.

Dipole moment: (-0.098568, -0.544375, 0.066811) |e|*Ang

Energy contributions relative to reference atoms: (reference = -24663.074771)

Kinetic:        +99.049898
Potential:     -106.409258
External:        +0.000000
XC:            -164.858005
Entropy (-ST):   -0.341666
Local:           +2.908549
--------------------------
Free energy:   -169.650482
Extrapolated:  -169.479649

Fermi level: -4.42692

 Band  Eigenvalues  Occupancy
    0    -23.29973    2.00000
    1    -22.06339    2.00000
    2    -21.82080    2.00000
    3    -21.38789    2.00000
    4    -20.52629    2.00000
    5    -20.18577    2.00000
    6    -19.86142    2.00000
    7    -19.67214    2.00000
    8    -18.51488    2.00000
    9    -18.14076    2.00000
   10    -17.03047    2.00000
   11    -16.77503    2.00000
   12    -16.33188    2.00000
   13    -15.75752    2.00000
   14    -15.53212    2.00000
   15    -15.01668    2.00000
   16    -14.43776    2.00000
   17    -13.33856    2.00000
   18    -13.17754    2.00000
   19    -12.58704    2.00000
   20    -12.50611    2.00000
   21    -12.03168    2.00000
   22    -11.65682    2.00000
   23    -11.56649    2.00000
   24    -10.94748    2.00000
   25    -10.85670    2.00000
   26    -10.59155    2.00000
   27    -10.35199    2.00000
   28     -9.87815    2.00000
   29     -9.42248    2.00000
   30     -8.99950    2.00000
   31     -8.91246    2.00000
   32     -8.45944    2.00000
   33     -7.87751    2.00000
   34     -7.83660    2.00000
   35     -7.63973    2.00000
   36     -7.61812    2.00000
   37     -7.49777    2.00000
   38     -7.10954    2.00000
   39     -6.87662    2.00000
   40     -6.44459    2.00000
   41     -6.08718    2.00000
   42     -5.83690    2.00000
   43     -5.79094    2.00000
   44     -5.21624    1.99925
   45     -4.86987    1.97644
   46     -4.64941    1.80493
   47     -4.58444    1.65707
   48     -4.27995    0.37399
   49     -4.15578    0.12462
   50     -4.07975    0.06026
   51     -3.78931    0.00340
   52     -3.33632    0.00004
   53     -3.19005    0.00001
   54     -2.90558    0.00000
   55     -2.77315    0.00000
   56     -2.63190    0.00000
   57     -2.44937    0.00000
   58     -2.10264    0.00000
   59     -1.85594    0.00000
   60     -1.45540    0.00000
   61     -1.15758    0.00000
   62      0.24964    0.00000
   63      1.02504    0.00000
   64      1.50261    0.00000
   65      1.96095    0.00000
   66      2.46264    0.00000
   67      2.80936    0.00000
   68      3.68874    0.00000
   69      4.06441    0.00000
   70      4.22198    0.00000
   71      5.22901    0.00000
   72      5.70896    0.00000
   73      5.94896    0.00000
   74      6.17989    0.00000
   75      6.55629    0.00000
   76      6.76755    0.00000
   77      7.31966    0.00000
   78      7.54117    0.00000
   79      7.75987    0.00000
   80      8.08613    0.00000
   81      8.29181    0.00000
   82      8.31345    0.00000
   83      8.48962    0.00000
   84      8.70773    0.00000
   85      8.74965    0.00000
   86      9.00952    0.00000
   87      9.08832    0.00000
   88      9.25875    0.00000
   89      9.29082    0.00000
   90      9.40794    0.00000
   91      9.49281    0.00000
   92      9.51471    0.00000
   93      9.56732    0.00000
   94      9.85586    0.00000
   95      9.98789    0.00000
   96     10.03023    0.00000
   97     10.15000    0.00000


Forces in eV/Ang:
  0 C    -0.29187   -0.84756    0.93662
  1 C     2.77715   -2.37241    0.55691
  2 C    -0.37690   -0.05608    0.15731
  3 C     0.75665   -0.04186    0.75955
  4 C    -3.39566    1.80031   -1.11506
  5 C    -0.29712   -0.38377    0.31612
  6 C     1.45762    0.09728    0.94288
  7 C     2.75817   -0.99357   -1.54332
  8 C     0.05411    0.61265    0.56205
  9 C     1.91275    0.28601    0.46653
 10 C     0.12670    0.30679   -0.34032
 11 C     0.40618    0.03305   -0.00140
 12 C    -0.04479   -0.66776    1.24505
 13 C     0.24906   -0.65849   -1.75827
 14 C    -0.54728    0.35541    0.43557
 15 C    -0.10755    0.13106    0.32549
 16 C    -0.84224    0.37072   -0.78887
 17 C     0.44103    1.47371    0.00768
 18 C    -4.34048    0.71766   -0.44375
 19 C    -0.58372    0.55379   -0.37365
 20 C    -0.44213    0.04909   -0.02399
 21 C     0.41095   -0.40528    0.03439
 22 C     0.88242   -0.07357   -0.17290
 23 C    -1.02246   -0.21320   -0.13746

System changes: positions 

Initializing position-dependent things.

Density initialized from wave functions
           .--------------------------------------.  
          /|                                      |  
         / |                                      |  
        /  |                                      |  
       /   |                                      |  
      /    |                                      |  
     /     |                                      |  
    /      |                                      |  
   /       |                                      |  
  /        |    C            C C                  |  
 *         |  C     C  C  C   C   C               |  
 |         | C       C    C C  C C                |  
 |         .---C---C-C---C--C---------------------.  
 |        /          C    C                      /   
 |       /             C                        /    
 |      /                                      /     
 |     /                                      /      
 |    /                                      /       
 |   /                                      /        
 |  /                                      /         
 | /                                      /          
 |/                                      /           
 *--------------------------------------*            

Positions:
   0 C      6.116202   10.691843    4.615380
   1 C      8.722493   11.299079    4.790768
   2 C      7.462689   10.540119    4.549625
   3 C      8.043541    9.161559    4.648365
   4 C      9.756286   10.482704    5.034366
   5 C      9.412616    9.057926    5.007134
   6 C     11.126110    5.211694    6.350007
   7 C      9.826808    5.244870    5.821277
   8 C     11.612953    6.428385    6.221004
   9 C      9.315833    6.585674    5.337111
  10 C     11.422933    7.652617    5.797480
  11 C     10.098675    7.838935    5.335667
  12 C      9.369011    4.117837    5.159415
  13 C      5.385812    8.678557    5.745867
  14 C      3.459125    7.474313    5.797541
  15 C      5.807264    6.124035    5.465894
  16 C      8.311869    3.406911    5.145898
  17 C      4.482762    5.536120    5.525570
  18 C      8.067229    6.219844    5.282435
  19 C      6.204229    7.569118    5.551527
  20 C      7.017661    3.884824    5.244286
  21 C      3.991133    8.665703    5.906763
  22 C      3.292337    6.150009    5.655141
  23 C      6.984952    5.313129    5.290990

Unit cell:
           periodic     x           y           z      points  spacing
  1. axis:    yes   16.000000    0.000000    0.000000    80     0.2000
  2. axis:    yes    0.000000   16.000000    0.000000    80     0.2000
  3. axis:    yes    0.000000    0.000000   10.000000    48     0.2083

Effective grid spacing dv^(1/3) = 0.2027

                     log10-error:    total        iterations:
           time      wfs    density  energy       fermi  poisson
iter:   1  10:23:30          +inf  -170.443156    3      5      
iter:   2  10:23:30         -1.71  -170.226943    3      2      
iter:   3  10:23:31         -1.97  -170.168421    2      2      
iter:   4  10:23:31         -2.17  -170.155004    2      2      
iter:   5  10:23:32         -2.34  -170.151546    2      2      
iter:   6  10:23:32         -2.48  -170.149841    2      2      
iter:   7  10:23:33         -2.58  -170.147482    2      2      
iter:   8  10:23:33         -2.78  -170.147840    2      2      
iter:   9  10:23:34         -2.89  -170.147757    2      2      
iter:  10  10:23:34         -3.20  -170.147291    2      1      
iter:  11  10:23:35         -3.36  -170.147754    2      1      
iter:  12  10:23:35         -3.53  -170.147964    2      1      
iter:  13  10:23:36         -3.65  -170.147884    2      1      
iter:  14  10:23:37         -3.83  -170.148308    2      1      
iter:  15  10:23:37         -3.98  -170.148020    2      1      
iter:  16  10:23:38         -4.11  -170.147865    2      1      

Converged after 16 iterations.

Dipole moment: (-0.098148, -0.486819, 0.058509) |e|*Ang

Energy contributions relative to reference atoms: (reference = -24663.074771)

Kinetic:       +101.406479
Potential:     -108.322480
External:        +0.000000
XC:            -165.991361
Entropy (-ST):   -0.325480
Local:           +2.922237
--------------------------
Free energy:   -170.310605
Extrapolated:  -170.147865

Fermi level: -4.40268

 Band  Eigenvalues  Occupancy
    0    -23.12726    2.00000
    1    -22.10158    2.00000
    2    -21.90472    2.00000
    3    -21.39148    2.00000
    4    -20.51642    2.00000
    5    -20.05861    2.00000
    6    -19.88261    2.00000
    7    -19.65718    2.00000
    8    -18.49437    2.00000
    9    -18.17590    2.00000
   10    -17.18552    2.00000
   11    -16.80955    2.00000
   12    -16.37276    2.00000
   13    -15.77925    2.00000
   14    -15.52957    2.00000
   15    -14.99874    2.00000
   16    -14.34691    2.00000
   17    -13.35281    2.00000
   18    -13.14822    2.00000
   19    -12.58690    2.00000
   20    -12.51987    2.00000
   21    -12.01436    2.00000
   22    -11.61794    2.00000
   23    -11.52407    2.00000
   24    -11.03717    2.00000
   25    -10.90728    2.00000
   26    -10.56852    2.00000
   27    -10.35212    2.00000
   28     -9.90389    2.00000
   29     -9.44597    2.00000
   30     -9.00659    2.00000
   31     -8.91774    2.00000
   32     -8.44746    2.00000
   33     -7.88119    2.00000
   34     -7.84735    2.00000
   35     -7.62965    2.00000
   36     -7.57049    2.00000
   37     -7.49970    2.00000
   38     -7.13162    2.00000
   39     -6.85156    2.00000
   40     -6.44007    2.00000
   41     -6.15739    2.00000
   42     -5.86018    2.00000
   43     -5.82813    2.00000
   44     -5.24607    1.99957
   45     -4.93294    1.99009
   46     -4.63713    1.82499
   47     -4.54546    1.61312
   48     -4.27605    0.43978
   49     -4.11722    0.10888
   50     -3.94904    0.02120
   51     -3.72638    0.00231
   52     -3.33880    0.00005
   53     -3.16286    0.00001
   54     -2.84486    0.00000
   55     -2.71739    0.00000
   56     -2.62743    0.00000
   57     -2.38459    0.00000
   58     -2.05756    0.00000
   59     -1.80801    0.00000
   60     -1.39486    0.00000
   61     -1.00642    0.00000
   62      0.30676    0.00000
   63      1.12448    0.00000
   64      1.58136    0.00000
   65      2.07571    0.00000
   66      2.51924    0.00000
   67      2.89071    0.00000
   68      3.73927    0.00000
   69      4.05233    0.00000
   70      4.19665    0.00000
   71      5.35437    0.00000
   72      5.82437    0.00000
   73      5.97914    0.00000
   74      6.31203    0.00000
   75      6.43007    0.00000
   76      6.99998    0.00000
   77      7.35643    0.00000
   78      7.55732    0.00000
   79      7.77927    0.00000
   80      8.20023    0.00000
   81      8.28023    0.00000
   82      8.41291    0.00000
   83      8.53593    0.00000
   84      8.74858    0.00000
   85      8.77504    0.00000
   86      9.02127    0.00000
   87      9.11384    0.00000
   88      9.26352    0.00000
   89      9.29691    0.00000
   90      9.44298    0.00000
   91      9.49881    0.00000
   92      9.58601    0.00000
   93      9.65242    0.00000
   94      9.83775    0.00000
   95     10.01175    0.00000
   96     10.05282    0.00000
   97     10.19536    0.00000


Forces in eV/Ang:
  0 C    -0.35369   -0.71234    0.97179
  1 C     1.13306   -1.36596    0.04267
  2 C    -0.03115   -0.09394    0.30096
  3 C     0.52558   -0.31092    0.70409
  4 C    -2.03323    0.62154   -0.65813
  5 C    -0.23746   -0.18261    0.21408
  6 C     1.53308    0.13215    0.84799
  7 C     2.47912   -0.62370   -1.34995
  8 C     0.09763    0.52126    0.53325
  9 C     0.84922   -0.24102    0.40982
 10 C     0.17199    0.36024   -0.29043
 11 C     0.28221   -0.17212    0.07737
 12 C    -0.35035   -0.97981    1.06045
 13 C     0.20051   -0.24873   -1.65821
 14 C    -0.52881    0.29121    0.41929
 15 C    -0.05668    0.12896    0.27668
 16 C    -0.39462    0.58291   -0.75986
 17 C     0.45647    1.18099   -0.00853
 18 C    -2.91500    1.18252   -0.41731
 19 C    -0.25305    0.15500   -0.50410
 20 C    -0.56323   -0.05274   -0.00057
 21 C     0.23749   -0.37046    0.04804
 22 C     0.52815    0.13780   -0.11969
 23 C    -0.86516    0.06612   -0.10242

System changes: positions 

Initializing position-dependent things.

Density initialized from wave functions
           .--------------------------------------.  
          /|                                      |  
         / |                                      |  
        /  |                                      |  
       /   |                                      |  
      /    |                                      |  
     /     |                                      |  
    /      |                                      |  
   /       |                                      |  
  /        |    C            C C                  |  
 *         |  C     C  C  C   C   C               |  
 |         | C       C    C C  C C                |  
 |         .---C---C-C--C---C---------------------.  
 |        /          C    C                      /   
 |       /             C                        /    
 |      /                                      /     
 |     /                                      /      
 |    /                                      /       
 |   /                                      /        
 |  /                                      /         
 | /                                      /          
 |/                                      /           
 *--------------------------------------*            

Positions:
   0 C      6.112810   10.681813    4.628750
   1 C      8.737134   11.282048    4.791112
   2 C      7.459472   10.539191    4.553431
   3 C      8.051232    9.156462    4.658138
   4 C      9.730312   10.490304    5.025873
   5 C      9.409295    9.054416    5.010115
   6 C     11.147343    5.213473    6.361765
   7 C      9.860930    5.236249    5.802266
   8 C     11.614344    6.435545    6.228420
   9 C      9.316236    6.577727    5.342306
  10 C     11.425697    7.657505    5.793572
  11 C     10.102575    7.837794    5.336502
  12 C      9.365508    4.105836    5.174494
  13 C      5.388380    8.675010    5.722999
  14 C      3.451663    7.478296    5.803361
  15 C      5.805638    6.125984    5.469787
  16 C      8.304826    3.414006    5.135309
  17 C      4.487963    5.553061    5.525595
  18 C      8.038326    6.240694    5.277115
  19 C      6.200260    7.571918    5.544840
  20 C      7.010146    3.884401    5.244344
  21 C      3.995473    8.661390    5.907353
  22 C      3.300573    6.150343    5.653248
  23 C      6.972781    5.312344    5.289357

Unit cell:
           periodic     x           y           z      points  spacing
  1. axis:    yes   16.000000    0.000000    0.000000    80     0.2000
  2. axis:    yes    0.000000   16.000000    0.000000    80     0.2000
  3. axis:    yes    0.000000    0.000000   10.000000    48     0.2083

Effective grid spacing dv^(1/3) = 0.2027

                     log10-error:    total        iterations:
           time      wfs    density  energy       fermi  poisson
iter:   1  10:23:40          +inf  -170.798941    3      5      
iter:   2  10:23:40         -1.83  -170.690589    3      2      
iter:   3  10:23:41         -2.05  -170.651610    2      2      
iter:   4  10:23:41         -2.25  -170.641956    2      2      
iter:   5  10:23:42         -2.42  -170.640118    2      2      
iter:   6  10:23:42         -2.54  -170.638721    2      2      
iter:   7  10:23:43         -2.64  -170.637299    2      2      
iter:   8  10:23:43         -2.81  -170.636710    2      2      
iter:   9  10:23:44         -2.97  -170.637060    2      2      
iter:  10  10:23:44         -3.22  -170.635435    2      1      
iter:  11  10:23:45         -3.39  -170.636392    2      1      
iter:  12  10:23:46         -3.57  -170.637864    2      1      
iter:  13  10:23:46         -3.68  -170.638407    2      1      
iter:  14  10:23:47         -3.85  -170.637876    2      1      
iter:  15  10:23:47         -3.93  -170.637506    2      1      
iter:  16  10:23:48         -3.97  -170.637713    2      1      
iter:  17  10:23:48         -4.06  -170.637330    2      1      

Converged after 17 iterations.

Dipole moment: (-0.131244, -0.445999, 0.047805) |e|*Ang

Energy contributions relative to reference atoms: (reference = -24663.074771)

Kinetic:       +104.329396
Potential:     -110.745400
External:        +0.000000
XC:            -167.005424
Entropy (-ST):   -0.308390
Local:           +2.938292
--------------------------
Free energy:   -170.791525
Extrapolated:  -170.637330

Fermi level: -4.38869

 Band  Eigenvalues  Occupancy
    0    -22.95874    2.00000
    1    -22.15402    2.00000
    2    -21.98761    2.00000
    3    -21.38955    2.00000
    4    -20.51480    2.00000
    5    -20.00591    2.00000
    6    -19.83369    2.00000
    7    -19.63601    2.00000
    8    -18.47458    2.00000
    9    -18.21055    2.00000
   10    -17.30068    2.00000
   11    -16.83392    2.00000
   12    -16.41185    2.00000
   13    -15.79290    2.00000
   14    -15.52531    2.00000
   15    -14.99032    2.00000
   16    -14.27107    2.00000
   17    -13.38296    2.00000
   18    -13.13266    2.00000
   19    -12.57836    2.00000
   20    -12.53426    2.00000
   21    -12.01036    2.00000
   22    -11.57705    2.00000
   23    -11.46780    2.00000
   24    -11.07337    2.00000
   25    -10.93073    2.00000
   26    -10.51782    2.00000
   27    -10.33414    2.00000
   28     -9.93101    2.00000
   29     -9.47213    2.00000
   30     -9.02723    2.00000
   31     -8.92625    2.00000
   32     -8.44134    2.00000
   33     -7.93849    2.00000
   34     -7.85952    2.00000
   35     -7.63803    2.00000
   36     -7.54647    2.00000
   37     -7.48566    2.00000
   38     -7.15312    2.00000
   39     -6.82978    2.00000
   40     -6.43875    2.00000
   41     -6.24802    2.00000
   42     -5.88094    2.00000
   43     -5.86580    2.00000
   44     -5.26639    1.99969
   45     -4.94157    1.99209
   46     -4.64015    1.85031
   47     -4.52944    1.60675
   48     -4.26506    0.45015
   49     -4.08349    0.09026
   50     -3.85182    0.00928
   51     -3.66206    0.00140
   52     -3.35449    0.00006
   53     -3.12246    0.00001
   54     -2.81693    0.00000
   55     -2.68785    0.00000
   56     -2.57408    0.00000
   57     -2.32240    0.00000
   58     -2.03101    0.00000
   59     -1.74599    0.00000
   60     -1.33312    0.00000
   61     -0.88094    0.00000
   62      0.37587    0.00000
   63      1.22393    0.00000
   64      1.64745    0.00000
   65      2.19498    0.00000
   66      2.55033    0.00000
   67      2.96940    0.00000
   68      3.78494    0.00000
   69      4.06480    0.00000
   70      4.18275    0.00000
   71      5.45726    0.00000
   72      5.85844    0.00000
   73      6.00331    0.00000
   74      6.32547    0.00000
   75      6.44290    0.00000
   76      7.18012    0.00000
   77      7.37267    0.00000
   78      7.57754    0.00000
   79      7.79450    0.00000
   80      8.24585    0.00000
   81      8.28056    0.00000
   82      8.48740    0.00000
   83      8.57874    0.00000
   84      8.76637    0.00000
   85      8.78978    0.00000
   86      9.03088    0.00000
   87      9.13882    0.00000
   88      9.28087    0.00000
   89      9.28935    0.00000
   90      9.46619    0.00000
   91      9.51048    0.00000
   92      9.64012    0.00000
   93      9.71504    0.00000
   94      9.83162    0.00000
   95     10.03849    0.00000
   96     10.07495    0.00000
   97     10.24991    0.00000


Forces in eV/Ang:
  0 C    -0.34403   -0.67099    1.00111
  1 C    -0.65146   -0.07793   -0.42862
  2 C     0.09020   -0.17824    0.37459
  3 C     0.19912   -0.34988    0.54049
  4 C    -0.32382   -0.65168   -0.18639
  5 C    -0.03304   -0.15303    0.19581
  6 C     1.42881    0.05927    0.67904
  7 C     2.06265   -0.53402   -1.22946
  8 C     0.17081    0.60682    0.45889
  9 C     0.05827   -0.60060    0.30901
 10 C     0.23306    0.35185   -0.19904
 11 C     0.08857   -0.35740    0.12905
 12 C     0.05665   -0.69983    1.05954
 13 C     0.16583    0.15806   -1.57498
 14 C    -0.47281    0.23465    0.39602
 15 C    -0.10782    0.15600    0.21338
 16 C    -0.55921    0.48728   -0.69996
 17 C     0.38292    0.93202   -0.02468
 18 C    -1.60582    1.49145   -0.37122
 19 C     0.03853   -0.21461   -0.54933
 20 C    -0.66352   -0.07567    0.01366
 21 C     0.14120   -0.33021    0.03061
 22 C     0.19453    0.28359   -0.06430
 23 C    -0.59340    0.16645   -0.08273

System changes: positions 

Initializing position-dependent things.

Density initialized from wave functions
           .--------------------------------------.  
          /|                                      |  
         / |                                      |  
        /  |                                      |  
       /   |                                      |  
      /    |                                      |  
     /     |                                      |  
    /      |                                      |  
   /       |                                      |  
  /        |                 C C                  |  
 *         |  C C   C  C  C   C  CC               |  
 |         | C       C    C C  C                  |  
 |         .---C---C-C--C---C---------------------.  
 |        /         C     C                      /   
 |       /             C                        /    
 |      /                                      /     
 |     /                                      /      
 |    /                                      /       
 |   /                                      /        
 |  /                                      /         
 | /                                      /          
 |/                                      /           
 *--------------------------------------*            

Positions:
   0 C      6.109054   10.670931    4.643482
   1 C      8.738327   11.274481    4.787918
   2 C      7.456904   10.537260    4.557950
   3 C      8.056559    9.151686    4.667040
   4 C      9.716595   10.488094    5.020352
   5 C      9.407831    9.050528    5.013520
   6 C     11.169000    5.214531    6.372997
   7 C      9.894403    5.226758    5.782530
   8 C     11.616494    6.444506    6.235710
   9 C      9.315946    6.568853    5.347172
  10 C     11.429027    7.662585    5.790128
  11 C     10.105112    7.834814    5.337765
  12 C      9.366148    4.095889    5.191169
  13 C      5.391039    8.674172    5.698764
  14 C      3.444153    7.482236    5.809475
  15 C      5.803459    6.128322    5.473427
  16 C      8.294901    3.420643    5.124436
  17 C      4.492889    5.569566    5.525460
  18 C      8.012158    6.263291    5.271617
  19 C      6.198086    7.572229    5.537534
  20 C      7.001353    3.884023    5.244458
  21 C      3.999504    8.656797    5.907765
  22 C      3.306936    6.151942    5.651695
  23 C      6.962112    5.312167    5.287731

Unit cell:
           periodic     x           y           z      points  spacing
  1. axis:    yes   16.000000    0.000000    0.000000    80     0.2000
  2. axis:    yes    0.000000   16.000000    0.000000    80     0.2000
  3. axis:    yes    0.000000    0.000000   10.000000    48     0.2083

Effective grid spacing dv^(1/3) = 0.2027

                     log10-error:    total        iterations:
           time      wfs    density  energy       fermi  poisson
iter:   1  10:23:50          +inf  -171.095009    2      5      
iter:   2  10:23:51         -1.95  -171.032084    3      2      
iter:   3  10:23:51         -2.21  -171.013698    3      2      
iter:   4  10:23:52         -2.39  -171.010652    2      2      
iter:   5  10:23:52         -2.54  -171.009168    2      2      
iter:   6  10:23:53         -2.67  -171.009481    2      2      
iter:   7  10:23:53         -2.78  -171.004915    2      1      
iter:   8  10:23:54         -2.94  -171.007259    2      2      
iter:   9  10:23:54         -3.11  -171.005479    2      1      
iter:  10  10:23:55         -3.31  -171.004922    2      1      
iter:  11  10:23:56         -3.43  -171.009484    1      1      
iter:  12  10:23:56         -3.62  -171.008006    2      1      
iter:  13  10:23:57         -3.71  -171.007553    2      1      
iter:  14  10:23:57         -3.85  -171.008766    2      1      
iter:  15  10:23:58         -3.98  -171.008177    2      1      
iter:  16  10:23:58         -4.12  -171.007769    2      1      

Converged after 16 iterations.

Dipole moment: (-0.184758, -0.424542, 0.037435) |e|*Ang

Energy contributions relative to reference atoms: (reference = -24663.074771)

Kinetic:       +105.017198
Potential:     -111.396666
External:        +0.000000
XC:            -167.408017
Entropy (-ST):   -0.295739
Local:           +2.927585
--------------------------
Free energy:   -171.155639
Extrapolated:  -171.007769

Fermi level: -4.38984

 Band  Eigenvalues  Occupancy
    0    -22.83048    2.00000
    1    -22.20610    2.00000
    2    -22.03536    2.00000
    3    -21.37937    2.00000
    4    -20.51052    2.00000
    5    -20.02894    2.00000
    6    -19.74237    2.00000
    7    -19.59099    2.00000
    8    -18.47557    2.00000
    9    -18.22552    2.00000
   10    -17.33989    2.00000
   11    -16.86440    2.00000
   12    -16.44626    2.00000
   13    -15.79154    2.00000
   14    -15.51785    2.00000
   15    -14.98587    2.00000
   16    -14.22529    2.00000
   17    -13.41890    2.00000
   18    -13.13692    2.00000
   19    -12.57061    2.00000
   20    -12.54963    2.00000
   21    -12.01964    2.00000
   22    -11.52649    2.00000
   23    -11.42217    2.00000
   24    -11.08208    2.00000
   25    -10.92170    2.00000
   26    -10.47616    2.00000
   27    -10.31784    2.00000
   28     -9.95322    2.00000
   29     -9.48709    2.00000
   30     -9.05522    2.00000
   31     -8.93232    2.00000
   32     -8.43062    2.00000
   33     -8.00490    2.00000
   34     -7.89515    2.00000
   35     -7.63671    2.00000
   36     -7.55258    2.00000
   37     -7.44231    2.00000
   38     -7.14832    2.00000
   39     -6.81632    2.00000
   40     -6.45625    2.00000
   41     -6.31387    2.00000
   42     -5.89828    2.00000
   43     -5.87420    2.00000
   44     -5.26119    1.99967
   45     -4.92253    1.99033
   46     -4.64666    1.85757
   47     -4.53834    1.63066
   48     -4.26331    0.44014
   49     -4.06466    0.07453
   50     -3.81099    0.00611
   51     -3.62055    0.00091
   52     -3.37696    0.00008
   53     -3.09863    0.00000
   54     -2.82837    0.00000
   55     -2.66679    0.00000
   56     -2.54191    0.00000
   57     -2.27537    0.00000
   58     -2.01787    0.00000
   59     -1.70730    0.00000
   60     -1.27583    0.00000
   61     -0.80585    0.00000
   62      0.42042    0.00000
   63      1.29041    0.00000
   64      1.69546    0.00000
   65      2.24851    0.00000
   66      2.55610    0.00000
   67      3.02538    0.00000
   68      3.81058    0.00000
   69      4.09819    0.00000
   70      4.18239    0.00000
   71      5.53396    0.00000
   72      5.86126    0.00000
   73      6.03669    0.00000
   74      6.31453    0.00000
   75      6.50423    0.00000
   76      7.24744    0.00000
   77      7.38219    0.00000
   78      7.57887    0.00000
   79      7.80512    0.00000
   80      8.20291    0.00000
   81      8.33532    0.00000
   82      8.53798    0.00000
   83      8.61234    0.00000
   84      8.77636    0.00000
   85      8.79888    0.00000
   86      9.03865    0.00000
   87      9.15441    0.00000
   88      9.27366    0.00000
   89      9.30860    0.00000
   90      9.46818    0.00000
   91      9.52878    0.00000
   92      9.66835    0.00000
   93      9.74781    0.00000
   94      9.85777    0.00000
   95     10.04238    0.00000
   96     10.08984    0.00000
   97     10.28981    0.00000


Forces in eV/Ang:
  0 C    -0.31797   -0.73597    1.03017
  1 C    -1.37812    0.43643   -0.61211
  2 C     0.02484   -0.28851    0.40627
  3 C     0.02082   -0.21597    0.45330
  4 C     0.42226   -1.13954    0.01676
  5 C     0.14516   -0.22895    0.20762
  6 C     1.33603    0.11117    0.47969
  7 C     1.70238   -0.29934   -0.98165
  8 C     0.20715    0.50977    0.41061
  9 C    -0.43487   -0.76828    0.20970
 10 C     0.25578    0.41595   -0.13990
 11 C    -0.09275   -0.52232    0.15512
 12 C    -0.04941   -0.79954    0.92647
 13 C     0.13330    0.52017   -1.50445
 14 C    -0.41132    0.20229    0.37493
 15 C    -0.10344    0.14626    0.14847
 16 C    -0.32100    0.65213   -0.62225
 17 C     0.18882    0.73826   -0.03236
 18 C    -0.65918    1.52522   -0.28555
 19 C     0.23957   -0.47603   -0.56213
 20 C    -0.68843   -0.07264    0.01918
 21 C     0.13280   -0.27753   -0.00109
 22 C    -0.06269    0.34358   -0.03008
 23 C    -0.35555    0.27881   -0.06166

System changes: positions 

Initializing position-dependent things.

Density initialized from wave functions
           .--------------------------------------.  
          /|                                      |  
         / |                                      |  
        /  |                                      |  
       /   |                                      |  
      /    |                                      |  
     /     |                                      |  
    /      |                                      |  
   /       |                                      |  
  /        |                 C C                  |  
 *         |  C C   C  C  C   C  CC               |  
 |         | C       C    C C  CC                 |  
 |         .---C---C-C--C---C---------------------.  
 |        /         C     C                      /   
 |       /             C                        /    
 |      /                                      /     
 |     /                                      /      
 |    /                                      /       
 |   /                                      /        
 |  /                                      /         
 | /                                      /          
 |/                                      /           
 *--------------------------------------*            

Positions:
   0 C      6.105281   10.657526    4.660405
   1 C      8.734240   11.270078    4.783115
   2 C      7.452390   10.533743    4.563157
   3 C      8.060870    9.148491    4.676174
   4 C      9.707359   10.482111    5.015691
   5 C      9.408263    9.044717    5.017705
   6 C     11.192100    5.216485    6.383331
   7 C      9.928394    5.218270    5.763230
   8 C     11.619236    6.453338    6.243408
   9 C      9.315580    6.559624    5.351644
  10 C     11.432767    7.669111    5.786797
  11 C     10.106018    7.829733    5.339359
  12 C      9.365253    4.083278    5.208403
  13 C      5.393710    8.676902    5.672118
  14 C      3.436394    7.486444    5.816158
  15 C      5.801181    6.130774    5.476793
  16 C      8.286573    3.430278    5.113139
  17 C      4.495819    5.586381    5.525258
  18 C      7.987414    6.286472    5.266362
  19 C      6.197409    7.570280    5.529399
  20 C      6.991472    3.883955    5.244595
  21 C      4.004369    8.652229    5.907808
  22 C      3.311710    6.153953    5.650240
  23 C      6.952895    5.313033    5.286105

Unit cell:
           periodic     x           y           z      points  spacing
  1. axis:    yes   16.000000    0.000000    0.000000    80     0.2000
  2. axis:    yes    0.000000   16.000000    0.000000    80     0.2000
  3. axis:    yes    0.000000    0.000000   10.000000    48     0.2083

Effective grid spacing dv^(1/3) = 0.2027

                     log10-error:    total        iterations:
           time      wfs    density  energy       fermi  poisson
iter:   1  10:24:00          +inf  -171.435155    3      5      
iter:   2  10:24:01         -1.98  -171.372504    3      2      
iter:   3  10:24:01         -2.24  -171.352910    3      2      
iter:   4  10:24:02         -2.43  -171.352151    2      2      
iter:   5  10:24:02         -2.54  -171.349719    3      2      
iter:   6  10:24:03         -2.67  -171.350886    3      2      
iter:   7  10:24:03         -2.77  -171.346504    2      1      
iter:   8  10:24:04         -2.97  -171.348020    2      2      
iter:   9  10:24:04         -3.13  -171.347539    2      1      
iter:  10  10:24:05         -3.31  -171.347329    2      1      
iter:  11  10:24:05         -3.49  -171.349132    2      1      
iter:  12  10:24:06         -3.62  -171.348636    2      1      
iter:  13  10:24:07         -3.76  -171.348453    2      1      
iter:  14  10:24:07         -3.89  -171.349027    2      1      
iter:  15  10:24:08         -4.00  -171.348819    2      1      

Converged after 15 iterations.

Dipole moment: (-0.248084, -0.407591, 0.027717) |e|*Ang

Energy contributions relative to reference atoms: (reference = -24663.074771)

Kinetic:       +104.687855
Potential:     -111.254149
External:        +0.000000
XC:            -167.563666
Entropy (-ST):   -0.282842
Local:           +2.922562
--------------------------
Free energy:   -171.490240
Extrapolated:  -171.348819

Fermi level: -4.39726

 Band  Eigenvalues  Occupancy
    0    -22.73739    2.00000
    1    -22.25608    2.00000
    2    -22.06201    2.00000
    3    -21.37332    2.00000
    4    -20.50634    2.00000
    5    -20.06541    2.00000
    6    -19.69100    2.00000
    7    -19.50607    2.00000
    8    -18.48203    2.00000
    9    -18.24461    2.00000
   10    -17.35156    2.00000
   11    -16.88302    2.00000
   12    -16.48517    2.00000
   13    -15.78270    2.00000
   14    -15.51061    2.00000
   15    -14.99549    2.00000
   16    -14.20121    2.00000
   17    -13.46167    2.00000
   18    -13.14724    2.00000
   19    -12.58345    2.00000
   20    -12.54358    2.00000
   21    -12.02760    2.00000
   22    -11.47311    2.00000
   23    -11.38230    2.00000
   24    -11.08921    2.00000
   25    -10.88010    2.00000
   26    -10.45254    2.00000
   27    -10.29958    2.00000
   28     -9.96774    2.00000
   29     -9.49919    2.00000
   30     -9.08869    2.00000
   31     -8.93830    2.00000
   32     -8.42095    2.00000
   33     -8.08117    2.00000
   34     -7.94622    2.00000
   35     -7.65018    2.00000
   36     -7.56367    2.00000
   37     -7.40760    2.00000
   38     -7.12393    2.00000
   39     -6.80600    2.00000
   40     -6.49343    2.00000
   41     -6.35396    2.00000
   42     -5.91496    2.00000
   43     -5.88053    2.00000
   44     -5.24727    1.99959
   45     -4.89505    1.98632
   46     -4.65730    1.86178
   47     -4.55750    1.66471
   48     -4.26610    0.42446
   49     -4.04529    0.05752
   50     -3.79544    0.00486
   51     -3.59656    0.00067
   52     -3.40299    0.00010
   53     -3.07072    0.00000
   54     -2.85352    0.00000
   55     -2.64596    0.00000
   56     -2.50584    0.00000
   57     -2.23336    0.00000
   58     -2.00508    0.00000
   59     -1.66722    0.00000
   60     -1.21777    0.00000
   61     -0.75505    0.00000
   62      0.44726    0.00000
   63      1.34982    0.00000
   64      1.74285    0.00000
   65      2.26726    0.00000
   66      2.54029    0.00000
   67      3.07027    0.00000
   68      3.81975    0.00000
   69      4.12347    0.00000
   70      4.19907    0.00000
   71      5.57431    0.00000
   72      5.86100    0.00000
   73      6.07847    0.00000
   74      6.31771    0.00000
   75      6.51219    0.00000
   76      7.24408    0.00000
   77      7.40986    0.00000
   78      7.58643    0.00000
   79      7.80960    0.00000
   80      8.15531    0.00000
   81      8.37152    0.00000
   82      8.55775    0.00000
   83      8.63989    0.00000
   84      8.77268    0.00000
   85      8.80929    0.00000
   86      9.04858    0.00000
   87      9.16538    0.00000
   88      9.25482    0.00000
   89      9.33715    0.00000
   90      9.45610    0.00000
   91      9.53835    0.00000
   92      9.67750    0.00000
   93      9.77284    0.00000
   94      9.88499    0.00000
   95     10.03673    0.00000
   96     10.09562    0.00000
   97     10.29055    0.00000


Forces in eV/Ang:
  0 C    -0.40393   -0.80855    1.06818
  1 C    -1.57322    0.55719   -0.64197
  2 C     0.03649   -0.40062    0.42385
  3 C    -0.02968   -0.06249    0.35689
  4 C     0.63925   -1.22962    0.06376
  5 C     0.20286   -0.24940    0.20189
  6 C     1.15412    0.08739    0.26453
  7 C     1.26780   -0.23510   -0.80431
  8 C     0.23470    0.56280    0.31901
  9 C    -0.76641   -0.87236    0.10890
 10 C     0.26612    0.37431   -0.04387
 11 C    -0.18488   -0.66472    0.19094
 12 C     0.21452   -0.56924    0.88033
 13 C     0.19793    0.78677   -1.47786
 14 C    -0.35950    0.18846    0.34779
 15 C    -0.12588    0.11987    0.08850
 16 C    -0.37543    0.65049   -0.54529
 17 C     0.06440    0.52001   -0.02678
 18 C     0.15645    1.51991   -0.18874
 19 C     0.38553   -0.60597   -0.55546
 20 C    -0.66553   -0.03943    0.00377
 21 C     0.14040   -0.26588   -0.04844
 22 C    -0.34401    0.39644    0.00834
 23 C    -0.16847    0.34077   -0.05208

System changes: positions 

Initializing position-dependent things.

Density initialized from wave functions
           .--------------------------------------.  
          /|                                      |  
         / |                                      |  
        /  |                                      |  
       /   |                                      |  
      /    |                                      |  
     /     |                                      |  
    /      |                                      |  
   /       |                                      |  
  /        |                 C C                  |  
 *         |  C C   C  C  C   C  CC               |  
 |         | C       C    C C  CC                 |  
 |         .---C---C-C--C----C--------------------.  
 |        /         C     C                      /   
 |       /             C                        /    
 |      /                                      /     
 |     /                                      /      
 |    /                                      /       
 |   /                                      /        
 |  /                                      /         
 | /                                      /          
 |/                                      /           
 *--------------------------------------*            

Positions:
   0 C      6.099825   10.641014    4.680354
   1 C      8.728069   11.266039    4.777567
   2 C      7.446962   10.528193    4.569239
   3 C      8.065397    9.146993    4.685375
   4 C      9.698779   10.474819    5.010677
   5 C      9.409414    9.037555    5.022492
   6 C     11.215945    5.218388    6.392308
   7 C      9.961814    5.208774    5.743406
   8 C     11.622695    6.464326    6.250976
   9 C      9.315717    6.549949    5.355547
  10 C     11.436956    7.675934    5.784216
  11 C     10.106047    7.822124    5.341627
  12 C      9.367960    4.072072    5.227637
  13 C      5.397767    8.683211    5.641764
  14 C      3.428133    7.491189    5.823493
  15 C      5.798349    6.133180    5.479853
  16 C      8.276033    3.441299    5.101239
  17 C      4.497342    5.602988    5.525148
  18 C      7.964600    6.310865    5.261543
  19 C      6.198228    7.566912    5.520298
  20 C      6.980683    3.884609    5.244494
  21 C      4.010331    8.647134    5.907189
  22 C      3.313772    6.156609    5.649029
  23 C      6.944908    5.314705    5.284325

Unit cell:
           periodic     x           y           z      points  spacing
  1. axis:    yes   16.000000    0.000000    0.000000    80     0.2000
  2. axis:    yes    0.000000   16.000000    0.000000    80     0.2000
  3. axis:    yes    0.000000    0.000000   10.000000    48     0.2083

Effective grid spacing dv^(1/3) = 0.2027

                     log10-error:    total        iterations:
           time      wfs    density  energy       fermi  poisson
iter:   1  10:24:09          +inf  -171.757913    3      5      
iter:   2  10:24:10         -1.97  -171.693979    3      2      
iter:   3  10:24:11         -2.24  -171.674080    3      2      
iter:   4  10:24:11         -2.42  -171.672737    3      2      
iter:   5  10:24:12         -2.53  -171.669945    3      2      
iter:   6  10:24:12         -2.65  -171.671523    3      2      
iter:   7  10:24:13         -2.76  -171.667765    2      1      
iter:   8  10:24:13         -2.96  -171.668424    2      2      
iter:   9  10:24:14         -3.12  -171.669009    2      1      
iter:  10  10:24:14         -3.28  -171.668294    2      1      
iter:  11  10:24:15         -3.47  -171.669044    2      1      
iter:  12  10:24:15         -3.57  -171.669194    2      1      
iter:  13  10:24:16         -3.71  -171.668821    2      1      
iter:  14  10:24:16         -3.86  -171.668960    2      1      
iter:  15  10:24:17         -3.96  -171.669082    2      1      
iter:  16  10:24:17         -4.14  -171.668917    2      1      

Converged after 16 iterations.

Dipole moment: (-0.306905, -0.384730, 0.016258) |e|*Ang

Energy contributions relative to reference atoms: (reference = -24663.074771)

Kinetic:       +103.256361
Potential:     -110.214711
External:        +0.000000
XC:            -167.491304
Entropy (-ST):   -0.275171
Local:           +2.918323
--------------------------
Free energy:   -171.806503
Extrapolated:  -171.668917

Fermi level: -4.41018

 Band  Eigenvalues  Occupancy
    0    -22.68356    2.00000
    1    -22.30037    2.00000
    2    -22.07403    2.00000
    3    -21.36436    2.00000
    4    -20.49463    2.00000
    5    -20.08797    2.00000
    6    -19.66351    2.00000
    7    -19.40204    2.00000
    8    -18.49062    2.00000
    9    -18.25965    2.00000
   10    -17.35856    2.00000
   11    -16.89850    2.00000
   12    -16.52391    2.00000
   13    -15.76689    2.00000
   14    -15.50449    2.00000
   15    -15.00217    2.00000
   16    -14.18609    2.00000
   17    -13.50211    2.00000
   18    -13.16000    2.00000
   19    -12.60096    2.00000
   20    -12.53191    2.00000
   21    -12.03604    2.00000
   22    -11.41787    2.00000
   23    -11.34661    2.00000
   24    -11.09175    2.00000
   25    -10.82739    2.00000
   26    -10.44327    2.00000
   27    -10.27919    2.00000
   28     -9.97129    2.00000
   29     -9.51177    2.00000
   30     -9.11769    2.00000
   31     -8.94239    2.00000
   32     -8.40935    2.00000
   33     -8.16022    2.00000
   34     -8.00119    2.00000
   35     -7.68573    2.00000
   36     -7.54742    2.00000
   37     -7.38104    2.00000
   38     -7.08106    2.00000
   39     -6.79988    2.00000
   40     -6.55125    2.00000
   41     -6.37342    2.00000
   42     -5.93145    2.00000
   43     -5.88896    2.00000
   44     -5.23673    1.99949
   45     -4.86680    1.97942
   46     -4.66651    1.85692
   47     -4.58297    1.69827
   48     -4.27712    0.41812
   49     -4.02865    0.04311
   50     -3.79079    0.00408
   51     -3.58130    0.00050
   52     -3.42395    0.00010
   53     -3.05015    0.00000
   54     -2.88321    0.00000
   55     -2.62702    0.00000
   56     -2.48247    0.00000
   57     -2.19364    0.00000
   58     -1.97814    0.00000
   59     -1.63933    0.00000
   60     -1.14269    0.00000
   61     -0.71713    0.00000
   62      0.45291    0.00000
   63      1.38769    0.00000
   64      1.77969    0.00000
   65      2.26473    0.00000
   66      2.51329    0.00000
   67      3.09968    0.00000
   68      3.81613    0.00000
   69      4.13229    0.00000
   70      4.22991    0.00000
   71      5.59020    0.00000
   72      5.86065    0.00000
   73      6.10889    0.00000
   74      6.31589    0.00000
   75      6.48235    0.00000
   76      7.20974    0.00000
   77      7.42262    0.00000
   78      7.59873    0.00000
   79      7.81639    0.00000
   80      8.11661    0.00000
   81      8.40207    0.00000
   82      8.57518    0.00000
   83      8.66473    0.00000
   84      8.75879    0.00000
   85      8.82066    0.00000
   86      9.04908    0.00000
   87      9.17303    0.00000
   88      9.23976    0.00000
   89      9.35964    0.00000
   90      9.43763    0.00000
   91      9.54239    0.00000
   92      9.67378    0.00000
   93      9.79344    0.00000
   94      9.90357    0.00000
   95     10.03200    0.00000
   96     10.09556    0.00000
   97     10.28008    0.00000


Forces in eV/Ang:
  0 C    -0.48565   -0.94710    1.15093
  1 C    -1.64503    0.54182   -0.63677
  2 C     0.00060   -0.47278    0.41523
  3 C    -0.04554    0.08022    0.26764
  4 C     0.73659   -1.24818    0.07475
  5 C     0.23070   -0.26490    0.19331
  6 C     1.01360    0.13676    0.04005
  7 C     0.88216   -0.05617   -0.53836
  8 C     0.24471    0.40192    0.29791
  9 C    -0.99824   -0.85558   -0.01309
 10 C     0.24486    0.38527    0.02458
 11 C    -0.23713   -0.73464    0.21228
 12 C     0.05872   -0.66739    0.70906
 13 C     0.29422    1.01582   -1.45892
 14 C    -0.28308    0.18177    0.33005
 15 C    -0.11668    0.07396    0.02423
 16 C    -0.09818    0.80617   -0.42661
 17 C    -0.11383    0.37462   -0.00416
 18 C     0.76021    1.39484   -0.08908
 19 C     0.48633   -0.62245   -0.51047
 20 C    -0.59639   -0.00588   -0.02099
 21 C     0.20243   -0.23723   -0.11273
 22 C    -0.54565    0.41737    0.04661
 23 C    -0.02430    0.41307   -0.02990

System changes: positions 

Initializing position-dependent things.

Density initialized from wave functions
           .--------------------------------------.  
[...]
    9    -18.24048    2.00000
   10    -17.60708    2.00000
   11    -17.26238    2.00000
   12    -16.94942    2.00000
   13    -15.99465    2.00000
   14    -15.64338    2.00000
   15    -15.19363    2.00000
   16    -14.49701    2.00000
   17    -13.69446    2.00000
   18    -12.88762    2.00000
   19    -12.74958    2.00000
   20    -12.08688    2.00000
   21    -11.73734    2.00000
   22    -11.43163    2.00000
   23    -11.18724    2.00000
   24    -11.03137    2.00000
   25    -10.92527    2.00000
   26    -10.62436    2.00000
   27    -10.39334    2.00000
   28    -10.06948    2.00000
   29     -9.89947    2.00000
   30     -9.81394    2.00000
   31     -9.63535    2.00000
   32     -9.40856    2.00000
   33     -9.08672    2.00000
   34     -8.47091    2.00000
   35     -8.17651    2.00000
   36     -7.53984    2.00000
   37     -7.20319    2.00000
   38     -6.97313    2.00000
   39     -6.91485    2.00000
   40     -6.89516    2.00000
   41     -6.38275    2.00000
   42     -6.18208    2.00000
   43     -5.97229    2.00000
   44     -5.59586    1.99998
   45     -4.81041    1.93922
   46     -4.73655    1.87687
   47     -4.58944    1.55563
   48     -4.37825    0.59513
   49     -4.04800    0.03069
   50     -3.79437    0.00246
   51     -3.23956    0.00001
   52     -3.03461    0.00000
   53     -2.38192    0.00000
   54     -2.19096    0.00000
   55     -1.90843    0.00000
   56     -1.52359    0.00000
   57     -1.23559    0.00000
   58     -0.83424    0.00000
   59     -0.25800    0.00000
   60      0.34047    0.00000
   61      0.66812    0.00000
   62      0.78780    0.00000
   63      1.54720    0.00000
   64      2.16566    0.00000
   65      2.44593    0.00000
   66      3.03898    0.00000
   67      3.43688    0.00000
   68      3.72896    0.00000
   69      3.91988    0.00000
   70      4.03789    0.00000
   71      4.82044    0.00000
   72      4.90539    0.00000
   73      5.68260    0.00000
   74      6.24169    0.00000
   75      6.44639    0.00000
   76      6.74104    0.00000
   77      7.03227    0.00000
   78      7.28508    0.00000
   79      7.39444    0.00000
   80      7.91520    0.00000
   81      8.16146    0.00000
   82      8.28708    0.00000
   83      8.45143    0.00000
   84      8.57734    0.00000
   85      8.69699    0.00000
   86      8.89581    0.00000
   87      9.04577    0.00000
   88      9.06654    0.00000
   89      9.28397    0.00000
   90      9.30841    0.00000
   91      9.44403    0.00000
   92      9.53253    0.00000
   93      9.66101    0.00000
   94      9.72917    0.00000
   95      9.86091    0.00000
   96     10.00213    0.00000
   97     10.05342    0.00000


Forces in eV/Ang:
  0 C    -0.02169    0.00280    0.00389
  1 C    -0.15134   -0.04613    0.02602
  2 C     0.01421   -0.03997    0.02053
  3 C    -0.01209    0.04121    0.02000
  4 C     0.04025    0.00785   -0.00777
  5 C    -0.02630   -0.02088   -0.05101
  6 C     0.02819   -0.03943    0.04763
  7 C    -0.03150    0.02410    0.00278
  8 C    -0.01900    0.00540    0.02608
  9 C    -0.12173    0.05471   -0.00423
 10 C     0.02484   -0.02320   -0.00017
 11 C    -0.02281   -0.01436   -0.02008
 12 C    -0.04680    0.00773   -0.04074
 13 C     0.04843    0.00318    0.02359
 14 C    -0.00987   -0.01145   -0.02429
 15 C     0.02433    0.07340   -0.09129
 16 C     0.01669    0.02366    0.01283
 17 C     0.01003   -0.04783    0.03370
 18 C     0.08640    0.04272    0.00814
 19 C     0.02566   -0.01634   -0.04064
 20 C    -0.06781   -0.00221    0.03952
 21 C     0.06995    0.04100    0.00371
 22 C     0.03708   -0.06321   -0.02736
 23 C     0.02732    0.03209    0.05592

System changes: positions 

Initializing position-dependent things.

Density initialized from wave functions
           .--------------------------------------.  
          /|                                      |  
         / |                                      |  
        /  |                                      |  
       /   |                                      |  
      /    |                                      |  
     /     |                                      |  
    /      |                                      |  
   /       |                                      |  
  /        |           C     C                    |  
 *         |  C  C  C    C     C  C               |  
 |         |C  C     C  C  C CC C                 |  
 |         .-------C-C-------C--------------------.  
 |        /            C   C                     /   
 |       /          C                           /    
 |      /                                      /     
 |     /                                      /      
 |    /                                      /       
 |   /                                      /        
 |  /                                      /         
 | /                                      /          
 |/                                      /           
 *--------------------------------------*            

Positions:
   0 C      6.283990    9.975418    5.433029
   1 C      8.593224   11.082163    4.836577
   2 C      7.360800   10.325260    4.761388
   3 C      8.322609    9.345277    4.106907
   4 C      9.714701   10.372590    4.880664
   5 C      9.383303    8.921182    4.895546
   6 C     11.396783    5.388650    6.210478
   7 C     10.045447    5.215470    5.746457
   8 C     11.696381    6.656160    6.171945
   9 C      9.190344    6.487882    5.524190
  10 C     11.323158    7.895908    5.921718
  11 C      9.959243    7.771618    5.466700
  12 C      9.488739    3.950744    5.456795
  13 C      5.763960    8.669340    5.504825
  14 C      3.511898    7.503240    5.687061
  15 C      5.655751    6.162575    5.440315
  16 C      8.258171    3.725661    5.183293
  17 C      4.272085    6.138310    5.555651
  18 C      7.759230    6.434473    5.419614
  19 C      6.471458    7.344729    5.475990
  20 C      6.929523    3.895790    5.051703
  21 C      4.368848    8.458164    5.631858
  22 C      2.912706    6.189953    5.721884
  23 C      6.815278    5.275759    5.296355

Unit cell:
           periodic     x           y           z      points  spacing
  1. axis:    yes   16.000000    0.000000    0.000000    80     0.2000
  2. axis:    yes    0.000000   16.000000    0.000000    80     0.2000
  3. axis:    yes    0.000000    0.000000   10.000000    48     0.2083

Effective grid spacing dv^(1/3) = 0.2027

                     log10-error:    total        iterations:
           time      wfs    density  energy       fermi  poisson
iter:   1  10:31:28          +inf  -176.902240    2      5      
iter:   2  10:31:29         -2.38  -176.893979    2      1      
iter:   3  10:31:29         -2.50  -176.884551    2      2      
iter:   4  10:31:30         -2.65  -176.886854    3      2      
iter:   5  10:31:30         -2.76  -176.881782    3      2      
iter:   6  10:31:31         -2.87  -176.882444    2      2      
iter:   7  10:31:31         -3.24  -176.884745    2      1      
iter:   8  10:31:32         -3.07  -176.883865    2      1      
iter:   9  10:31:32         -3.52  -176.882636    2      1      
iter:  10  10:31:33         -3.63  -176.882927    2      1      
iter:  11  10:31:34         -3.72  -176.882485    2      1      
iter:  12  10:31:34         -3.62  -176.882531    2      1      
iter:  13  10:31:35         -3.93  -176.882992    2      1      
iter:  14  10:31:35         -3.98  -176.882788    2      1      
iter:  15  10:31:36         -4.20  -176.882934    2      1      

Converged after 15 iterations.

Dipole moment: (-0.413272, 0.383961, 0.004656) |e|*Ang

Energy contributions relative to reference atoms: (reference = -24663.074771)

Kinetic:       +111.505563
Potential:     -116.975132
External:        +0.000000
XC:            -174.193833
Entropy (-ST):   -0.311991
Local:           +2.936463
--------------------------
Free energy:   -177.038930
Extrapolated:  -176.882934

Fermi level: -4.46579

 Band  Eigenvalues  Occupancy
    0    -23.85276    2.00000
    1    -23.66602    2.00000
    2    -22.62417    2.00000
    3    -21.76156    2.00000
    4    -20.94418    2.00000
    5    -20.44059    2.00000
    6    -19.58818    2.00000
    7    -19.15766    2.00000
    8    -19.08516    2.00000
    9    -18.24511    2.00000
   10    -17.63003    2.00000
   11    -17.26925    2.00000
   12    -16.94373    2.00000
   13    -16.00415    2.00000
   14    -15.66919    2.00000
   15    -15.19783    2.00000
   16    -14.51852    2.00000
   17    -13.70129    2.00000
   18    -12.87952    2.00000
   19    -12.74099    2.00000
   20    -12.10902    2.00000
   21    -11.72545    2.00000
   22    -11.44874    2.00000
   23    -11.18678    2.00000
   24    -11.04751    2.00000
   25    -10.94639    2.00000
   26    -10.61336    2.00000
   27    -10.40314    2.00000
   28    -10.08221    2.00000
   29     -9.90672    2.00000
   30     -9.80464    2.00000
   31     -9.66690    2.00000
   32     -9.41157    2.00000
   33     -9.09486    2.00000
   34     -8.48264    2.00000
   35     -8.19077    2.00000
   36     -7.54523    2.00000
   37     -7.22106    2.00000
   38     -6.96815    2.00000
   39     -6.91287    2.00000
   40     -6.89261    2.00000
   41     -6.39432    2.00000
   42     -6.19409    2.00000
   43     -5.97259    2.00000
   44     -5.58719    1.99997
   45     -4.82568    1.94675
   46     -4.74060    1.87962
   47     -4.59538    1.57031
   48     -4.37348    0.56868
   49     -4.05420    0.03210
   50     -3.80036    0.00257
   51     -3.24772    0.00001
   52     -3.02081    0.00000
   53     -2.40332    0.00000
   54     -2.19856    0.00000
   55     -1.89693    0.00000
   56     -1.51957    0.00000
   57     -1.21691    0.00000
   58     -0.84621    0.00000
   59     -0.23379    0.00000
   60      0.36379    0.00000
   61      0.65787    0.00000
   62      0.80392    0.00000
   63      1.54218    0.00000
   64      2.09694    0.00000
   65      2.45236    0.00000
   66      3.02500    0.00000
   67      3.49695    0.00000
   68      3.76788    0.00000
   69      3.93702    0.00000
   70      4.07126    0.00000
   71      4.80095    0.00000
   72      4.89154    0.00000
   73      5.71920    0.00000
   74      6.27138    0.00000
   75      6.44827    0.00000
   76      6.78271    0.00000
   77      7.04083    0.00000
   78      7.26618    0.00000
   79      7.39439    0.00000
   80      7.90191    0.00000
   81      8.19118    0.00000
   82      8.30278    0.00000
   83      8.48345    0.00000
   84      8.59397    0.00000
   85      8.72262    0.00000
   86      8.89295    0.00000
   87      9.03689    0.00000
   88      9.08152    0.00000
   89      9.29136    0.00000
   90      9.31512    0.00000
   91      9.43828    0.00000
   92      9.55084    0.00000
   93      9.66681    0.00000
   94      9.73424    0.00000
   95      9.88509    0.00000
   96      9.99165    0.00000
   97     10.07373    0.00000


Forces in eV/Ang:
  0 C    -0.03999    0.03028    0.05183
  1 C     0.15992    0.00002    0.03145
  2 C    -0.07448   -0.01446   -0.01587
  3 C    -0.01671   -0.00559   -0.01616
  4 C    -0.03936    0.04779   -0.03086
  5 C     0.05347    0.00698   -0.01997
  6 C    -0.03072   -0.03831    0.02486
  7 C     0.00949    0.02442   -0.00769
  8 C    -0.00709   -0.01272    0.05838
  9 C     0.05503   -0.03552   -0.02662
 10 C    -0.02129    0.02184   -0.02569
 11 C     0.03964    0.08393   -0.04533
 12 C     0.02062    0.00411   -0.02053
 13 C     0.00004   -0.03499    0.03049
 14 C     0.01050    0.01034   -0.00460
 15 C     0.03385   -0.02556    0.02083
 16 C     0.00636   -0.03006    0.02440
 17 C     0.07230   -0.01703   -0.02813
 18 C    -0.04740    0.04495    0.02607
 19 C     0.03629    0.06070   -0.01945
 20 C    -0.01502    0.00328    0.04535
 21 C    -0.08491   -0.08060    0.03284
 22 C    -0.05416    0.05252   -0.02824
 23 C    -0.03577   -0.04775   -0.02620

System changes: positions 

Initializing position-dependent things.

Density initialized from wave functions
           .--------------------------------------.  
          /|                                      |  
         / |                                      |  
        /  |                                      |  
       /   |                                      |  
      /    |                                      |  
     /     |                                      |  
    /      |                                      |  
   /       |                                      |  
  /        |           C     C                    |  
 *         |  C  C  C    C     C  C               |  
 |         |C  C     C  C  C CC C                 |  
 |         .-------C-C-------C--------------------.  
 |        /         C  C   C                     /   
 |       /                                      /    
 |      /                                      /     
 |     /                                      /      
 |    /                                      /       
 |   /                                      /        
 |  /                                      /         
 | /                                      /          
 |/                                      /           
 *--------------------------------------*            

Positions:
   0 C      6.296847    9.966146    5.442402
   1 C      8.605961   11.086668    4.847466
   2 C      7.369532   10.326492    4.770562
   3 C      8.328859    9.359653    4.091094
   4 C      9.724314   10.373356    4.877462
   5 C      9.387401    8.923376    4.877588
   6 C     11.393372    5.398250    6.215619
   7 C     10.047573    5.217057    5.742527
   8 C     11.689362    6.666639    6.184265
   9 C      9.189075    6.485494    5.513644
  10 C     11.314656    7.903123    5.919891
  11 C      9.955162    7.773770    5.454042
  12 C      9.497075    3.948620    5.454650
  13 C      5.765507    8.664037    5.511047
  14 C      3.509182    7.505829    5.687054
  15 C      5.650871    6.153675    5.449355
  16 C      8.265747    3.721189    5.185248
  17 C      4.265539    6.137801    5.553797
  18 C      7.754616    6.428361    5.418489
  19 C      6.467720    7.336906    5.481219
  20 C      6.935869    3.886927    5.062265
  21 C      4.369030    8.457474    5.640457
  22 C      2.903338    6.197276    5.705818
  23 C      6.811012    5.266112    5.300428

Unit cell:
           periodic     x           y           z      points  spacing
  1. axis:    yes   16.000000    0.000000    0.000000    80     0.2000
  2. axis:    yes    0.000000   16.000000    0.000000    80     0.2000
  3. axis:    yes    0.000000    0.000000   10.000000    48     0.2083

Effective grid spacing dv^(1/3) = 0.2027

                     log10-error:    total        iterations:
           time      wfs    density  energy       fermi  poisson
iter:   1  10:31:37          +inf  -176.881447    3      5      
iter:   2  10:31:38         -2.57  -176.882517    3      1      
iter:   3  10:31:38         -2.76  -176.884845    2      1      
iter:   4  10:31:39         -2.88  -176.884474    3      2      
iter:   5  10:31:39         -3.07  -176.886306    2      1      
iter:   6  10:31:40         -3.15  -176.886085    2      1      
iter:   7  10:31:41         -3.43  -176.885174    2      1      
iter:   8  10:31:41         -3.55  -176.885318    2      1      
iter:   9  10:31:42         -3.74  -176.885188    2      1      
iter:  10  10:31:42         -3.83  -176.884968    2      1      
iter:  11  10:31:43         -3.97  -176.885272    2      1      
iter:  12  10:31:43         -4.04  -176.885230    2      1      

Converged after 12 iterations.

Dipole moment: (-0.413116, 0.379732, 0.008772) |e|*Ang

Energy contributions relative to reference atoms: (reference = -24663.074771)

Kinetic:       +110.651290
Potential:     -116.302147
External:        +0.000000
XC:            -174.006232
Entropy (-ST):   -0.315377
Local:           +2.929547
--------------------------
Free energy:   -177.042919
Extrapolated:  -176.885230

Fermi level: -4.46495

 Band  Eigenvalues  Occupancy
    0    -23.84204    2.00000
    1    -23.65376    2.00000
    2    -22.60767    2.00000
    3    -21.75405    2.00000
    4    -20.93217    2.00000
    5    -20.43244    2.00000
    6    -19.57766    2.00000
    7    -19.14146    2.00000
    8    -19.07839    2.00000
    9    -18.24488    2.00000
   10    -17.61945    2.00000
   11    -17.26504    2.00000
   12    -16.94792    2.00000
   13    -15.99967    2.00000
   14    -15.65768    2.00000
   15    -15.19623    2.00000
   16    -14.50917    2.00000
   17    -13.69776    2.00000
   18    -12.88201    2.00000
   19    -12.74446    2.00000
   20    -12.09865    2.00000
   21    -11.73151    2.00000
   22    -11.44036    2.00000
   23    -11.18685    2.00000
   24    -11.04039    2.00000
   25    -10.93648    2.00000
   26    -10.61822    2.00000
   27    -10.40073    2.00000
   28    -10.07666    2.00000
   29     -9.90390    2.00000
   30     -9.80689    2.00000
   31     -9.65203    2.00000
   32     -9.41107    2.00000
   33     -9.09149    2.00000
   34     -8.47789    2.00000
   35     -8.18376    2.00000
   36     -7.54167    2.00000
   37     -7.21348    2.00000
   38     -6.96842    2.00000
   39     -6.91381    2.00000
   40     -6.89265    2.00000
   41     -6.38922    2.00000
   42     -6.18993    2.00000
   43     -5.97379    2.00000
   44     -5.59026    1.99997
   45     -4.81832    1.94326
   46     -4.73952    1.87934
   47     -4.59216    1.56218
   48     -4.37558    0.58068
   49     -4.05313    0.03203
   50     -3.79756    0.00252
   51     -3.24109    0.00001
   52     -3.03067    0.00000
   53     -2.39012    0.00000
   54     -2.19507    0.00000
   55     -1.90947    0.00000
   56     -1.51796    0.00000
   57     -1.22253    0.00000
   58     -0.83991    0.00000
   59     -0.24514    0.00000
   60      0.35464    0.00000
   61      0.65957    0.00000
   62      0.79379    0.00000
   63      1.54436    0.00000
   64      2.12530    0.00000
   65      2.44782    0.00000
   66      3.03624    0.00000
   67      3.46575    0.00000
   68      3.74516    0.00000
   69      3.92781    0.00000
   70      4.05361    0.00000
   71      4.81014    0.00000
   72      4.90121    0.00000
   73      5.70124    0.00000
   74      6.25921    0.00000
   75      6.44774    0.00000
   76      6.76193    0.00000
   77      7.03574    0.00000
   78      7.27148    0.00000
   79      7.38924    0.00000
   80      7.90951    0.00000
   81      8.17600    0.00000
   82      8.29221    0.00000
   83      8.46700    0.00000
   84      8.58227    0.00000
   85      8.70927    0.00000
   86      8.89610    0.00000
   87      9.04224    0.00000
   88      9.07307    0.00000
   89      9.28802    0.00000
   90      9.31264    0.00000
   91      9.44080    0.00000
   92      9.54226    0.00000
   93      9.66209    0.00000
   94      9.73218    0.00000
   95      9.87485    0.00000
   96      9.99594    0.00000
   97     10.06507    0.00000


Forces in eV/Ang:
  0 C    -0.01327    0.01526    0.04122
  1 C     0.01150   -0.02956    0.03451
  2 C    -0.02470   -0.03432    0.00268
  3 C    -0.01789    0.00963    0.00083
  4 C    -0.01107    0.02245   -0.01881
  5 C     0.00621   -0.00326   -0.04835
  6 C     0.00411   -0.03754    0.03250
  7 C    -0.00938    0.02462   -0.00226
  8 C    -0.01356   -0.01418    0.02747
  9 C    -0.03037    0.01253   -0.01498
 10 C     0.01883    0.00532   -0.00465
 11 C    -0.01455    0.01806   -0.03593
 12 C    -0.00112    0.00569   -0.02782
 13 C     0.02288   -0.01715    0.02759
 14 C     0.00750   -0.00795   -0.01525
 15 C     0.02668   -0.00561   -0.00302
 16 C    -0.01229   -0.01915    0.02618
 17 C     0.02649   -0.03500    0.01455
 18 C     0.02873    0.05987    0.01918
 19 C     0.03408    0.02264   -0.03658
 20 C    -0.02403   -0.00714    0.03970
 21 C     0.00023   -0.02790    0.01438
 22 C    -0.01258    0.00716   -0.02289
 23 C     0.00019    0.00413    0.01471

