
  ___ ___ ___ _ _ _  
 |   |   |_  | | | | 
 | | | | | . | | | | 
 |__ |  _|___|_____|  1.3.0b1
 |___|_|             

User:   esb@s65n62.grendel.cscaa.dk
Date:   Wed Nov  8 14:13:00 2017
Arch:   x86_64
Pid:    41145
Python: 2.7.13
gpaw:   /home/esb/DFT/gpaw_git/gpaw
_gpaw:  /home/esb/DFT/gpaw_git/build/bin.linux-x86_64-2.7/gpaw-python
ase:    /home/esb/DFT/ase_git/ase (version 3.15.0b1)
numpy:  /comm/swstack/core/python/2.7.13/lib/python2.7/site-packages/numpy (version 1.13.3)
scipy:  /comm/swstack/core/python/2.7.13/lib/python2.7/site-packages/scipy (version 0.19.1)
units:  Angstrom and eV
cores:  16
Extra parameters: {'blacs': True}

Input parameters:
  basis: dzp
  gpts: [80 80 48]
  kpts: [1 1 1]
  maxiter: 99
  mixer: {backend: pulay,
          beta: 0.05,
          method: separate,
          nmaxold: 5,
          weight: 75}
  mode: lcao
  nbands: -50
  occupations: {name: fermi-dirac,
                width: 0.1}
  poissonsolver: {eps: 1e-07,
                  name: fd,
                  nn: 3,
                  relax: GS}
  xc: PBE

System changes: positions, numbers, cell, pbc, initial_charges, initial_magmoms 

Initialize ...

C-setup:
  name: Carbon
  id: 4aa54d4b901d75f77cc0ea3eec22967b
  Z: 6
  valence: 4
  core: 2
  charge: 0.0
  file: /home/esb/DFT/gpaw-setups-0.8.7929/C.PBE.gz
  cutoffs: 0.64(comp), 1.14(filt), 1.14(core), lmax=2
  valence states:
                energy  radius
    2s(2.00)   -13.751   0.635
    2p(2.00)    -5.284   0.635
    *s          13.461   0.635
    *p          21.927   0.635
    *d           0.000   0.635

  LCAO basis set for C:
    Name: dzp
    File: /home/esb/DFT/gpaw-setups-0.8.7929/C.dzp.basis.gz
    Number of radial functions: 5
    Number of spherical harmonics: 13
      l=0, rc=5.5469 Bohr: 2s-sz confined orbital
      l=1, rc=6.6719 Bohr: 2p-sz confined orbital
      l=0, rc=3.0312 Bohr: 2s-dz split-valence wave
      l=1, rc=3.7500 Bohr: 2p-dz split-valence wave
      l=2, rc=6.6719 Bohr: d-type Gaussian polarization

Reference energy: -24663.074771

Spin-paired calculation

Occupation numbers:
  Fermi-Dirac: width=0.1000 eV

Convergence criteria:
  Maximum total energy change: 0.0005 eV / electron
  Maximum integral of absolute density change: 0.0001 electrons
  Maximum integral of absolute eigenstate change: 4e-08 eV^2
  Maximum number of iterations: 99

Symmetries present (total): 1

  ( 1  0  0)
  ( 0  1  0)
  ( 0  0  1)

1 k-point (Gamma)
1 k-point in the irreducible part of the Brillouin zone
       k-points in crystal coordinates                weights
   0:     0.00000000    0.00000000    0.00000000          1/1

Wave functions: LCAO
  Diagonalizer: Serial LAPACK
  Atomic Correction: dense with blas
  Datatype: float
  Eigensolver: None 

LCAO using direct dense diagonalizer 

Densities:
  Coarse grid: 80*80*48 grid
  Fine grid: 160*160*96 grid
  Total Charge: 0.000000 

Density mixing:
  Method: separate
  Backend: pulay
  Linear mixing parameter: 0.05
  Mixing with 5 old densities
  Damping of long wave oscillations: 75 

Hamiltonian:
  XC and Coulomb potentials evaluated on a 160*160*96 grid
  Using the PBE Exchange-Correlation functional
  Interpolation: tri-quintic (5. degree polynomial)
  Poisson solver: Gauss-Seidel solver with 6 multi-grid levels
    Coarsest grid: 5 x 5 x 3 points
    Stencil: 6*3+1=19 point O(h^6) finite-difference Laplacian
    Max iterations: 1000
    Tolerance: 1.000000e-07 

Memory estimate:
  Process memory now: 77.59 MiB
  Calculator: 15.59 MiB
    Density: 6.13 MiB
      Arrays: 3.81 MiB
      Localized functions: 0.86 MiB
      Mixer: 1.46 MiB
    Hamiltonian: 5.40 MiB
      Arrays: 2.49 MiB
      XC: 0.00 MiB
      Poisson: 2.85 MiB
      vbar: 0.07 MiB
    Wavefunctions: 4.05 MiB
      C [qnM]: 0.23 MiB
      S, T [2 x qmm]: 1.49 MiB
      P [aqMi]: 0.01 MiB
      TCI: 0.00 MiB
      BasisFunctions: 2.33 MiB
      Eigensolver: 0.00 MiB

Total number of cores used: 16
Domain decomposition: 2 x 4 x 2

Number of atoms: 24
Number of atomic orbitals: 312
Number of bands in calculation: 98
Bands to converge: occupied states only
Number of valence electrons: 96

... initialized

Initializing position-dependent things.

Density initialized from atomic densities
           .--------------------------------------.  
          /|                                      |  
         / |                                      |  
        /  |                                      |  
       /   |                                      |  
      /    |                                      |  
     /     |                                      |  
    /      |                                      |  
   /       |                                      |  
  /        |       C C    C      C                |  
 *         |     C            C  C                |  
 |         |  C   C   C      CC  C                |  
 |         .-C------C----C--C-C-------------------.  
 |        /      C     C  C                      /   
 |       /        C C                           /    
 |      /                                      /     
 |     /                                      /      
 |    /                                      /       
 |   /                                      /        
 |  /                                      /         
 | /                                      /          
 |/                                      /           
 *--------------------------------------*            

Positions:
   0 C      9.657650    6.415947    5.689949
   1 C      7.424488    5.682519    4.767471
   2 C      6.155449    3.831095    4.314296
   3 C      7.668545   10.447830    5.072708
   4 C      4.868026    8.217860    5.280322
   5 C      6.394628    8.044762    4.893802
   6 C      3.609098    6.138181    5.746693
   7 C      5.481760   11.183839    5.338158
   8 C      9.919437    8.178612    5.203323
   9 C      8.249605    6.932652    5.008612
  10 C      4.114735    9.527405    4.733853
  11 C      9.339014    9.935872    4.942606
  12 C      6.982268    3.303469    5.149524
  13 C      3.286333    6.760905    4.544480
  14 C      5.847557    7.027243    4.728944
  15 C     11.050075    8.247743    5.644232
  16 C      5.422087    4.269338    5.076480
  17 C     11.489542    6.310970    5.469699
  18 C      9.230391    4.078492    5.137606
  19 C     10.431757   10.423061    5.521571
  20 C      9.854310    5.002825    5.384385
  21 C     10.245144    7.039024    4.869706
  22 C      6.936963    6.324478    5.540716
  23 C      4.628761   10.015158    5.553085

Unit cell:
           periodic     x           y           z      points  spacing
  1. axis:    yes   16.000000    0.000000    0.000000    80     0.2000
  2. axis:    yes    0.000000   16.000000    0.000000    80     0.2000
  3. axis:    yes    0.000000    0.000000   10.000000    48     0.2083

Effective grid spacing dv^(1/3) = 0.2027

                     log10-error:    total        iterations:
           time      wfs    density  energy       fermi  poisson
iter:   1  14:13:02          +inf  -132.507335    3      6      
iter:   2  14:13:03         -0.79  -128.504335    3      3      
iter:   3  14:13:04         -0.85  -126.080924    3      3      
iter:   4  14:13:04         -0.89  -124.631674    2      2      
iter:   5  14:13:05         -0.97  -123.116857    3      4      
iter:   6  14:13:05         -1.07  -122.265099    3      3      
iter:   7  14:13:06         -1.16  -121.791596    4      3      
iter:   8  14:13:06         -1.28  -121.590626    3      3      
iter:   9  14:13:07         -1.44  -121.497444    3      3      
iter:  10  14:13:07         -1.48  -121.476966    3      3      
iter:  11  14:13:08         -1.60  -121.338620    3      2      
iter:  12  14:13:09         -1.84  -121.319773    3      2      
iter:  13  14:13:09         -1.93  -121.312110    3      2      
iter:  14  14:13:10         -2.05  -121.295986    3      2      
iter:  15  14:13:10         -2.27  -121.291722    3      2      
iter:  16  14:13:11         -2.44  -121.288768    3      2      
iter:  17  14:13:11         -2.53  -121.288814    3      2      
iter:  18  14:13:12         -2.62  -121.287666    3      2      
iter:  19  14:13:12         -2.80  -121.286015    2      2      
iter:  20  14:13:13         -3.05  -121.285096    2      1      
iter:  21  14:13:13         -3.17  -121.282007    2      1      
iter:  22  14:13:14         -3.26  -121.283603    2      1      
iter:  23  14:13:14         -3.37  -121.282832    2      1      
iter:  24  14:13:15         -3.54  -121.284404    2      1      
iter:  25  14:13:15         -3.64  -121.285100    2      1      
iter:  26  14:13:16         -3.79  -121.285248    2      1      
iter:  27  14:13:16         -3.97  -121.286192    2      1      
iter:  28  14:13:17         -4.23  -121.286730    2      1      

Converged after 28 iterations.

Dipole moment: (-0.061720, 0.447849, -0.251583) |e|*Ang

Energy contributions relative to reference atoms: (reference = -24663.074771)

Kinetic:       +249.185432
Potential:     -206.701521
External:        +0.000000
XC:            -166.340494
Entropy (-ST):   -0.576071
Local:           +2.857888
--------------------------
Free energy:   -121.574766
Extrapolated:  -121.286730

Fermi level: -5.04464

 Band  Eigenvalues  Occupancy
    0    -27.04748    2.00000
    1    -25.63667    2.00000
    2    -23.77146    2.00000
    3    -23.10511    2.00000
    4    -22.69046    2.00000
    5    -21.75446    2.00000
    6    -19.66689    2.00000
    7    -18.67696    2.00000
    8    -18.43956    2.00000
    9    -17.85877    2.00000
   10    -17.32114    2.00000
   11    -16.06789    2.00000
   12    -15.40032    2.00000
   13    -15.23218    2.00000
   14    -14.97493    2.00000
   15    -14.09828    2.00000
   16    -13.19165    2.00000
   17    -13.01037    2.00000
   18    -12.29579    2.00000
   19    -11.85985    2.00000
   20    -11.63518    2.00000
   21    -11.25098    2.00000
   22    -11.09758    2.00000
   23    -10.57750    2.00000
   24    -10.26708    2.00000
   25     -9.98561    2.00000
   26     -9.81143    2.00000
   27     -9.63970    2.00000
   28     -8.92753    2.00000
   29     -8.74828    2.00000
   30     -8.61188    2.00000
   31     -8.42343    2.00000
   32     -8.27471    2.00000
   33     -7.93465    2.00000
   34     -7.80197    2.00000
   35     -7.47831    2.00000
   36     -7.27095    2.00000
   37     -7.18236    2.00000
   38     -6.76413    2.00000
   39     -6.56061    2.00000
   40     -6.41911    2.00000
   41     -6.29855    1.99999
   42     -6.20731    1.99998
   43     -5.57614    1.99021
   44     -5.49420    1.97793
   45     -5.32721    1.88810
   46     -5.16562    1.54054
   47     -5.09482    1.24578
   48     -5.02809    0.91745
   49     -4.88082    0.32542
   50     -4.75476    0.10443
   51     -4.51507    0.00998
   52     -4.09708    0.00015
   53     -3.94549    0.00003
   54     -3.61728    0.00000
   55     -3.57535    0.00000
   56     -3.49601    0.00000
   57     -3.24359    0.00000
   58     -2.97247    0.00000
   59     -2.67328    0.00000
   60     -2.44019    0.00000
   61     -1.58796    0.00000
   62     -1.47943    0.00000
   63     -0.81446    0.00000
   64     -0.43272    0.00000
   65     -0.29739    0.00000
   66     -0.16899    0.00000
   67      0.19772    0.00000
   68      0.54086    0.00000
   69      0.64329    0.00000
   70      1.41933    0.00000
   71      1.75630    0.00000
   72      2.12077    0.00000
   73      2.59910    0.00000
   74      2.87560    0.00000
   75      3.30678    0.00000
   76      3.71111    0.00000
   77      4.24694    0.00000
   78      4.31503    0.00000
   79      4.68524    0.00000
   80      5.22291    0.00000
   81      5.44740    0.00000
   82      5.85523    0.00000
   83      7.07684    0.00000
   84      7.12440    0.00000
   85      7.53770    0.00000
   86      7.67746    0.00000
   87      8.01279    0.00000
   88      8.16237    0.00000
   89      8.31702    0.00000
   90      8.34911    0.00000
   91      8.74915    0.00000
   92      8.78159    0.00000
   93      8.91706    0.00000
   94      8.96858    0.00000
   95      9.14945    0.00000
   96      9.21826    0.00000
   97      9.40673    0.00000


Forces in eV/Ang:
  0 C   -12.98981  -13.37659    7.59275
  1 C    12.77247  -12.28874  -15.72253
  2 C     8.34703   -5.44718  -13.37570
  3 C     3.18253   -1.32148   -0.70037
  4 C    -1.24848    0.23084   -1.61665
  5 C     5.20860   16.86906    1.31154
  6 C    -0.01911    1.42817   -2.15652
  7 C     0.45014   -1.32787    1.16642
  8 C   -10.40144   18.18940   -2.02623
  9 C     0.64762   -1.56784    2.45244
 10 C   -12.72204  -16.71541  -20.51528
 11 C    -6.11418   -1.17091    0.44195
 12 C     3.66027   -2.80399    2.45049
 13 C     1.04579   -0.79834    2.35556
 14 C    -6.85402  -13.39834   -1.29009
 15 C    10.22996    3.60548    5.86241
 16 C   -12.34491    6.41947   11.08806
 17 C    -0.60926    1.11369   -1.75074
 18 C    -8.97887  -12.79954   -3.73123
 19 C     1.48581    0.38812    0.22054
 20 C     7.85305   10.83354    5.65409
 21 C    14.84662   -4.30391  -14.25915
 22 C   -12.46062   10.74411   15.67794
 23 C    15.02628   17.49491   20.81634

System changes: positions 

Initializing position-dependent things.

Density initialized from wave functions
           .--------------------------------------.  
          /|                                      |  
         / |                                      |  
        /  |                                      |  
       /   |                                      |  
      /    |                                      |  
     /     |                                      |  
    /      |                                      |  
   /       |                                      |  
  /        |       C C    C      C                |  
 *         |     C            C  C                |  
 |         |  C   C   C     C C  C                |  
 |         .-C------C----C--C-C-------------------.  
 |        /      C     C  C                      /   
 |       /        C C                           /    
 |      /                                      /     
 |     /                                      /      
 |    /                                      /       
 |   /                                      /        
 |  /                                      /         
 | /                                      /          
 |/                                      /           
 *--------------------------------------*            

Positions:
   0 C      9.640925    6.398724    5.699724
   1 C      7.440933    5.666697    4.747228
   2 C      6.166196    3.824082    4.297074
   3 C      7.672643   10.446129    5.071806
   4 C      4.866419    8.218157    5.278240
   5 C      6.401334    8.066482    4.895491
   6 C      3.609073    6.140020    5.743917
   7 C      5.482340   11.182129    5.339660
   8 C      9.906044    8.202032    5.200715
   9 C      8.250439    6.930633    5.011770
  10 C      4.098355    9.505884    4.707439
  11 C      9.331142    9.934365    4.943175
  12 C      6.986980    3.299859    5.152679
  13 C      3.287680    6.759878    4.547513
  14 C      5.838732    7.009992    4.727283
  15 C     11.063246    8.252385    5.651780
  16 C      5.406193    4.277603    5.090756
  17 C     11.488757    6.312403    5.467445
  18 C      9.218831    4.062012    5.132802
  19 C     10.433670   10.423560    5.521855
  20 C      9.864421    5.016774    5.391664
  21 C     10.264260    7.033483    4.851347
  22 C      6.920920    6.338311    5.560901
  23 C      4.648108   10.037684    5.579887

Unit cell:
           periodic     x           y           z      points  spacing
  1. axis:    yes   16.000000    0.000000    0.000000    80     0.2000
  2. axis:    yes    0.000000   16.000000    0.000000    80     0.2000
  3. axis:    yes    0.000000    0.000000   10.000000    48     0.2083

Effective grid spacing dv^(1/3) = 0.2027

                     log10-error:    total        iterations:
           time      wfs    density  energy       fermi  poisson
iter:   1  14:13:18          +inf  -128.069599    3      5      
iter:   2  14:13:19         -1.57  -127.873848    2      2      
iter:   3  14:13:19         -1.82  -127.837501    3      2      
iter:   4  14:13:20         -1.93  -127.815631    3      2      
iter:   5  14:13:20         -1.99  -127.794404    3      2      
iter:   6  14:13:21         -2.14  -127.780222    3      2      
iter:   7  14:13:21         -2.32  -127.771897    3      2      
iter:   8  14:13:22         -2.49  -127.768341    2      2      
iter:   9  14:13:22         -2.61  -127.765781    2      2      
iter:  10  14:13:23         -2.70  -127.766388    2      2      
iter:  11  14:13:23         -2.88  -127.766402    2      1      
iter:  12  14:13:24         -3.00  -127.765276    2      1      
iter:  13  14:13:24         -3.09  -127.763702    2      1      
iter:  14  14:13:25         -3.22  -127.763698    2      1      
iter:  15  14:13:25         -3.34  -127.765649    2      1      
iter:  16  14:13:26         -3.45  -127.766218    2      1      
iter:  17  14:13:26         -3.55  -127.767027    2      1      
iter:  18  14:13:27         -3.72  -127.767427    2      1      
iter:  19  14:13:27         -3.92  -127.766185    2      1      
iter:  20  14:13:28         -4.02  -127.766312    2      1      

Converged after 20 iterations.

Dipole moment: (0.010081, 0.432319, -0.235704) |e|*Ang

Energy contributions relative to reference atoms: (reference = -24663.074771)

Kinetic:       +204.042033
Potential:     -175.271245
External:        +0.000000
XC:            -158.968850
Entropy (-ST):   -0.582481
Local:           +2.722990
--------------------------
Free energy:   -128.057553
Extrapolated:  -127.766312

Fermi level: -5.05166

 Band  Eigenvalues  Occupancy
    0    -26.65449    2.00000
    1    -25.34516    2.00000
    2    -23.42726    2.00000
    3    -22.76393    2.00000
    4    -22.32935    2.00000
    5    -21.63368    2.00000
    6    -19.66686    2.00000
    7    -18.48228    2.00000
    8    -18.32683    2.00000
    9    -17.88063    2.00000
   10    -17.31774    2.00000
   11    -15.85235    2.00000
   12    -15.23068    2.00000
   13    -15.18646    2.00000
   14    -14.74955    2.00000
   15    -14.11447    2.00000
   16    -12.96020    2.00000
   17    -12.72935    2.00000
   18    -12.15382    2.00000
   19    -11.88598    2.00000
   20    -11.64225    2.00000
   21    -11.20988    2.00000
   22    -10.97831    2.00000
   23    -10.50843    2.00000
   24    -10.05584    2.00000
   25     -9.90115    2.00000
   26     -9.63870    2.00000
   27     -9.54899    2.00000
   28     -8.90091    2.00000
   29     -8.73592    2.00000
   30     -8.53936    2.00000
   31     -8.40052    2.00000
   32     -8.25993    2.00000
   33     -7.98022    2.00000
   34     -7.77940    2.00000
   35     -7.43537    2.00000
   36     -7.25037    2.00000
   37     -7.18584    2.00000
   38     -6.77317    2.00000
   39     -6.50879    2.00000
   40     -6.38869    2.00000
   41     -6.26179    1.99999
   42     -6.13276    1.99996
   43     -5.56119    1.98782
   44     -5.50702    1.97916
   45     -5.33531    1.88923
   46     -5.15222    1.46429
   47     -5.14155    1.42143
   48     -4.99184    0.70949
   49     -4.91831    0.41714
   50     -4.77987    0.12384
   51     -4.49218    0.00741
   52     -4.14072    0.00022
   53     -3.90268    0.00002
   54     -3.66679    0.00000
   55     -3.60834    0.00000
   56     -3.47923    0.00000
   57     -3.20718    0.00000
   58     -2.96429    0.00000
   59     -2.71885    0.00000
   60     -2.49370    0.00000
   61     -1.77328    0.00000
   62     -1.63319    0.00000
   63     -0.96241    0.00000
   64     -0.57434    0.00000
   65     -0.38157    0.00000
   66     -0.26924    0.00000
   67      0.16094    0.00000
   68      0.37619    0.00000
   69      0.56372    0.00000
   70      1.16458    0.00000
   71      1.51388    0.00000
   72      1.90260    0.00000
   73      2.37557    0.00000
   74      2.78700    0.00000
   75      3.23924    0.00000
   76      3.54231    0.00000
   77      4.22840    0.00000
   78      4.33029    0.00000
   79      4.63571    0.00000
   80      5.13550    0.00000
   81      5.35461    0.00000
   82      5.82794    0.00000
   83      7.09590    0.00000
   84      7.31346    0.00000
   85      7.47930    0.00000
   86      7.63504    0.00000
   87      7.88574    0.00000
   88      8.08494    0.00000
   89      8.30634    0.00000
   90      8.37473    0.00000
   91      8.75155    0.00000
   92      8.79682    0.00000
   93      8.91682    0.00000
   94      8.93127    0.00000
   95      9.16228    0.00000
   96      9.21054    0.00000
   97      9.43690    0.00000


Forces in eV/Ang:
  0 C   -10.66358   -9.80885    4.59912
  1 C     9.20825   -7.31769  -10.02096
  2 C     4.97624   -3.46939   -9.16389
  3 C     3.27310   -1.50234   -0.72955
  4 C    -1.02410    0.64918   -1.94214
  5 C     3.06859   12.46282    0.77480
  6 C     0.01808    1.31386   -1.87627
  7 C     0.21713   -1.29094    1.22267
  8 C    -8.02992   15.10472   -1.93520
  9 C     0.47809   -1.61098    2.60145
 10 C    -6.77483  -11.17124  -10.96720
 11 C    -5.50725   -1.20669    0.65798
 12 C     3.13876   -2.55643    2.12073
 13 C     0.94077   -0.69382    2.08120
 14 C    -4.69157   -9.41789   -0.47489
 15 C     7.87480    2.90744    4.96291
 16 C    -8.53395    4.16320    7.24583
 17 C    -0.63926    1.15864   -1.81734
 18 C    -6.25962   -8.77035   -2.76693
 19 C     1.16601    0.26309    0.05251
 20 C     5.25219    6.22966    4.63662
 21 C    12.19348   -3.49041  -10.44116
 22 C    -8.61917    6.28024    9.77488
 23 C     9.01381   11.68283   11.45106

System changes: positions 

Initializing position-dependent things.

Density initialized from wave functions
           .--------------------------------------.  
          /|                                      |  
         / |                                      |  
        /  |                                      |  
       /   |                                      |  
      /    |                                      |  
     /     |                                      |  
    /      |                                      |  
   /       |                                      |  
  /        |       C C    C      C                |  
 *         |     C            C  C                |  
 |         |  C   C   C     C C  C                |  
 |         .-C------C----C--C-C-------------------.  
 |        /      C     C  C                      /   
 |       /        C C                           /    
 |      /                                      /     
 |     /                                      /      
 |    /                                      /       
 |   /                                      /        
 |  /                                      /         
 | /                                      /          
 |/                                      /           
 *--------------------------------------*            

Positions:
   0 C      9.616044    6.382658    5.700949
   1 C      7.454989    5.665741    4.740637
   2 C      6.166892    3.821818    4.286261
   3 C      7.684123   10.440194    5.069205
   4 C      4.864034    8.222347    5.270131
   5 C      6.401470    8.087501    4.895542
   6 C      3.609312    6.143909    5.738922
   7 C      5.481960   11.177948    5.344055
   8 C      9.890269    8.238280    5.194618
   9 C      8.251243    6.924990    5.021262
  10 C      4.103894    9.494659    4.716027
  11 C      9.315453    9.930121    4.946428
  12 C      6.995084    3.292413    5.158262
  13 C      3.290354    6.758035    4.553227
  14 C      5.833225    6.997216    4.729574
  15 C     11.078576    8.258864    5.664234
  16 C      5.395591    4.280878    5.096861
  17 C     11.486456    6.316529    5.460993
  18 C      9.210691    4.051655    5.128069
  19 C     10.436078   10.423851    5.521230
  20 C      9.869726    5.015811    5.402454
  21 C     10.292743    7.025588    4.834342
  22 C      6.910176    6.338188    5.565699
  23 C      4.649814   10.049356    5.573805

Unit cell:
           periodic     x           y           z      points  spacing
  1. axis:    yes   16.000000    0.000000    0.000000    80     0.2000
  2. axis:    yes    0.000000   16.000000    0.000000    80     0.2000
  3. axis:    yes    0.000000    0.000000   10.000000    48     0.2083

Effective grid spacing dv^(1/3) = 0.2027

                     log10-error:    total        iterations:
           time      wfs    density  energy       fermi  poisson
iter:   1  14:13:29          +inf  -131.240303    3      5      
iter:   2  14:13:30         -1.61  -130.962191    3      2      
iter:   3  14:13:31         -1.98  -130.941747    3      2      
iter:   4  14:13:31         -2.07  -130.920719    3      2      
iter:   5  14:13:32         -2.17  -130.916333    2      2      
iter:   6  14:13:32         -2.25  -130.912991    2      2      
iter:   7  14:13:33         -2.40  -130.907806    2      2      
iter:   8  14:13:33         -2.51  -130.908629    2      2      
iter:   9  14:13:34         -2.72  -130.906163    2      2      
iter:  10  14:13:34         -2.84  -130.906551    2      2      
iter:  11  14:13:35         -3.05  -130.908712    2      1      
iter:  12  14:13:35         -3.24  -130.906703    2      1      
iter:  13  14:13:36         -3.33  -130.905344    2      1      
iter:  14  14:13:36         -3.42  -130.905502    2      1      
iter:  15  14:13:37         -3.54  -130.906013    2      1      
iter:  16  14:13:37         -3.71  -130.905449    2      1      
iter:  17  14:13:38         -3.81  -130.905012    2      1      
iter:  18  14:13:38         -3.98  -130.905224    2      1      
iter:  19  14:13:39         -4.13  -130.905607    2      1      

Converged after 19 iterations.

Dipole moment: (0.059960, 0.468837, -0.231850) |e|*Ang

Energy contributions relative to reference atoms: (reference = -24663.074771)

Kinetic:       +183.193764
Potential:     -160.776296
External:        +0.000000
XC:            -155.741183
Entropy (-ST):   -0.571434
Local:           +2.703825
--------------------------
Free energy:   -131.191324
Extrapolated:  -130.905607

Fermi level: -5.03560

 Band  Eigenvalues  Occupancy
    0    -26.17009    2.00000
    1    -25.17265    2.00000
    2    -23.38686    2.00000
    3    -22.48301    2.00000
    4    -22.21703    2.00000
    5    -21.48639    2.00000
    6    -19.69891    2.00000
    7    -18.31577    2.00000
    8    -18.23954    2.00000
    9    -17.90262    2.00000
   10    -17.37913    2.00000
   11    -15.79249    2.00000
   12    -15.33803    2.00000
   13    -15.01959    2.00000
   14    -14.59447    2.00000
   15    -14.10748    2.00000
   16    -12.76904    2.00000
   17    -12.65505    2.00000
   18    -12.10194    2.00000
   19    -11.94953    2.00000
   20    -11.68423    2.00000
   21    -11.18115    2.00000
   22    -10.89452    2.00000
   23    -10.48674    2.00000
   24     -9.97859    2.00000
   25     -9.83099    2.00000
   26     -9.55521    2.00000
   27     -9.52040    2.00000
   28     -8.89829    2.00000
   29     -8.69937    2.00000
   30     -8.51731    2.00000
   31     -8.39292    2.00000
   32     -8.23607    2.00000
   33     -8.07353    2.00000
   34     -7.77944    2.00000
   35     -7.44090    2.00000
   36     -7.26118    2.00000
   37     -7.20089    2.00000
   38     -6.81721    2.00000
   39     -6.49038    2.00000
   40     -6.38161    2.00000
   41     -6.21314    1.99998
   42     -6.09389    1.99995
   43     -5.57485    1.99094
   44     -5.49791    1.98055
   45     -5.32503    1.89512
   46     -5.14219    1.48762
   47     -5.12249    1.40903
   48     -4.98522    0.75327
   49     -4.87721    0.34048
   50     -4.77367    0.13580
   51     -4.47064    0.00701
   52     -4.12524    0.00022
   53     -3.81657    0.00001
   54     -3.71744    0.00000
   55     -3.57409    0.00000
   56     -3.46738    0.00000
   57     -3.18253    0.00000
   58     -2.96212    0.00000
   59     -2.73906    0.00000
   60     -2.48563    0.00000
   61     -1.77833    0.00000
   62     -1.69722    0.00000
   63     -1.01994    0.00000
   64     -0.68888    0.00000
   65     -0.40895    0.00000
   66     -0.30324    0.00000
   67      0.22341    0.00000
   68      0.26140    0.00000
   69      0.58997    0.00000
   70      1.04521    0.00000
   71      1.37128    0.00000
   72      1.82016    0.00000
   73      2.40289    0.00000
   74      2.83394    0.00000
   75      3.29910    0.00000
   76      3.54757    0.00000
   77      4.37924    0.00000
   78      4.40685    0.00000
   79      4.75084    0.00000
   80      5.21120    0.00000
   81      5.42258    0.00000
   82      5.91049    0.00000
   83      7.11745    0.00000
   84      7.27015    0.00000
   85      7.42927    0.00000
   86      7.71458    0.00000
   87      7.83406    0.00000
   88      8.05389    0.00000
   89      8.31966    0.00000
   90      8.42014    0.00000
   91      8.66320    0.00000
   92      8.82500    0.00000
   93      8.93509    0.00000
   94      8.95502    0.00000
   95      9.09394    0.00000
   96      9.18779    0.00000
   97      9.40751    0.00000


Forces in eV/Ang:
  0 C    -8.69952   -7.09965    2.20217
  1 C     8.40865   -6.06639   -8.56681
  2 C     4.12248   -3.01509   -6.88931
  3 C     3.18977   -1.61314   -0.76997
  4 C    -0.73365    0.53996   -2.24055
  5 C     1.55303    9.83459    0.36772
  6 C     0.07139    1.02695   -1.54506
  7 C     0.28982   -0.95197    1.20783
  8 C    -5.23511   11.73370   -1.78639
  9 C     0.60057   -1.56287    2.73485
 10 C    -6.80304  -11.76614  -10.81412
 11 C    -4.80076   -1.20419    0.93636
 12 C     2.41558   -2.09653    1.43994
 13 C     0.80858   -0.55769    1.69877
 14 C    -3.32690   -6.85457    0.13783
 15 C     5.23315    2.21549    3.95543
 16 C    -6.98953    3.27642    5.70580
 17 C    -0.55141    1.21261   -1.76871
 18 C    -5.20786   -7.12427   -2.44772
 19 C     0.73948    0.00328   -0.22910
 20 C     4.12226    4.49269    4.20086
 21 C     9.76881   -1.81494   -7.15116
 22 C    -7.78270    5.05094    8.14407
 23 C     8.87635   12.28480   11.47314

System changes: positions 

Initializing position-dependent things.

Density initialized from wave functions
           .--------------------------------------.  
          /|                                      |  
         / |                                      |  
        /  |                                      |  
       /   |                                      |  
      /    |                                      |  
     /     |                                      |  
    /      |                                      |  
   /       |                                      |  
  /        |       C C    C      C                |  
 *         |     C            C  C                |  
 |         |  C   C   C     C C                   |  
 |         .-C------C----C--C--C-C----------------.  
 |        /      C     C  C                      /   
 |       /        C C                           /    
 |      /                                      /     
 |     /                                      /      
 |    /                                      /       
 |   /                                      /        
 |  /                                      /         
 | /                                      /          
 |/                                      /           
 *--------------------------------------*            

Positions:
   0 C      9.588609    6.375239    5.685061
   1 C      7.477867    5.666963    4.732862
   2 C      6.166093    3.818664    4.282261
   3 C      7.702691   10.429330    5.064426
   4 C      4.862413    8.227604    5.253980
   5 C      6.390810    8.105770    4.892631
   6 C      3.610175    6.147917    5.733150
   7 C      5.482478   11.174105    5.351292
   8 C      9.886485    8.272623    5.185524
   9 C      8.254149    6.915930    5.038475
  10 C      4.101656    9.459015    4.713876
  11 C      9.294539    9.922981    4.954312
  12 C      7.002739    3.283797    5.161674
  13 C      3.293804    6.756041    4.559709
  14 C      5.833196    6.993172    4.737977
  15 C     11.083084    8.264399    5.677219
  16 C      5.385496    4.282012    5.099394
  17 C     11.483461    6.324008    5.450605
  18 C      9.202011    4.042565    5.121311
  19 C     10.436575   10.422016    5.517700
  20 C      9.872574    5.005810    5.418483
  21 C     10.322387    7.027148    4.830589
  22 C      6.892777    6.334371    5.569056
  23 C      4.662887   10.086345    5.581610

Unit cell:
           periodic     x           y           z      points  spacing
  1. axis:    yes   16.000000    0.000000    0.000000    80     0.2000
  2. axis:    yes    0.000000   16.000000    0.000000    80     0.2000
  3. axis:    yes    0.000000    0.000000   10.000000    48     0.2083

Effective grid spacing dv^(1/3) = 0.2027

                     log10-error:    total        iterations:
           time      wfs    density  energy       fermi  poisson
iter:   1  14:13:40          +inf  -134.340554    3      5      
iter:   2  14:13:41         -1.74  -134.215514    3      2      
iter:   3  14:13:41         -1.92  -134.177301    3      2      
iter:   4  14:13:42         -2.04  -134.156141    3      2      
iter:   5  14:13:42         -2.13  -134.149022    2      2      
iter:   6  14:13:43         -2.26  -134.143023    2      2      
iter:   7  14:13:43         -2.35  -134.138537    2      2      
iter:   8  14:13:44         -2.56  -134.139880    2      2      
iter:   9  14:13:44         -2.68  -134.140583    2      1      
iter:  10  14:13:45         -2.77  -134.138785    2      2      
iter:  11  14:13:45         -3.09  -134.138837    2      1      
iter:  12  14:13:46         -3.21  -134.138677    2      1      
iter:  13  14:13:46         -3.29  -134.138002    2      1      
iter:  14  14:13:47         -3.45  -134.138357    2      1      
iter:  15  14:13:47         -3.67  -134.138458    2      1      
iter:  16  14:13:48         -3.78  -134.138079    2      1      
iter:  17  14:13:48         -3.99  -134.138205    2      1      
iter:  18  14:13:49         -4.10  -134.138127    2      1      

Converged after 18 iterations.

Dipole moment: (0.151946, 0.453503, -0.237857) |e|*Ang

Energy contributions relative to reference atoms: (reference = -24663.074771)

Kinetic:       +168.016622
Potential:     -150.617864
External:        +0.000000
XC:            -153.953224
Entropy (-ST):   -0.548251
Local:           +2.690464
--------------------------
Free energy:   -134.412252
Extrapolated:  -134.138127

Fermi level: -5.04001

 Band  Eigenvalues  Occupancy
    0    -25.91366    2.00000
    1    -25.06027    2.00000
    2    -23.24580    2.00000
    3    -22.24239    2.00000
    4    -22.03901    2.00000
    5    -21.42403    2.00000
    6    -19.78389    2.00000
    7    -18.30188    2.00000
    8    -18.23870    2.00000
    9    -17.95481    2.00000
   10    -17.44519    2.00000
   11    -15.78173    2.00000
   12    -15.53802    2.00000
   13    -14.93430    2.00000
   14    -14.44836    2.00000
   15    -14.10778    2.00000
   16    -12.67749    2.00000
   17    -12.62149    2.00000
   18    -12.11094    2.00000
   19    -12.00391    2.00000
   20    -11.76521    2.00000
   21    -11.19478    2.00000
   22    -10.88963    2.00000
   23    -10.42883    2.00000
   24     -9.87794    2.00000
   25     -9.76325    2.00000
   26     -9.48335    2.00000
   27     -9.44199    2.00000
   28     -8.88521    2.00000
   29     -8.67331    2.00000
   30     -8.48547    2.00000
   31     -8.36224    2.00000
   32     -8.25343    2.00000
   33     -8.17264    2.00000
   34     -7.79589    2.00000
   35     -7.49473    2.00000
   36     -7.28300    2.00000
   37     -7.17085    2.00000
   38     -6.83761    2.00000
   39     -6.51502    2.00000
   40     -6.36325    2.00000
   41     -6.19459    1.99998
   42     -6.10115    1.99995
   43     -5.64773    1.99542
   44     -5.52014    1.98370
   45     -5.34273    1.90758
   46     -5.16640    1.55937
   47     -5.10883    1.33112
   48     -5.00536    0.82846
   49     -4.85012    0.26047
   50     -4.77069    0.12675
   51     -4.47649    0.00711
   52     -4.03114    0.00008
   53     -3.78638    0.00001
   54     -3.73373    0.00000
   55     -3.52534    0.00000
   56     -3.39285    0.00000
   57     -3.14158    0.00000
   58     -2.96001    0.00000
   59     -2.71665    0.00000
   60     -2.41294    0.00000
   61     -1.81243    0.00000
   62     -1.69059    0.00000
   63     -1.09287    0.00000
   64     -0.75785    0.00000
   65     -0.45522    0.00000
   66     -0.31783    0.00000
   67      0.17958    0.00000
   68      0.31909    0.00000
   69      0.65085    0.00000
   70      0.96698    0.00000
   71      1.23380    0.00000
   72      1.81946    0.00000
   73      2.35145    0.00000
   74      2.88290    0.00000
   75      3.47094    0.00000
   76      3.58724    0.00000
   77      4.52110    0.00000
   78      4.71928    0.00000
   79      5.07774    0.00000
   80      5.41948    0.00000
   81      5.56449    0.00000
   82      6.11189    0.00000
   83      7.11392    0.00000
   84      7.22221    0.00000
   85      7.47759    0.00000
   86      7.81251    0.00000
   87      8.02769    0.00000
   88      8.10995    0.00000
   89      8.34398    0.00000
   90      8.47979    0.00000
   91      8.60405    0.00000
   92      8.84204    0.00000
   93      8.95637    0.00000
   94      9.03808    0.00000
   95      9.08774    0.00000
   96      9.20144    0.00000
   97      9.42707    0.00000


Forces in eV/Ang:
  0 C    -7.48611   -6.02196    0.91600
  1 C     7.42852   -4.71431   -6.93640
  2 C     3.72681   -2.88722   -5.50111
  3 C     3.26095   -1.82051   -0.85033
  4 C    -0.44317    0.58005   -2.55964
  5 C     0.90651    9.01650    0.14487
  6 C     0.14075    0.69364   -1.14934
  7 C     0.40229   -0.27384    1.16905
  8 C    -3.97741    9.91477   -1.76960
  9 C     0.64206   -1.49524    2.77881
 10 C    -3.85275   -9.36449   -6.17237
 11 C    -4.10278   -1.02208    1.15653
 12 C     1.97453   -1.76080    0.92466
 13 C     0.58776   -0.40227    1.25697
 14 C    -2.87861   -5.94246    0.62545
 15 C     4.10136    1.85036    3.47367
 16 C    -6.15519    2.83212    4.82972
 17 C    -0.27533    1.12658   -1.56060
 18 C    -4.65198   -6.08721   -2.30045
 19 C     0.29455   -0.20768   -0.47602
 20 C     3.36214    3.82611    3.91337
 21 C     8.15585   -0.92583   -5.37511
 22 C    -6.73211    3.57536    6.33026
 23 C     5.53548    9.49106    7.12299

System changes: positions 

Initializing position-dependent things.

Density initialized from wave functions
           .--------------------------------------.  
          /|                                      |  
         / |                                      |  
        /  |                                      |  
       /   |                                      |  
      /    |                                      |  
     /     |                                      |  
    /      |                                      |  
   /       |                                      |  
  /        |       C C    C      C                |  
 *         |     C            C  C                |  
 |         |  C   C   C     C C                   |  
 |         .-C------C----C--C--C-C----------------.  
 |        /      C     C  C                      /   
 |       /        C C                           /    
 |      /                                      /     
 |     /                                      /      
 |    /                                      /       
 |   /                                      /        
 |  /                                      /         
 | /                                      /          
 |/                                      /           
 *--------------------------------------*            

Positions:
   0 C      9.559850    6.365703    5.662298
   1 C      7.506675    5.667032    4.722530
   2 C      6.171285    3.810168    4.278239
   3 C      7.725823   10.414562    5.057890
   4 C      4.862591    8.233229    5.232124
   5 C      6.378054    8.133569    4.888545
   6 C      3.611796    6.149901    5.729136
   7 C      5.484893   11.175975    5.359577
   8 C      9.886659    8.306403    5.174283
   9 C      8.258572    6.905659    5.059446
  10 C      4.110969    9.423427    4.729584
  11 C      9.273995    9.916189    4.965417
  12 C      7.009420    3.275773    5.161861
  13 C      3.296158    6.754812    4.564125
  14 C      5.830905    6.984937    4.750535
  15 C     11.084959    8.269757    5.691186
  16 C      5.369895    4.285825    5.105440
  17 C     11.482623    6.332130    5.440184
  18 C      9.188698    4.029544    5.111617
  19 C     10.433803   10.418113    5.511502
  20 C      9.876408    5.000935    5.438284
  21 C     10.350947    7.035052    4.831594
  22 C      6.870538    6.328413    5.572809
  23 C      4.663140   10.120445    5.575127

Unit cell:
           periodic     x           y           z      points  spacing
  1. axis:    yes   16.000000    0.000000    0.000000    80     0.2000
  2. axis:    yes    0.000000   16.000000    0.000000    80     0.2000
  3. axis:    yes    0.000000    0.000000   10.000000    48     0.2083

Effective grid spacing dv^(1/3) = 0.2027

                     log10-error:    total        iterations:
           time      wfs    density  energy       fermi  poisson
iter:   1  14:13:50          +inf  -137.280445    3      5      
iter:   2  14:13:51         -1.65  -137.050137    3      2      
iter:   3  14:13:52         -1.85  -136.999587    3      2      
iter:   4  14:13:52         -1.97  -136.961420    3      2      
iter:   5  14:13:53         -2.07  -136.953179    3      2      
iter:   6  14:13:53         -2.15  -136.942915    2      2      
iter:   7  14:13:54         -2.31  -136.937255    3      2      
iter:   8  14:13:54         -2.44  -136.938353    2      2      
iter:   9  14:13:55         -2.65  -136.937786    2      2      
iter:  10  14:13:55         -2.73  -136.937618    2      2      
iter:  11  14:13:56         -2.95  -136.937124    2      2      
iter:  12  14:13:56         -3.17  -136.937382    2      1      
iter:  13  14:13:57         -3.32  -136.937259    2      1      
iter:  14  14:13:57         -3.43  -136.937209    2      1      
iter:  15  14:13:58         -3.55  -136.937288    2      1      
iter:  16  14:13:58         -3.72  -136.937248    2      1      
iter:  17  14:13:59         -3.82  -136.937083    2      1      
iter:  18  14:13:59         -3.87  -136.936919    2      1      
iter:  19  14:14:00         -4.00  -136.936930    2      1      

Converged after 19 iterations.

Dipole moment: (0.227516, 0.421095, -0.249930) |e|*Ang

Energy contributions relative to reference atoms: (reference = -24663.074771)

Kinetic:       +156.231423
Potential:     -142.799913
External:        +0.000000
XC:            -152.802070
Entropy (-ST):   -0.519277
Local:           +2.693269
--------------------------
Free energy:   -137.196568
Extrapolated:  -136.936930

Fermi level: -5.03898

 Band  Eigenvalues  Occupancy
    0    -25.72074    2.00000
    1    -24.88813    2.00000
    2    -23.17503    2.00000
    3    -22.01459    2.00000
    4    -21.89778    2.00000
    5    -21.40002    2.00000
    6    -19.91637    2.00000
    7    -18.36361    2.00000
    8    -18.19993    2.00000
    9    -17.97517    2.00000
   10    -17.49966    2.00000
   11    -15.82703    2.00000
   12    -15.76713    2.00000
   13    -14.87195    2.00000
   14    -14.28726    2.00000
   15    -14.12467    2.00000
   16    -12.76240    2.00000
   17    -12.63764    2.00000
   18    -12.17721    2.00000
   19    -12.05821    2.00000
   20    -11.83846    2.00000
   21    -11.23278    2.00000
   22    -10.91743    2.00000
   23    -10.36709    2.00000
   24     -9.84391    2.00000
   25     -9.66403    2.00000
   26     -9.44427    2.00000
   27     -9.37438    2.00000
   28     -8.87878    2.00000
   29     -8.65880    2.00000
   30     -8.47413    2.00000
   31     -8.35246    2.00000
   32     -8.30898    2.00000
   33     -8.19621    2.00000
   34     -7.82535    2.00000
   35     -7.57108    2.00000
   36     -7.26939    2.00000
   37     -7.19230    2.00000
   38     -6.81986    2.00000
   39     -6.54611    2.00000
   40     -6.31292    1.99999
   41     -6.20367    1.99998
   42     -6.06493    1.99993
   43     -5.72570    1.99792
   44     -5.51850    1.98360
   45     -5.35938    1.92197
   46     -5.18626    1.62697
   47     -5.08961    1.24788
   48     -5.01929    0.90191
   49     -4.84217    0.24521
   50     -4.70320    0.06729
   51     -4.47830    0.00732
   52     -3.91362    0.00003
   53     -3.85877    0.00001
   54     -3.64739    0.00000
   55     -3.45062    0.00000
   56     -3.35410    0.00000
   57     -3.07389    0.00000
   58     -2.95952    0.00000
   59     -2.72420    0.00000
   60     -2.35064    0.00000
   61     -1.81761    0.00000
   62     -1.50033    0.00000
   63     -1.18467    0.00000
   64     -0.85202    0.00000
   65     -0.55648    0.00000
   66     -0.35484    0.00000
   67      0.16359    0.00000
   68      0.39407    0.00000
   69      0.69562    0.00000
   70      0.84330    0.00000
   71      1.03138    0.00000
   72      1.80265    0.00000
   73      2.30865    0.00000
   74      2.92393    0.00000
   75      3.36371    0.00000
   76      3.90753    0.00000
   77      4.59931    0.00000
   78      5.16972    0.00000
   79      5.57008    0.00000
   80      5.60113    0.00000
   81      5.83945    0.00000
   82      6.37941    0.00000
   83      7.01427    0.00000
   84      7.25912    0.00000
   85      7.59522    0.00000
   86      7.86463    0.00000
   87      8.04025    0.00000
   88      8.26143    0.00000
   89      8.38584    0.00000
   90      8.54943    0.00000
   91      8.64802    0.00000
   92      8.84913    0.00000
   93      8.99373    0.00000
   94      9.11478    0.00000
   95      9.12425    0.00000
   96      9.18609    0.00000
   97      9.42416    0.00000


Forces in eV/Ang:
  0 C    -6.11680   -5.01151    0.06445
  1 C     6.17578   -3.21188   -5.16802
  2 C     2.39709   -2.22748   -3.73438
  3 C     3.10411   -1.90180   -0.91067
  4 C    -0.03519    0.22897   -2.60653
  5 C     0.01309    7.31921   -0.22449
  6 C     0.14456    0.41411   -0.93356
  7 C     0.63138    0.40460    1.05074
  8 C    -3.09727    8.69883   -1.57890
  9 C     0.41411   -1.40172    2.69744
 10 C    -2.83134   -8.51536   -4.56809
 11 C    -3.64577   -0.98098    1.19919
 12 C     1.79718   -1.57610    0.69967
 13 C     0.46231   -0.34213    1.00016
 14 C    -2.21768   -4.14856    1.08039
 15 C     3.29824    1.59476    3.12338
 16 C    -4.64994    2.01283    3.32192
 17 C     0.05619    0.93401   -1.24822
 18 C    -3.50177   -4.24291   -1.84668
 19 C     0.13669   -0.29556   -0.59635
 20 C     2.10549    2.15540    3.28330
 21 C     6.55720   -0.50646   -4.09559
 22 C    -5.27207    1.97829    4.35216
 23 C     3.97105    8.58457    5.61683

System changes: positions 

Initializing position-dependent things.

Density initialized from wave functions
           .--------------------------------------.  
          /|                                      |  
         / |                                      |  
        /  |                                      |  
       /   |                                      |  
      /    |                                      |  
     /     |                                      |  
    /      |                                      |  
   /       |                                      |  
  /        |       C C    C      C                |  
 *         |     C            C  C                |  
 |         |  C   C   C     C C                   |  
 |         .-C------C----C--C--C-C----------------.  
 |        /      C     C  C                      /   
 |       /        C C                           /    
 |      /                                      /     
 |     /                                      /      
 |    /                                      /       
 |   /                                      /        
 |  /                                      /         
 | /                                      /          
 |/                                      /           
 *--------------------------------------*            

Positions:
   0 C      9.535830    6.354063    5.641413
   1 C      7.531251    5.670791    4.716635
   2 C      6.170421    3.804100    4.279576
   3 C      7.747647   10.399451    5.050842
   4 C      4.865736    8.234862    5.210899
   5 C      6.363117    8.157627    4.882518
   6 C      3.613247    6.150122    5.725792
   7 C      5.489814   11.183473    5.366742
   8 C      9.885100    8.341792    5.164363
   9 C      8.260694    6.896110    5.079325
  10 C      4.118940    9.386399    4.742445
  11 C      9.254786    9.909616    4.975997
  12 C      7.017115    3.267874    5.162150
  13 C      3.297895    6.753595    4.567596
  14 C      5.828649    6.982449    4.764926
  15 C     11.088928    8.275457    5.705735
  16 C      5.359464    4.287137    5.106230
  17 C     11.484799    6.338281    5.432644
  18 C      9.179963    4.024471    5.104104
  19 C     10.431166   10.414183    5.505056
  20 C      9.874587    4.990426    5.454691
  21 C     10.374251    7.041771    4.831179
  22 C      6.854170    6.316962    5.570730
  23 C      4.660090   10.156124    5.571716

Unit cell:
           periodic     x           y           z      points  spacing
  1. axis:    yes   16.000000    0.000000    0.000000    80     0.2000
  2. axis:    yes    0.000000   16.000000    0.000000    80     0.2000
  3. axis:    yes    0.000000    0.000000   10.000000    48     0.2083

Effective grid spacing dv^(1/3) = 0.2027

                     log10-error:    total        iterations:
           time      wfs    density  energy       fermi  poisson
iter:   1  14:14:01          +inf  -139.213887    3      5      
iter:   2  14:14:02         -1.79  -139.118467    3      2      
iter:   3  14:14:02         -1.94  -139.074922    3      2      
iter:   4  14:14:03         -2.08  -139.055998    3      2      
iter:   5  14:14:03         -2.18  -139.044818    2      2      
iter:   6  14:14:04         -2.34  -139.043136    2      2      
iter:   7  14:14:04         -2.41  -139.039285    2      2      
iter:   8  14:14:05         -2.66  -139.040630    2      2      
iter:   9  14:14:05         -2.74  -139.039890    2      1      
iter:  10  14:14:06         -2.85  -139.040481    2      2      
iter:  11  14:14:06         -3.10  -139.040067    2      1      
iter:  12  14:14:07         -3.22  -139.039839    2      1      
iter:  13  14:14:07         -3.35  -139.040026    2      1      
iter:  14  14:14:08         -3.50  -139.040210    2      1      
iter:  15  14:14:08         -3.61  -139.040317    2      1      
iter:  16  14:14:09         -3.78  -139.040345    2      1      
iter:  17  14:14:09         -3.95  -139.040280    2      1      
iter:  18  14:14:10         -4.12  -139.040271    2      1      

Converged after 18 iterations.

Dipole moment: (0.312483, 0.368554, -0.261639) |e|*Ang

Energy contributions relative to reference atoms: (reference = -24663.074771)

Kinetic:       +148.953255
Potential:     -138.087884
External:        +0.000000
XC:            -152.357607
Entropy (-ST):   -0.496542
Local:           +2.700236
--------------------------
Free energy:   -139.288543
Extrapolated:  -139.040271

Fermi level: -5.04215

 Band  Eigenvalues  Occupancy
    0    -25.52144    2.00000
    1    -24.78313    2.00000
    2    -23.14675    2.00000
    3    -21.83984    2.00000
    4    -21.78852    2.00000
    5    -21.37414    2.00000
    6    -20.05165    2.00000
    7    -18.43455    2.00000
    8    -18.21155    2.00000
    9    -17.98600    2.00000
   10    -17.51507    2.00000
   11    -16.02491    2.00000
   12    -15.86162    2.00000
   13    -14.87502    2.00000
   14    -14.18569    2.00000
   15    -14.12606    2.00000
   16    -12.94146    2.00000
   17    -12.65426    2.00000
   18    -12.28169    2.00000
   19    -12.09170    2.00000
   20    -11.83549    2.00000
   21    -11.26856    2.00000
   22    -10.96479    2.00000
   23    -10.30484    2.00000
   24     -9.82241    2.00000
   25     -9.57948    2.00000
   26     -9.40387    2.00000
   27     -9.30804    2.00000
   28     -8.87630    2.00000
   29     -8.67387    2.00000
   30     -8.55862    2.00000
   31     -8.33964    2.00000
   32     -8.29524    2.00000
   33     -8.20553    2.00000
   34     -7.82619    2.00000
   35     -7.64307    2.00000
   36     -7.27615    2.00000
   37     -7.22542    2.00000
   38     -6.80576    2.00000
   39     -6.58425    2.00000
   40     -6.27866    1.99999
   41     -6.21828    1.99998
   42     -6.05037    1.99992
   43     -5.81898    1.99915
   44     -5.52440    1.98404
   45     -5.39505    1.94301
   46     -5.19917    1.65563
   47     -5.09171    1.24289
   48     -5.01817    0.88068
   49     -4.84779    0.25051
   50     -4.64395    0.03661
   51     -4.48453    0.00755
   52     -3.91946    0.00003
   53     -3.82838    0.00001
   54     -3.56998    0.00000
   55     -3.38971    0.00000
   56     -3.31989    0.00000
   57     -2.98154    0.00000
   58     -2.95262    0.00000
   59     -2.71257    0.00000
   60     -2.30368    0.00000
   61     -1.83929    0.00000
   62     -1.30632    0.00000
   63     -1.19585    0.00000
   64     -0.94418    0.00000
   65     -0.64491    0.00000
   66     -0.37076    0.00000
   67      0.14027    0.00000
   68      0.45486    0.00000
   69      0.67841    0.00000
   70      0.80183    0.00000
   71      0.95803    0.00000
   72      1.82813    0.00000
   73      2.26710    0.00000
   74      2.92504    0.00000
   75      3.25807    0.00000
   76      4.20975    0.00000
   77      4.68241    0.00000
   78      5.58193    0.00000
   79      5.70589    0.00000
   80      5.85229    0.00000
   81      6.29675    0.00000
   82      6.59767    0.00000
   83      6.94845    0.00000
   84      7.29894    0.00000
   85      7.67836    0.00000
   86      7.94982    0.00000
   87      8.02401    0.00000
   88      8.35021    0.00000
   89      8.41414    0.00000
   90      8.58745    0.00000
   91      8.74214    0.00000
   92      8.87183    0.00000
   93      9.01241    0.00000
   94      9.13775    0.00000
   95      9.18282    0.00000
   96      9.21161    0.00000
   97      9.39822    0.00000


Forces in eV/Ang:
  0 C    -4.60729   -4.17097   -0.49457
  1 C     5.48418   -2.60673   -4.37317
  2 C     2.12117   -2.16622   -2.97389
  3 C     2.75843   -1.93464   -0.89220
  4 C     0.33231   -0.15646   -2.36183
  5 C    -0.32749    6.24437   -0.50783
  6 C     0.15032    0.18474   -0.80592
  7 C     0.80717    0.90161    0.90697
  8 C    -1.99154    7.47943   -1.22028
  9 C     0.19003   -1.18925    2.49997
 10 C    -1.73077   -6.75594   -2.78477
 11 C    -3.11927   -0.96083    1.18056
 12 C     1.65760   -1.37701    0.42081
 13 C     0.36118   -0.29439    0.81250
 14 C    -1.89837   -2.94746    1.35973
 15 C     2.29196    1.37663    2.65041
 16 C    -4.12294    1.79701    2.83628
 17 C     0.31468    0.83404   -0.96563
 18 C    -3.26709   -3.72709   -1.76254
 19 C     0.03834   -0.38987   -0.69223
 20 C     1.72894    1.83943    3.01701
 21 C     5.00247   -0.06759   -3.11072
 22 C    -4.53613    1.19401    3.43935
 23 C     2.28627    6.92982    3.80646

System changes: positions 

Initializing position-dependent things.

Density initialized from wave functions
           .--------------------------------------.  
          /|                                      |  
         / |                                      |  
        /  |                                      |  
       /   |                                      |  
      /    |                                      |  
     /     |                                      |  
    /      |                                      |  
   /       |                                      |  
  /        |       C C    C      C                |  
 *         |     C            C  C                |  
 |         |  C   C   C     C C                   |  
 |         .-C------C----C--C--C-C----------------.  
 |        /      C     C  C                      /   
 |       /        C C                           /    
 |      /                                      /     
 |     /                                      /      
 |    /                                      /       
 |   /                                      /        
 |  /                                      /         
 | /                                      /          
 |/                                      /           
 *--------------------------------------*            

Positions:
   0 C      9.517953    6.341333    5.617298
   1 C      7.560302    5.672528    4.707141
   2 C      6.172190    3.794037    4.279949
   3 C      7.769906   10.381255    5.042723
   4 C      4.872908    8.231677    5.189402
   5 C      6.346132    8.183422    4.873132
   6 C      3.614859    6.148788    5.721633
   7 C      5.497886   11.196674    5.373827
   8 C      9.889177    8.380790    5.156457
   9 C      8.260535    6.886918    5.100902
  10 C      4.129219    9.352388    4.759341
  11 C      9.234763    9.901342    4.987756
  12 C      7.027123    3.259155    5.161174
  13 C      3.299567    6.752075    4.571302
  14 C      5.824990    6.985073    4.783382
  15 C     11.088616    8.282017    5.720657
  16 C      5.344854    4.290857    5.109643
  17 C     11.489871    6.344842    5.426319
  18 C      9.166125    4.015168    5.093885
  19 C     10.428523   10.409029    5.496965
  20 C      9.874078    4.982791    5.474115
  21 C     10.392560    7.051077    4.831503
  22 C      6.835124    6.303220    5.569842
  23 C      4.649806   10.191131    5.564970

Unit cell:
           periodic     x           y           z      points  spacing
  1. axis:    yes   16.000000    0.000000    0.000000    80     0.2000
  2. axis:    yes    0.000000   16.000000    0.000000    80     0.2000
  3. axis:    yes    0.000000    0.000000   10.000000    48     0.2083

Effective grid spacing dv^(1/3) = 0.2027

                     log10-error:    total        iterations:
           time      wfs    density  energy       fermi  poisson
iter:   1  14:14:12          +inf  -141.157272    3      5      
iter:   2  14:14:12         -1.74  -141.033055    3      2      
iter:   3  14:14:13         -1.91  -140.971257    3      2      
iter:   4  14:14:13         -2.06  -140.955670    3      2      
iter:   5  14:14:14         -2.15  -140.943004    2      2      
iter:   6  14:14:14         -2.25  -140.938042    2      2      
iter:   7  14:14:15         -2.37  -140.933158    2      2      
iter:   8  14:14:15         -2.65  -140.934512    2      2      
iter:   9  14:14:16         -2.72  -140.934450    2      2      
iter:  10  14:14:16         -2.87  -140.933763    2      2      
iter:  11  14:14:17         -3.15  -140.933859    2      1      
iter:  12  14:14:17         -3.25  -140.934328    2      1      
iter:  13  14:14:18         -3.51  -140.933980    2      1      
iter:  14  14:14:18         -3.60  -140.933604    2      1      
iter:  15  14:14:19         -3.77  -140.934090    2      1      
iter:  16  14:14:19         -3.94  -140.933802    2      1      
iter:  17  14:14:20         -4.09  -140.933842    2      1      

Converged after 17 iterations.

Dipole moment: (0.397023, 0.310298, -0.267940) |e|*Ang

Energy contributions relative to reference atoms: (reference = -24663.074771)

Kinetic:       +141.800289
Potential:     -133.339398
External:        +0.000000
XC:            -151.855561
Entropy (-ST):   -0.472438
Local:           +2.697047
--------------------------
Free energy:   -141.170061
Extrapolated:  -140.933842

Fermi level: -5.03472

 Band  Eigenvalues  Occupancy
    0    -25.36214    2.00000
    1    -24.67636    2.00000
    2    -23.15289    2.00000
    3    -21.74811    2.00000
    4    -21.63360    2.00000
    5    -21.32712    2.00000
    6    -20.18228    2.00000
    7    -18.48989    2.00000
    8    -18.21812    2.00000
    9    -17.98007    2.00000
   10    -17.49574    2.00000
   11    -16.27807    2.00000
   12    -15.91468    2.00000
   13    -14.88033    2.00000
   14    -14.16188    2.00000
   15    -14.06584    2.00000
   16    -13.14183    2.00000
   17    -12.73447    2.00000
   18    -12.40219    2.00000
   19    -12.10603    2.00000
   20    -11.80615    2.00000
   21    -11.31174    2.00000
   22    -11.02838    2.00000
   23    -10.25975    2.00000
   24     -9.81293    2.00000
   25     -9.51396    2.00000
   26     -9.35714    2.00000
   27     -9.22345    2.00000
   28     -8.88409    2.00000
   29     -8.73433    2.00000
   30     -8.64249    2.00000
   31     -8.32089    2.00000
   32     -8.25110    2.00000
   33     -8.19649    2.00000
   34     -7.80220    2.00000
   35     -7.68124    2.00000
   36     -7.34597    2.00000
   37     -7.19588    2.00000
   38     -6.80731    2.00000
   39     -6.62728    2.00000
   40     -6.33308    2.00000
   41     -6.13104    1.99997
   42     -6.02957    1.99990
   43     -5.90692    1.99967
   44     -5.53367    1.98647
   45     -5.42884    1.96189
   46     -5.19806    1.67326
   47     -5.09682    1.30089
   48     -4.99594    0.80849
   49     -4.83321    0.23525
   50     -4.60475    0.02678
   51     -4.47462    0.00736
   52     -3.98757    0.00006
   53     -3.76343    0.00001
   54     -3.49447    0.00000
   55     -3.33779    0.00000
   56     -3.28075    0.00000
   57     -2.97523    0.00000
   58     -2.85744    0.00000
   59     -2.66856    0.00000
   60     -2.24236    0.00000
   61     -1.85505    0.00000
   62     -1.32063    0.00000
   63     -1.08949    0.00000
   64     -0.94860    0.00000
   65     -0.74182    0.00000
   66     -0.38292    0.00000
   67      0.15667    0.00000
   68      0.44313    0.00000
   69      0.62833    0.00000
   70      0.74597    0.00000
   71      0.92968    0.00000
   72      1.81991    0.00000
   73      2.23221    0.00000
   74      2.91609    0.00000
   75      3.09828    0.00000
   76      4.35941    0.00000
   77      4.95697    0.00000
   78      5.75626    0.00000
   79      5.96390    0.00000
   80      6.12416    0.00000
   81      6.60834    0.00000
   82      6.75669    0.00000
   83      7.01692    0.00000
   84      7.37841    0.00000
   85      7.73099    0.00000
   86      7.94419    0.00000
   87      8.07359    0.00000
   88      8.44443    0.00000
   89      8.48085    0.00000
   90      8.58860    0.00000
   91      8.78855    0.00000
   92      8.88526    0.00000
   93      9.01536    0.00000
   94      9.14258    0.00000
   95      9.25653    0.00000
   96      9.26844    0.00000
   97      9.43332    0.00000


Forces in eV/Ang:
  0 C    -3.29993   -3.45106   -0.65738
  1 C     4.41396   -1.84008   -3.35245
  2 C     1.36820   -1.81685   -1.83928
  3 C     2.24731   -1.90002   -0.85246
  4 C     0.59967   -0.60026   -1.98658
  5 C    -0.29274    5.33387   -0.77368
  6 C     0.14855   -0.04978   -0.65386
  7 C     0.74626    1.04719    0.82808
  8 C    -1.26519    6.35239   -0.95222
  9 C    -0.19992   -0.98755    2.27017
 10 C    -1.16512   -5.08221   -1.65820
 11 C    -2.49824   -0.96839    1.14848
 12 C     1.50603   -1.17693    0.21220
 13 C     0.24837   -0.23827    0.59187
 14 C    -1.67123   -2.03266    1.49564
 15 C     1.78089    1.21331    2.41343
 16 C    -3.13817    1.32766    1.93928
 17 C     0.50360    0.77195   -0.73821
 18 C    -2.59119   -2.55321   -1.43013
 19 C    -0.03582   -0.47801   -0.77950
 20 C     0.98870    0.73553    2.48707
 21 C     3.76586    0.26929   -2.52584
 22 C    -3.44047    0.29401    2.28531
 23 C     1.24298    5.79211    2.51247

System changes: positions 

Initializing position-dependent things.

Density initialized from wave functions
           .--------------------------------------.  
          /|                                      |  
         / |                                      |  
        /  |                                      |  
       /   |                                      |  
      /    |                                      |  
     /     |                                      |  
    /      |                                      |  
   /       |                                      |  
  /        |       C C    C      C                |  
 *         |     C            C  C                |  
 |         |  C   C   C     C C                   |  
 |         .-C------C----C--C--C-C----------------.  
 |        /      C     C  C                      /   
 |       /        C C                           /    
 |      /                                      /     
 |     /                                      /      
 |    /                                      /       
 |   /                                      /        
 |  /                                      /         
 | /                                      /          
 |/                                      /           
 *--------------------------------------*            

Positions:
   0 C      9.505792    6.327394    5.596326
   1 C      7.586594    5.674105    4.697779
   2 C      6.171414    3.783794    4.284100
   3 C      7.788666   10.362159    5.034446
   4 C      4.882344    8.223333    5.170892
   5 C      6.333566    8.211678    4.861392
   6 C      3.616492    6.145663    5.717676
   7 C      5.505388   11.210377    5.381086
   8 C      9.894720    8.419880    5.150033
   9 C      8.256144    6.878814    5.122004
  10 C      4.136705    9.325649    4.774615
  11 C      9.217506    9.891911    4.999779
  12 C      7.038023    3.250697    5.159337
  13 C      3.300668    6.750652    4.574097
  14 C      5.818821    6.988313    4.802742
  15 C     11.089549    8.289347    5.737367
  16 C      5.332559    4.293820    5.110685
  17 C     11.496686    6.351801    5.421125
  18 C      9.153378    4.010192    5.084675
  19 C     10.425944   10.402917    5.487756
  20 C      9.870611    4.969684    5.491783
  21 C     10.407492    7.061820    4.828454
  22 C      6.819419    6.286667    5.567000
  23 C      4.638511   10.226392    5.558132

Unit cell:
           periodic     x           y           z      points  spacing
  1. axis:    yes   16.000000    0.000000    0.000000    80     0.2000
  2. axis:    yes    0.000000   16.000000    0.000000    80     0.2000
  3. axis:    yes    0.000000    0.000000   10.000000    48     0.2083

Effective grid spacing dv^(1/3) = 0.2027

                     log10-error:    total        iterations:
           time      wfs    density  energy       fermi  poisson
iter:   1  14:14:21          +inf  -142.586980    3      5      
iter:   2  14:14:22         -1.81  -142.502199    3      2      
iter:   3  14:14:22         -1.98  -142.456188    2      2      
iter:   4  14:14:23         -2.12  -142.448391    3      2      
iter:   5  14:14:23         -2.19  -142.438987    2      2      
iter:   6  14:14:24         -2.33  -142.432852    2      2      
iter:   7  14:14:24         -2.45  -142.431497    2      2      
iter:   8  14:14:25         -2.69  -142.430273    2      1      
iter:   9  14:14:25         -2.78  -142.430619    2      2      
iter:  10  14:14:26         -3.02  -142.430433    2      1      
iter:  11  14:14:26         -3.18  -142.430508    2      1      
iter:  12  14:14:27         -3.29  -142.430616    2      1      
iter:  13  14:14:27         -3.42  -142.430790    2      1      
iter:  14  14:14:28         -3.53  -142.431074    2      1      
iter:  15  14:14:28         -3.71  -142.430826    2      1      
iter:  16  14:14:29         -3.87  -142.430722    2      1      
iter:  17  14:14:29         -4.06  -142.430783    2      1      

Converged after 17 iterations.

Dipole moment: (0.474911, 0.239251, -0.269985) |e|*Ang

Energy contributions relative to reference atoms: (reference = -24663.074771)

Kinetic:       +135.735964
Potential:     -129.258097
External:        +0.000000
XC:            -151.386432
Entropy (-ST):   -0.449967
Local:           +2.702766
--------------------------
Free energy:   -142.655766
Extrapolated:  -142.430783

Fermi level: -5.02948

 Band  Eigenvalues  Occupancy
    0    -25.20553    2.00000
    1    -24.57616    2.00000
    2    -23.17269    2.00000
    3    -21.78333    2.00000
    4    -21.48178    2.00000
    5    -21.18873    2.00000
    6    -20.28058    2.00000
    7    -18.51864    2.00000
    8    -18.25791    2.00000
    9    -17.96958    2.00000
   10    -17.46022    2.00000
   11    -16.50761    2.00000
   12    -15.94354    2.00000
   13    -14.92282    2.00000
   14    -14.18364    2.00000
   15    -13.97643    2.00000
   16    -13.33272    2.00000
   17    -12.80262    2.00000
   18    -12.49853    2.00000
   19    -12.08789    2.00000
   20    -11.77104    2.00000
   21    -11.36027    2.00000
   22    -11.07920    2.00000
   23    -10.22910    2.00000
   24     -9.80049    2.00000
   25     -9.48267    2.00000
   26     -9.30668    2.00000
   27     -9.13400    2.00000
   28     -8.95857    2.00000
   29     -8.76435    2.00000
   30     -8.67544    2.00000
   31     -8.32343    2.00000
   32     -8.23118    2.00000
   33     -8.15847    2.00000
   34     -7.78853    2.00000
   35     -7.67282    2.00000
   36     -7.41162    2.00000
   37     -7.17122    2.00000
   38     -6.81523    2.00000
   39     -6.65326    2.00000
   40     -6.41380    2.00000
   41     -6.08218    1.99995
   42     -6.02156    1.99990
   43     -5.94709    1.99979
   44     -5.55296    1.98940
   45     -5.46324    1.97420
   46     -5.19489    1.67889
   47     -5.10377    1.35525
   48     -4.98420    0.77742
   49     -4.80540    0.19230
   50     -4.59993    0.02689
   51     -4.44716    0.00590
   52     -4.03635    0.00010
   53     -3.71131    0.00000
   54     -3.44073    0.00000
   55     -3.30904    0.00000
   56     -3.24668    0.00000
   57     -2.98214    0.00000
   58     -2.81265    0.00000
   59     -2.55272    0.00000
   60     -2.18583    0.00000
   61     -1.88468    0.00000
   62     -1.36013    0.00000
   63     -1.22199    0.00000
   64     -0.81931    0.00000
   65     -0.68074    0.00000
   66     -0.38414    0.00000
   67      0.18060    0.00000
   68      0.36333    0.00000
   69      0.63656    0.00000
   70      0.71408    0.00000
   71      0.97052    0.00000
   72      1.82027    0.00000
   73      2.22209    0.00000
   74      2.88255    0.00000
   75      2.96595    0.00000
   76      4.40080    0.00000
   77      5.23936    0.00000
   78      5.79318    0.00000
   79      6.07752    0.00000
   80      6.42570    0.00000
   81      6.69045    0.00000
   82      6.85516    0.00000
   83      7.10660    0.00000
   84      7.54944    0.00000
   85      7.71713    0.00000
   86      7.98557    0.00000
   87      8.11384    0.00000
   88      8.51106    0.00000
   89      8.55302    0.00000
   90      8.57366    0.00000
   91      8.81210    0.00000
   92      8.89631    0.00000
   93      8.98902    0.00000
   94      9.18960    0.00000
   95      9.27551    0.00000
   96      9.32364    0.00000
   97      9.48986    0.00000


Forces in eV/Ang:
  0 C    -2.15108   -2.83835   -0.75797
  1 C     3.54095   -1.41361   -2.66195
  2 C     0.99161   -1.66064   -1.16066
  3 C     1.61900   -1.78775   -0.83272
  4 C     0.69713   -0.82227   -1.66263
  5 C    -0.17005    4.18166   -0.95769
  6 C     0.13406   -0.23286   -0.53970
  7 C     0.69461    1.15290    0.70396
  8 C    -0.52903    5.21926   -0.64795
  9 C    -0.43246   -0.83811    2.06610
 10 C    -0.71077   -3.44238   -0.68492
 11 C    -1.91717   -0.95877    1.04060
 12 C     1.44535   -1.04435    0.06524
 13 C     0.13592   -0.20276    0.41533
 14 C    -1.32557   -0.96979    1.59888
 15 C     1.27251    1.06219    2.16992
 16 C    -2.52369    1.08105    1.45712
 17 C     0.55345    0.84293   -0.59534
 18 C    -2.42094   -2.04382   -1.31402
 19 C    -0.01850   -0.52725   -0.82327
 20 C     0.71906    0.47422    2.19891
 21 C     2.71712    0.42649   -2.01437
 22 C    -2.67186   -0.21910    1.47112
 23 C     0.36617    4.47072    1.46491

System changes: positions 

Initializing position-dependent things.

Density initialized from wave functions
           .--------------------------------------.  
          /|                                      |  
         / |                                      |  
        /  |                                      |  
       /   |                                      |  
      /    |                                      |  
     /     |                                      |  
    /      |                                      |  
   /       |                                      |  
  /        |       C C           C                |  
 *         |     C        C   C  C                |  
 |         |  C   C   C     C C                   |  
 |         .-C------C----C--C--C-C----------------.  
 |        /      C     C  C                      /   
 |       /        C C                           /    
 |      /                                      /     
 |     /                                      /      
 |    /                                      /       
 |   /                                      /        
 |  /                                      /         
 | /                                      /          
 |/                                      /           
 *--------------------------------------*            

Positions:
   0 C      9.498731    6.312291    5.576568
   1 C      7.611708    5.673903    4.687022
   2 C      6.170617    3.771584    4.289348
   3 C      7.802963   10.342159    5.025238
   4 C      4.892646    8.212120    5.153633
   5 C      6.324526    8.237233    4.847235
   6 C      3.618064    6.140935    5.713527
   7 C      5.512905   11.225306    5.388178
   8 C      9.903853    8.458557    5.145485
   9 C      8.249097    6.870743    5.144025
  10 C      4.142193    9.306274    4.790205
  11 C      9.202345    9.881071    5.011742
  12 C      7.051252    3.241429    5.157046
  13 C      3.301082    6.749069    4.576343
  14 C      5.812870    6.997586    4.824245
  15 C     11.090301    8.297498    5.756056
  16 C      5.319826    4.297578    5.112172
  17 C     11.503975    6.361217    5.415909
  18 C      9.136311    4.003606    5.073899
  19 C     10.424307   10.395920    5.477361
  20 C      9.868213    4.958530    5.510835
  21 C     10.419920    7.072847    4.823336
  22 C      6.804499    6.268841    5.562912
  23 C      4.625401   10.259407    5.551078

Unit cell:
           periodic     x           y           z      points  spacing
  1. axis:    yes   16.000000    0.000000    0.000000    80     0.2000
  2. axis:    yes    0.000000   16.000000    0.000000    80     0.2000
  3. axis:    yes    0.000000    0.000000   10.000000    48     0.2083

Effective grid spacing dv^(1/3) = 0.2027

                     log10-error:    total        iterations:
           time      wfs    density  energy       fermi  poisson
iter:   1  14:14:31          +inf  -143.808847    3      5      
iter:   2  14:14:31         -1.82  -143.730949    3      2      
iter:   3  14:14:32         -2.01  -143.692904    2      2      
iter:   4  14:14:32         -2.14  -143.683979    3      2      
iter:   5  14:14:33         -2.22  -143.675662    3      2      
iter:   6  14:14:33         -2.37  -143.670464    2      2      
iter:   7  14:14:34         -2.48  -143.669432    2      2      
iter:   8  14:14:35         -2.72  -143.668512    2      1      
iter:   9  14:14:35         -2.82  -143.668260    2      2      
iter:  10  14:14:36         -3.09  -143.668404    2      1      
iter:  11  14:14:36         -3.22  -143.668475    2      1      
iter:  12  14:14:37         -3.33  -143.668515    2      1      
iter:  13  14:14:37         -3.47  -143.668491    2      1      
iter:  14  14:14:37         -3.56  -143.668601    2      1      
iter:  15  14:14:38         -3.77  -143.668467    2      1      
iter:  16  14:14:38         -4.00  -143.668406    2      1      
iter:  17  14:14:39         -4.14  -143.668428    2      1      

Converged after 17 iterations.

Dipole moment: (0.532225, 0.167437, -0.267451) |e|*Ang

Energy contributions relative to reference atoms: (reference = -24663.074771)

Kinetic:       +129.672858
Potential:     -125.056887
External:        +0.000000
XC:            -150.772374
Entropy (-ST):   -0.430322
Local:           +2.703136
--------------------------
Free energy:   -143.883589
Extrapolated:  -143.668428

Fermi level: -5.02332

 Band  Eigenvalues  Occupancy
    0    -25.06546    2.00000
    1    -24.50683    2.00000
    2    -23.21349    2.00000
    3    -21.88159    2.00000
    4    -21.33455    2.00000
    5    -21.02577    2.00000
    6    -20.33636    2.00000
    7    -18.53422    2.00000
    8    -18.26381    2.00000
    9    -17.95767    2.00000
   10    -17.41007    2.00000
   11    -16.70043    2.00000
   12    -15.96065    2.00000
   13    -14.97864    2.00000
   14    -14.21467    2.00000
   15    -13.91309    2.00000
   16    -13.49210    2.00000
   17    -12.86435    2.00000
   18    -12.57966    2.00000
   19    -12.05393    2.00000
   20    -11.75738    2.00000
   21    -11.41072    2.00000
   22    -11.12565    2.00000
   23    -10.21489    2.00000
   24     -9.80206    2.00000
   25     -9.46014    2.00000
   26     -9.27137    2.00000
   27     -9.09233    2.00000
   28     -9.05784    2.00000
   29     -8.72417    2.00000
   30     -8.69430    2.00000
   31     -8.33109    2.00000
   32     -8.23466    2.00000
   33     -8.09549    2.00000
   34     -7.79453    2.00000
   35     -7.62181    2.00000
   36     -7.46127    2.00000
   37     -7.15562    2.00000
   38     -6.82670    2.00000
   39     -6.66840    2.00000
   40     -6.48084    2.00000
   41     -6.12930    1.99997
   42     -6.01264    1.99990
   43     -5.89081    1.99966
   44     -5.59252    1.99328
   45     -5.47727    1.97887
   46     -5.18867    1.67874
   47     -5.10767    1.39839
   48     -4.97792    0.77681
   49     -4.76447    0.13977
   50     -4.60524    0.03011
   51     -4.41070    0.00436
   52     -4.07765    0.00016
   53     -3.65574    0.00000
   54     -3.39090    0.00000
   55     -3.27946    0.00000
   56     -3.20846    0.00000
   57     -2.98175    0.00000
   58     -2.79432    0.00000
   59     -2.43632    0.00000
   60     -2.12210    0.00000
   61     -1.91310    0.00000
   62     -1.40260    0.00000
   63     -1.36831    0.00000
   64     -0.86903    0.00000
   65     -0.46813    0.00000
   66     -0.36645    0.00000
   67      0.18720    0.00000
   68      0.31192    0.00000
   69      0.55995    0.00000
   70      0.75774    0.00000
   71      1.00451    0.00000
   72      1.78384    0.00000
   73      2.23069    0.00000
   74      2.79885    0.00000
   75      2.87806    0.00000
   76      4.45182    0.00000
   77      5.43985    0.00000
   78      5.79489    0.00000
   79      6.13046    0.00000
   80      6.56667    0.00000
   81      6.74300    0.00000
   82      6.91715    0.00000
   83      7.19342    0.00000
   84      7.63225    0.00000
   85      7.72177    0.00000
   86      8.06973    0.00000
   87      8.17837    0.00000
   88      8.51225    0.00000
   89      8.57435    0.00000
   90      8.62963    0.00000
   91      8.82216    0.00000
   92      8.89448    0.00000
   93      8.98542    0.00000
   94      9.24174    0.00000
   95      9.28070    0.00000
[...]
External:        +0.000000
XC:            -172.712863
Entropy (-ST):   -0.224571
Local:           +3.071492
--------------------------
Free energy:   -181.360925
Extrapolated:  -181.248639

Fermi level: -4.42124

 Band  Eigenvalues  Occupancy
    0    -22.24443    2.00000
    1    -21.08729    2.00000
    2    -20.68440    2.00000
    3    -20.43915    2.00000
    4    -20.02741    2.00000
    5    -19.86866    2.00000
    6    -19.44929    2.00000
    7    -19.17085    2.00000
    8    -18.77594    2.00000
    9    -18.18051    2.00000
   10    -17.63571    2.00000
   11    -17.43736    2.00000
   12    -17.11232    2.00000
   13    -16.14333    2.00000
   14    -15.71829    2.00000
   15    -15.53396    2.00000
   16    -14.96865    2.00000
   17    -14.19524    2.00000
   18    -13.83387    2.00000
   19    -13.37555    2.00000
   20    -12.99216    2.00000
   21    -12.46184    2.00000
   22    -12.28513    2.00000
   23    -12.15217    2.00000
   24    -11.14402    2.00000
   25    -10.94108    2.00000
   26    -10.23007    2.00000
   27     -9.38020    2.00000
   28     -9.13055    2.00000
   29     -9.11144    2.00000
   30     -8.75463    2.00000
   31     -8.46199    2.00000
   32     -8.33630    2.00000
   33     -8.20122    2.00000
   34     -8.12736    2.00000
   35     -8.06400    2.00000
   36     -7.39591    2.00000
   37     -7.15222    2.00000
   38     -7.03632    2.00000
   39     -6.77820    2.00000
   40     -6.61399    2.00000
   41     -6.31564    2.00000
   42     -6.19881    2.00000
   43     -5.73123    2.00000
   44     -5.63929    1.99999
   45     -5.23480    1.99941
   46     -5.16606    1.99884
   47     -4.56305    1.61009
   48     -4.23847    0.27703
   49     -4.14123    0.11464
   50     -3.15225    0.00001
   51     -2.88385    0.00000
   52     -2.72881    0.00000
   53     -2.48346    0.00000
   54     -1.63218    0.00000
   55     -1.20688    0.00000
   56     -1.08677    0.00000
   57     -0.92175    0.00000
   58     -0.60952    0.00000
   59     -0.50178    0.00000
   60      0.35513    0.00000
   61      0.46756    0.00000
   62      1.30384    0.00000
   63      1.53948    0.00000
   64      1.57115    0.00000
   65      2.54047    0.00000
   66      3.16107    0.00000
   67      4.16492    0.00000
   68      4.53361    0.00000
   69      5.17461    0.00000
   70      5.33346    0.00000
   71      5.55981    0.00000
   72      5.69487    0.00000
   73      5.92147    0.00000
   74      6.27071    0.00000
   75      6.69166    0.00000
   76      7.08320    0.00000
   77      7.79683    0.00000
   78      7.98795    0.00000
   79      8.04261    0.00000
   80      8.27197    0.00000
   81      8.61847    0.00000
   82      8.70505    0.00000
   83      8.94820    0.00000
   84      8.99852    0.00000
   85      9.07257    0.00000
   86      9.24374    0.00000
   87      9.37951    0.00000
   88      9.51844    0.00000
   89      9.58911    0.00000
   90      9.69833    0.00000
   91      9.82423    0.00000
   92      9.92873    0.00000
   93     10.00784    0.00000
   94     10.16522    0.00000
   95     10.25926    0.00000
   96     10.26176    0.00000
   97     10.30209    0.00000


Forces in eV/Ang:
  0 C     0.05356    0.05200    0.00422
  1 C    -0.00894   -0.04890   -0.02397
  2 C    -0.04338    0.01437   -0.00699
  3 C    -0.00755   -0.01394    0.00488
  4 C     0.03610   -0.01999   -0.00782
  5 C     0.00078   -0.01282   -0.02229
  6 C     0.03873   -0.03788   -0.02886
  7 C    -0.05384    0.18906    0.01896
  8 C     0.02514    0.03892   -0.00791
  9 C    -0.01697    0.04891    0.04935
 10 C    -0.03693   -0.04349    0.02884
 11 C    -0.01995   -0.03633   -0.00890
 12 C     0.05833   -0.07028    0.05416
 13 C    -0.09125    0.01836    0.03609
 14 C    -0.03394    0.00343    0.00791
 15 C    -0.01323   -0.00940    0.01739
 16 C    -0.01536    0.04355   -0.03168
 17 C     0.01946   -0.02356   -0.00683
 18 C    -0.02133   -0.01850   -0.03605
 19 C     0.06556    0.00140   -0.01345
 20 C     0.02463    0.01857   -0.00017
 21 C     0.00179    0.00837   -0.00167
 22 C    -0.05111   -0.02121   -0.02057
 23 C     0.03512   -0.08410    0.03132

System changes: positions 

Initializing position-dependent things.

Density initialized from wave functions
           .--------------------------------------.  
          /|                                      |  
         / |                                      |  
        /  |                                      |  
       /   |                                      |  
      /    |                                      |  
     /     |                                      |  
    /      |                                      |  
   /       |                                      |  
  /        |    C         C   C  C                |  
 *         |     C     C           C              |  
 |         |  C  C  C               C             |  
 |         .---C-----C--C---------C---------------.  
 |        /       C       C  C  C                /   
 |       /        C C     C                     /    
 |      /              C                       /     
 |     /                                      /      
 |    /                                      /       
 |   /                                      /        
 |  /                                      /         
 | /                                      /          
 |/                                      /           
 *--------------------------------------*            

Positions:
   0 C     10.056217    4.946536    4.618761
   1 C      9.521199    3.650089    4.422401
   2 C      6.059371    4.197314    4.684045
   3 C      7.974890    9.619844    5.569431
   4 C      4.504470    8.260554    5.252599
   5 C      6.902326    8.981159    5.434294
   6 C      4.159774    5.918830    5.013073
   7 C      3.023723   11.954166    5.022963
   8 C     11.593972    9.009354    5.453833
   9 C      7.803932    6.305681    4.964356
  10 C      4.053994    9.554863    5.243272
  11 C      9.269072    9.998639    5.649892
  12 C      7.041086    3.416073    4.490793
  13 C      3.701487    7.083235    5.155041
  14 C      5.948604    7.949090    5.267981
  15 C     12.166429    7.902733    5.203428
  16 C      5.482825    5.438925    4.920596
  17 C     11.956663    6.603548    4.907508
  18 C      8.349721    3.143848    4.392490
  19 C     10.518253    9.796429    5.624223
  20 C      8.941094    5.820859    4.809649
  21 C     11.350901    5.514036    4.692961
  22 C      6.426358    6.607635    5.076918
  23 C      3.564978   10.749003    5.175551

Unit cell:
           periodic     x           y           z      points  spacing
  1. axis:    yes   16.000000    0.000000    0.000000    80     0.2000
  2. axis:    yes    0.000000   16.000000    0.000000    80     0.2000
  3. axis:    yes    0.000000    0.000000   10.000000    48     0.2083

Effective grid spacing dv^(1/3) = 0.2027

                     log10-error:    total        iterations:
           time      wfs    density  energy       fermi  poisson
iter:   1  14:47:09          +inf  -181.243236    3      5      
iter:   2  14:47:09         -2.16  -181.247185    3      2      
iter:   3  14:47:10         -3.24  -181.247777    2      1      
iter:   4  14:47:10         -3.29  -181.248724    2      1      
iter:   5  14:47:11         -3.49  -181.250454    2      1      
iter:   6  14:47:11         -3.45  -181.248381    2      1      
iter:   7  14:47:12         -3.66  -181.245421    2      1      
iter:   8  14:47:12         -3.40  -181.248078    2      1      
iter:   9  14:47:12         -3.88  -181.247225    2      1      
iter:  10  14:47:13         -4.15  -181.246554    2      1      

Converged after 10 iterations.

Dipole moment: (0.236938, -0.472099, 0.051881) |e|*Ang

Energy contributions relative to reference atoms: (reference = -24663.074771)

Kinetic:       +104.445189
Potential:     -116.026546
External:        +0.000000
XC:            -172.602810
Entropy (-ST):   -0.229945
Local:           +3.052585
--------------------------
Free energy:   -181.361527
Extrapolated:  -181.246554

Fermi level: -4.42294

 Band  Eigenvalues  Occupancy
    0    -22.24619    2.00000
    1    -21.08317    2.00000
    2    -20.68516    2.00000
    3    -20.43613    2.00000
    4    -20.02429    2.00000
    5    -19.86489    2.00000
    6    -19.44780    2.00000
    7    -19.17039    2.00000
    8    -18.77071    2.00000
    9    -18.17830    2.00000
   10    -17.63418    2.00000
   11    -17.43306    2.00000
   12    -17.11176    2.00000
   13    -16.14267    2.00000
   14    -15.71630    2.00000
   15    -15.53249    2.00000
   16    -14.96643    2.00000
   17    -14.19068    2.00000
   18    -13.83256    2.00000
   19    -13.37346    2.00000
   20    -12.99024    2.00000
   21    -12.46158    2.00000
   22    -12.28297    2.00000
   23    -12.14977    2.00000
   24    -11.14168    2.00000
   25    -10.94182    2.00000
   26    -10.23172    2.00000
   27     -9.37678    2.00000
   28     -9.12741    2.00000
   29     -9.10776    2.00000
   30     -8.75468    2.00000
   31     -8.45830    2.00000
   32     -8.33307    2.00000
   33     -8.19813    2.00000
   34     -8.12347    2.00000
   35     -8.06719    2.00000
   36     -7.39500    2.00000
   37     -7.15159    2.00000
   38     -7.03244    2.00000
   39     -6.77579    2.00000
   40     -6.61279    2.00000
   41     -6.32736    2.00000
   42     -6.19899    2.00000
   43     -5.72647    2.00000
   44     -5.63880    1.99999
   45     -5.23116    1.99938
   46     -5.16397    1.99879
   47     -4.55980    1.59430
   48     -4.24562    0.29027
   49     -4.14533    0.11726
   50     -3.15751    0.00001
   51     -2.88448    0.00000
   52     -2.72289    0.00000
   53     -2.48620    0.00000
   54     -1.63197    0.00000
   55     -1.20563    0.00000
   56     -1.08178    0.00000
   57     -0.92159    0.00000
   58     -0.62757    0.00000
   59     -0.50418    0.00000
   60      0.34880    0.00000
   61      0.47226    0.00000
   62      1.29927    0.00000
   63      1.53131    0.00000
   64      1.55535    0.00000
   65      2.53408    0.00000
   66      3.14712    0.00000
   67      4.16619    0.00000
   68      4.53131    0.00000
   69      5.17551    0.00000
   70      5.32397    0.00000
   71      5.55338    0.00000
   72      5.68699    0.00000
   73      5.92289    0.00000
   74      6.26789    0.00000
   75      6.69370    0.00000
   76      7.07955    0.00000
   77      7.79163    0.00000
   78      7.99194    0.00000
   79      8.03538    0.00000
   80      8.27715    0.00000
   81      8.62092    0.00000
   82      8.70551    0.00000
   83      8.95079    0.00000
   84      9.00121    0.00000
   85      9.07068    0.00000
   86      9.23764    0.00000
   87      9.37995    0.00000
   88      9.51984    0.00000
   89      9.59106    0.00000
   90      9.68496    0.00000
   91      9.81212    0.00000
   92      9.93369    0.00000
   93     10.00646    0.00000
   94     10.16614    0.00000
   95     10.25793    0.00000
   96     10.26664    0.00000
   97     10.30051    0.00000


Forces in eV/Ang:
  0 C     0.05324    0.03567    0.00536
  1 C    -0.05521   -0.06380   -0.03516
  2 C    -0.03641    0.02341    0.00063
  3 C    -0.02606   -0.04781    0.00643
  4 C    -0.00401   -0.03517    0.00035
  5 C     0.04527    0.00199   -0.02331
  6 C     0.02822   -0.00433   -0.00682
  7 C    -0.03553    0.12799    0.01425
  8 C     0.05821   -0.00998   -0.01684
  9 C    -0.04047    0.04581    0.04670
 10 C    -0.05641    0.01439    0.02559
 11 C    -0.04785   -0.02962    0.00818
 12 C     0.05511   -0.04116    0.05024
 13 C    -0.01993   -0.03057    0.02123
 14 C     0.02856   -0.02988   -0.00939
 15 C    -0.03884    0.01184    0.00825
 16 C    -0.00805   -0.00098   -0.03866
 17 C    -0.01445   -0.04152   -0.01459
 18 C     0.02109   -0.00027   -0.02526
 19 C     0.04508    0.02124   -0.00826
 20 C     0.01786    0.02680    0.02426
 21 C     0.03551    0.00931    0.03130
 22 C    -0.03669    0.02222   -0.02444
 23 C     0.02953   -0.10007   -0.01410

System changes: positions 

Initializing position-dependent things.

Density initialized from wave functions
           .--------------------------------------.  
          /|                                      |  
         / |                                      |  
        /  |                                      |  
       /   |                                      |  
      /    |                                      |  
     /     |                                      |  
    /      |                                      |  
   /       |    C                                 |  
  /        |    C         C   C  C                |  
 *         |     C     C           C              |  
 |         |  C  C  C               C             |  
 |         .---C-----C--C---------C---------------.  
 |        /       C       C  C  C                /   
 |       /        C C     C                     /    
 |      /              C                       /     
 |     /                                      /      
 |    /                                      /       
 |   /                                      /        
 |  /                                      /         
 | /                                      /          
 |/                                      /           
 *--------------------------------------*            

Positions:
   0 C     10.056441    4.945694    4.619791
   1 C      9.520816    3.647699    4.424035
   2 C      6.059016    4.196681    4.682773
   3 C      7.976175    9.619483    5.572758
   4 C      4.505634    8.260299    5.251921
   5 C      6.904215    8.980043    5.435828
   6 C      4.160047    5.918758    5.014196
   7 C      3.023826   11.955746    5.024513
   8 C     11.593640    9.011697    5.452197
   9 C      7.804192    6.305257    4.965145
  10 C      4.054090    9.554636    5.242533
  11 C      9.270143    9.999101    5.652306
  12 C      7.040947    3.414764    4.491503
  13 C      3.702096    7.083326    5.155355
  14 C      5.949814    7.948779    5.267782
  15 C     12.162129    7.903492    5.201614
  16 C      5.482703    5.438984    4.919105
  17 C     11.954197    6.603708    4.906998
  18 C      8.349783    3.141796    4.391366
  19 C     10.520340    9.802169    5.624984
  20 C      8.941237    5.819386    4.811950
  21 C     11.350773    5.512892    4.693819
  22 C      6.426266    6.607469    5.075716
  23 C      3.563675   10.747788    5.172919

Unit cell:
           periodic     x           y           z      points  spacing
  1. axis:    yes   16.000000    0.000000    0.000000    80     0.2000
  2. axis:    yes    0.000000   16.000000    0.000000    80     0.2000
  3. axis:    yes    0.000000    0.000000   10.000000    48     0.2083

Effective grid spacing dv^(1/3) = 0.2027

                     log10-error:    total        iterations:
           time      wfs    density  energy       fermi  poisson
iter:   1  14:47:14          +inf  -181.252631    3      4      
iter:   2  14:47:15         -3.01  -181.248490    3      1      
iter:   3  14:47:15         -3.39  -181.247187    2      1      
iter:   4  14:47:16         -3.53  -181.249725    2      1      
iter:   5  14:47:16         -3.47  -181.244504    3      1      
iter:   6  14:47:17         -3.13  -181.245937    2      1      
iter:   7  14:47:17         -3.46  -181.250772    3      1      
iter:   8  14:47:18         -3.23  -181.247666    2      1      
iter:   9  14:47:18         -4.44  -181.247207    2      1      

Converged after 9 iterations.

Dipole moment: (0.233609, -0.469920, 0.050935) |e|*Ang

Energy contributions relative to reference atoms: (reference = -24663.074771)

Kinetic:       +104.244006
Potential:     -115.873525
External:        +0.000000
XC:            -172.558681
Entropy (-ST):   -0.230618
Local:           +3.056302
--------------------------
Free energy:   -181.362516
Extrapolated:  -181.247207

Fermi level: -4.42187

 Band  Eigenvalues  Occupancy
    0    -22.24613    2.00000
    1    -21.07914    2.00000
    2    -20.68248    2.00000
    3    -20.43432    2.00000
    4    -20.02375    2.00000
    5    -19.86351    2.00000
    6    -19.44570    2.00000
    7    -19.16757    2.00000
    8    -18.77123    2.00000
    9    -18.17575    2.00000
   10    -17.63400    2.00000
   11    -17.43009    2.00000
   12    -17.10953    2.00000
   13    -16.13969    2.00000
   14    -15.71559    2.00000
   15    -15.53041    2.00000
   16    -14.96497    2.00000
   17    -14.19122    2.00000
   18    -13.83177    2.00000
   19    -13.36990    2.00000
   20    -12.98910    2.00000
   21    -12.46051    2.00000
   22    -12.28104    2.00000
   23    -12.14731    2.00000
   24    -11.14376    2.00000
   25    -10.93904    2.00000
   26    -10.23091    2.00000
   27     -9.37405    2.00000
   28     -9.12587    2.00000
   29     -9.10633    2.00000
   30     -8.75283    2.00000
   31     -8.45635    2.00000
   32     -8.33221    2.00000
   33     -8.19724    2.00000
   34     -8.12202    2.00000
   35     -8.06434    2.00000
   36     -7.39328    2.00000
   37     -7.15034    2.00000
   38     -7.03346    2.00000
   39     -6.77562    2.00000
   40     -6.61408    2.00000
   41     -6.33375    2.00000
   42     -6.19729    2.00000
   43     -5.72713    2.00000
   44     -5.63789    1.99999
   45     -5.23089    1.99939
   46     -5.16336    1.99880
   47     -4.55819    1.59256
   48     -4.24468    0.29062
   49     -4.14550    0.11864
   50     -3.15843    0.00001
   51     -2.88074    0.00000
   52     -2.72155    0.00000
   53     -2.48639    0.00000
   54     -1.63124    0.00000
   55     -1.20729    0.00000
   56     -1.08959    0.00000
   57     -0.92979    0.00000
   58     -0.61703    0.00000
   59     -0.50496    0.00000
   60      0.35187    0.00000
   61      0.47286    0.00000
   62      1.29768    0.00000
   63      1.52646    0.00000
   64      1.55413    0.00000
   65      2.53549    0.00000
   66      3.14693    0.00000
   67      4.16180    0.00000
   68      4.52883    0.00000
   69      5.17734    0.00000
   70      5.31986    0.00000
   71      5.54966    0.00000
   72      5.68275    0.00000
   73      5.92103    0.00000
   74      6.26377    0.00000
   75      6.69307    0.00000
   76      7.07892    0.00000
   77      7.78313    0.00000
   78      7.98406    0.00000
   79      8.03288    0.00000
   80      8.28018    0.00000
   81      8.62055    0.00000
   82      8.70334    0.00000
   83      8.95259    0.00000
   84      9.00258    0.00000
   85      9.07543    0.00000
   86      9.24072    0.00000
   87      9.38039    0.00000
   88      9.51674    0.00000
   89      9.59216    0.00000
   90      9.69637    0.00000
   91      9.81231    0.00000
   92      9.93082    0.00000
   93     10.00258    0.00000
   94     10.16703    0.00000
   95     10.25773    0.00000
   96     10.26240    0.00000
   97     10.30089    0.00000


Forces in eV/Ang:
  0 C     0.02194   -0.01843    0.00505
  1 C    -0.01316   -0.00956   -0.03312
  2 C    -0.01571    0.01522    0.00274
  3 C    -0.02602   -0.04860   -0.00613
  4 C    -0.00922   -0.02350    0.01139
  5 C     0.04579   -0.00319   -0.01856
  6 C     0.02414   -0.00662   -0.01579
  7 C    -0.00530    0.05859    0.04105
  8 C     0.04706    0.00703   -0.01296
  9 C    -0.03887    0.03648    0.04051
 10 C    -0.04729   -0.00445    0.01781
 11 C    -0.04053   -0.02419    0.00652
 12 C     0.04478   -0.02178    0.04318
 13 C    -0.01576   -0.02167    0.01958
 14 C     0.00606   -0.01531   -0.00797
 15 C    -0.02893   -0.01270    0.00174
 16 C     0.00318   -0.01410   -0.03307
 17 C     0.00161   -0.00365   -0.00871
 18 C    -0.01559   -0.00284   -0.01725
 19 C     0.01916    0.00187   -0.01169
 20 C     0.00817    0.03211    0.01550
 21 C     0.03063   -0.00673    0.02849
 22 C    -0.01260    0.00509   -0.02183
 23 C    -0.01350   -0.01788   -0.01532

