
  ___ ___ ___ _ _ _  
 |   |   |_  | | | | 
 | | | | | . | | | | 
 |__ |  _|___|_____|  1.3.0b1
 |___|_|             

User:   esb@s66n13.grendel.cscaa.dk
Date:   Thu Nov  9 10:12:39 2017
Arch:   x86_64
Pid:    90818
Python: 2.7.13
gpaw:   /home/esb/DFT/gpaw_git/gpaw
_gpaw:  /home/esb/DFT/gpaw_git/build/bin.linux-x86_64-2.7/gpaw-python
ase:    /home/esb/DFT/ase_git/ase (version 3.15.0b1)
numpy:  /comm/swstack/core/python/2.7.13/lib/python2.7/site-packages/numpy (version 1.13.3)
scipy:  /comm/swstack/core/python/2.7.13/lib/python2.7/site-packages/scipy (version 0.19.1)
units:  Angstrom and eV
cores:  16
Extra parameters: {'blacs': True}

Input parameters:
  basis: dzp
  gpts: [80 80 48]
  kpts: [1 1 1]
  maxiter: 99
  mixer: {backend: pulay,
          beta: 0.05,
          method: separate,
          nmaxold: 5,
          weight: 75}
  mode: lcao
  nbands: -50
  occupations: {name: fermi-dirac,
                width: 0.1}
  poissonsolver: {eps: 1e-07,
                  name: fd,
                  nn: 3,
                  relax: GS}
  xc: PBE

System changes: positions, numbers, cell, pbc, initial_charges, initial_magmoms 

Initialize ...

C-setup:
  name: Carbon
  id: 4aa54d4b901d75f77cc0ea3eec22967b
  Z: 6
  valence: 4
  core: 2
  charge: 0.0
  file: /home/esb/DFT/gpaw-setups-0.8.7929/C.PBE.gz
  cutoffs: 0.64(comp), 1.14(filt), 1.14(core), lmax=2
  valence states:
                energy  radius
    2s(2.00)   -13.751   0.635
    2p(2.00)    -5.284   0.635
    *s          13.461   0.635
    *p          21.927   0.635
    *d           0.000   0.635

  LCAO basis set for C:
    Name: dzp
    File: /home/esb/DFT/gpaw-setups-0.8.7929/C.dzp.basis.gz
    Number of radial functions: 5
    Number of spherical harmonics: 13
      l=0, rc=5.5469 Bohr: 2s-sz confined orbital
      l=1, rc=6.6719 Bohr: 2p-sz confined orbital
      l=0, rc=3.0312 Bohr: 2s-dz split-valence wave
      l=1, rc=3.7500 Bohr: 2p-dz split-valence wave
      l=2, rc=6.6719 Bohr: d-type Gaussian polarization

Reference energy: -24663.074771

Spin-paired calculation

Occupation numbers:
  Fermi-Dirac: width=0.1000 eV

Convergence criteria:
  Maximum total energy change: 0.0005 eV / electron
  Maximum integral of absolute density change: 0.0001 electrons
  Maximum integral of absolute eigenstate change: 4e-08 eV^2
  Maximum number of iterations: 99

Symmetries present (total): 1

  ( 1  0  0)
  ( 0  1  0)
  ( 0  0  1)

1 k-point (Gamma)
1 k-point in the irreducible part of the Brillouin zone
       k-points in crystal coordinates                weights
   0:     0.00000000    0.00000000    0.00000000          1/1

Wave functions: LCAO
  Diagonalizer: Serial LAPACK
  Atomic Correction: dense with blas
  Datatype: float
  Eigensolver: None 

LCAO using direct dense diagonalizer 

Densities:
  Coarse grid: 80*80*48 grid
  Fine grid: 160*160*96 grid
  Total Charge: 0.000000 

Density mixing:
  Method: separate
  Backend: pulay
  Linear mixing parameter: 0.05
  Mixing with 5 old densities
  Damping of long wave oscillations: 75 

Hamiltonian:
  XC and Coulomb potentials evaluated on a 160*160*96 grid
  Using the PBE Exchange-Correlation functional
  Interpolation: tri-quintic (5. degree polynomial)
  Poisson solver: Gauss-Seidel solver with 6 multi-grid levels
    Coarsest grid: 5 x 5 x 3 points
    Stencil: 6*3+1=19 point O(h^6) finite-difference Laplacian
    Max iterations: 1000
    Tolerance: 1.000000e-07 

Memory estimate:
  Process memory now: 77.57 MiB
  Calculator: 15.59 MiB
    Density: 6.13 MiB
      Arrays: 3.81 MiB
      Localized functions: 0.86 MiB
      Mixer: 1.46 MiB
    Hamiltonian: 5.40 MiB
      Arrays: 2.49 MiB
      XC: 0.00 MiB
      Poisson: 2.85 MiB
      vbar: 0.07 MiB
    Wavefunctions: 4.05 MiB
      C [qnM]: 0.23 MiB
      S, T [2 x qmm]: 1.49 MiB
      P [aqMi]: 0.01 MiB
      TCI: 0.00 MiB
      BasisFunctions: 2.33 MiB
      Eigensolver: 0.00 MiB

Total number of cores used: 16
Domain decomposition: 2 x 4 x 2

Number of atoms: 24
Number of atomic orbitals: 312
Number of bands in calculation: 98
Bands to converge: occupied states only
Number of valence electrons: 96

... initialized

Initializing position-dependent things.

Density initialized from atomic densities
           .--------------------------------------.  
          /|                                      |  
         / |                                      |  
        /  |                                      |  
       /   |                                      |  
      /    |                                      |  
     /     |                                      |  
    /      |                  C                   |  
   /       |           C                          |  
  /        |    C  C    C     C C                 |  
 *         |        C     C    C                  |  
 |         | CC    C                              |  
 |         .----C-----C-------C-------------------.  
 |        /    C  C     C   C                    /   
 |       /          C  C   C C                  /    
 |      /                                      /     
 |     /                                      /      
 |    /                                      /       
 |   /                                      /        
 |  /                                      /         
 | /                                      /          
 |/                                      /           
 *--------------------------------------*            

Positions:
   0 C      3.535561    7.625926    5.527187
   1 C      3.944378    8.872441    5.859287
   2 C      5.317840    8.640212    6.091316
   3 C      6.038032    7.372145    5.963123
   4 C      9.649535    9.300191    7.349884
   5 C     10.759126    6.972609    6.967925
   6 C      9.716283    7.935086    6.999952
   7 C     10.745136    5.749104    6.669709
   8 C      8.479059    7.237264    6.527302
   9 C      6.676280    9.281223    6.551234
  10 C      7.279238    7.958209    6.384313
  11 C     10.359173    4.563178    4.382357
  12 C      7.252239    6.043942    5.461289
  13 C      9.626277    3.499931    4.446701
  14 C      7.036266    3.069328    4.960335
  15 C      9.878865    7.165717    4.772173
  16 C      9.646979    5.747938    4.760416
  17 C      8.238096    3.703530    4.855152
  18 C      8.269004    5.191823    5.106994
  19 C      5.843413    3.635617    5.220171
  20 C      5.790969    6.395937    5.588713
  21 C      4.547479    5.694903    5.544622
  22 C      4.722877    4.250913    5.396976
  23 C      3.405582    6.559922    5.598811

Unit cell:
           periodic     x           y           z      points  spacing
  1. axis:    yes   16.000000    0.000000    0.000000    80     0.2000
  2. axis:    yes    0.000000   16.000000    0.000000    80     0.2000
  3. axis:    yes    0.000000    0.000000   10.000000    48     0.2083

Effective grid spacing dv^(1/3) = 0.2027

                     log10-error:    total        iterations:
           time      wfs    density  energy       fermi  poisson
iter:   1  10:12:41          +inf  -166.812143    3      6      
iter:   2  10:12:42         -0.84  -165.035534    3      3      
iter:   3  10:12:42         -0.89  -162.283958    32     3      
iter:   4  10:12:43         -1.02  -161.486235    3      3      
iter:   5  10:12:44         -1.09  -160.700191    35     3      
iter:   6  10:12:44         -1.23  -160.198353    4      3      
iter:   7  10:12:45         -1.40  -160.202191    4      3      
iter:   8  10:12:46         -1.56  -160.110772    3      3      
iter:   9  10:12:47         -1.75  -160.062587    3      3      
iter:  10  10:12:47         -1.92  -160.053949    3      2      
iter:  11  10:12:48         -2.04  -160.047358    3      2      
iter:  12  10:12:48         -2.15  -160.041159    3      2      
iter:  13  10:12:49         -2.27  -160.041203    3      2      
iter:  14  10:12:50         -2.34  -160.039363    3      2      
iter:  15  10:12:50         -2.52  -160.037084    3      2      
iter:  16  10:12:51         -2.70  -160.034847    3      2      
iter:  17  10:12:52         -2.83  -160.033055    3      2      
iter:  18  10:12:52         -2.96  -160.031709    2      2      
iter:  19  10:12:53         -3.28  -160.034076    2      1      
iter:  20  10:12:54         -3.44  -160.031540    2      1      
iter:  21  10:12:54         -3.56  -160.029446    2      1      
iter:  22  10:12:55         -3.67  -160.029157    2      1      
iter:  23  10:12:55         -3.78  -160.027215    2      1      
iter:  24  10:12:56         -4.01  -160.027662    2      1      

Converged after 24 iterations.

Dipole moment: (-0.487711, -0.394242, -0.258194) |e|*Ang

Energy contributions relative to reference atoms: (reference = -24663.074771)

Kinetic:       +181.208810
Potential:     -166.036332
External:        +0.000000
XC:            -177.932396
Entropy (-ST):   -0.465953
Local:           +2.965232
--------------------------
Free energy:   -160.260639
Extrapolated:  -160.027662

Fermi level: -5.03086

 Band  Eigenvalues  Occupancy
    0    -24.66052    2.00000
    1    -22.70842    2.00000
    2    -22.13346    2.00000
    3    -21.51977    2.00000
    4    -21.15772    2.00000
    5    -20.53821    2.00000
    6    -19.68563    2.00000
    7    -19.41435    2.00000
    8    -19.17327    2.00000
    9    -18.35092    2.00000
   10    -18.00947    2.00000
   11    -17.56570    2.00000
   12    -16.83730    2.00000
   13    -15.62122    2.00000
   14    -15.23764    2.00000
   15    -14.73484    2.00000
   16    -14.09949    2.00000
   17    -13.93798    2.00000
   18    -13.36617    2.00000
   19    -13.17739    2.00000
   20    -12.50606    2.00000
   21    -12.26653    2.00000
   22    -12.05379    2.00000
   23    -11.97788    2.00000
   24    -11.53400    2.00000
   25    -10.91596    2.00000
   26    -10.71041    2.00000
   27    -10.01934    2.00000
   28     -9.86934    2.00000
   29     -9.48427    2.00000
   30     -9.11389    2.00000
   31     -8.96350    2.00000
   32     -8.57834    2.00000
   33     -8.20061    2.00000
   34     -7.85912    2.00000
   35     -7.80716    2.00000
   36     -7.66460    2.00000
   37     -7.17027    2.00000
   38     -6.89048    2.00000
   39     -6.78284    2.00000
   40     -6.28896    1.99999
   41     -6.24323    1.99999
   42     -5.89753    1.99966
   43     -5.80073    1.99909
   44     -5.60849    1.99382
   45     -5.44921    1.96997
   46     -5.16863    1.59722
   47     -5.07977    1.23977
   48     -5.02432    0.96731
   49     -4.82746    0.23135
   50     -4.29909    0.00133
   51     -4.20014    0.00049
   52     -3.79354    0.00001
   53     -3.22831    0.00000
   54     -2.90299    0.00000
   55     -2.50076    0.00000
   56     -2.31725    0.00000
   57     -1.34178    0.00000
   58     -1.18261    0.00000
   59     -1.06472    0.00000
   60     -0.63533    0.00000
   61     -0.56570    0.00000
   62      0.03996    0.00000
   63      0.76928    0.00000
   64      1.73416    0.00000
   65      2.05446    0.00000
   66      2.58175    0.00000
   67      2.90067    0.00000
   68      3.25272    0.00000
   69      4.34536    0.00000
   70      4.47114    0.00000
   71      4.60014    0.00000
   72      5.11927    0.00000
   73      5.75359    0.00000
   74      5.85332    0.00000
   75      6.25460    0.00000
   76      6.37822    0.00000
   77      6.95792    0.00000
   78      7.14484    0.00000
   79      7.49014    0.00000
   80      7.57616    0.00000
   81      7.71855    0.00000
   82      8.00603    0.00000
   83      8.21140    0.00000
   84      8.43228    0.00000
   85      8.57441    0.00000
   86      8.65120    0.00000
   87      8.83470    0.00000
   88      9.04312    0.00000
   89      9.09650    0.00000
   90      9.25267    0.00000
   91      9.39591    0.00000
   92      9.45974    0.00000
   93      9.62874    0.00000
   94      9.71866    0.00000
   95      9.81575    0.00000
   96      9.92165    0.00000
   97     10.06272    0.00000


Forces in eV/Ang:
  0 C     0.49692   26.70880   -0.96893
  1 C     2.28466    0.58561    0.12177
  2 C    -0.20201    3.34774    0.95284
  3 C     4.79104   33.31048   11.85997
  4 C     0.05686   -1.74757   -0.33879
  5 C     0.82142    2.54685    0.25501
  6 C    -1.11211    1.16715    1.42052
  7 C     1.02631   -2.98020   -1.13159
  8 C    -2.37388    2.42444   -2.28124
  9 C    -0.80873   -1.62211   -0.45964
 10 C     0.79534    2.71007    1.05066
 11 C     0.45394   -0.99281   -0.54783
 12 C     2.05637   -2.85895    0.37644
 13 C    -0.58636   -0.19172    0.20634
 14 C    -1.25535    0.24132    0.03180
 15 C    -0.20436   -0.94490    0.74111
 16 C    -1.12640   -0.15000    1.12241
 17 C     1.01154   -0.33139   -0.61205
 18 C     0.23384    0.64280   -0.85212
 19 C     1.44757   -1.02235   -0.27246
 20 C    -3.59514  -31.29571  -10.84532
 21 C    -1.79328   -4.01666   -1.00187
 22 C    -0.87294    1.97187    0.29083
 23 C    -1.44945  -27.61321    0.77534

System changes: positions 

Initializing position-dependent things.

Density initialized from wave functions
           .--------------------------------------.  
          /|                                      |  
         / |                                      |  
        /  |                                      |  
       /   |                                      |  
      /    |                                      |  
     /     |                                      |  
    /      |                  C                   |  
   /       |           C                          |  
  /        |    C  C    C     C C                 |  
 *         |        C     C    C                  |  
 |         | CC    C                              |  
 |         .----C-----C-------C-------------------.  
 |        /    C  C     C   C                    /   
 |       /          C  C   C C                  /    
 |      /                                      /     
 |     /                                      /      
 |    /                                      /       
 |   /                                      /        
 |  /                                      /         
 | /                                      /          
 |/                                      /           
 *--------------------------------------*            

Positions:
   0 C      3.536118    7.655867    5.526101
   1 C      3.946939    8.873097    5.859423
   2 C      5.317614    8.643965    6.092385
   3 C      6.043403    7.409487    5.976418
   4 C      9.649599    9.298232    7.349504
   5 C     10.760047    6.975464    6.968211
   6 C      9.715037    7.936394    7.001544
   7 C     10.746287    5.745764    6.668440
   8 C      8.476397    7.239982    6.524745
   9 C      6.675373    9.279405    6.550719
  10 C      7.280129    7.961247    6.385491
  11 C     10.359682    4.562065    4.381743
  12 C      7.254544    6.040737    5.461711
  13 C      9.625620    3.499716    4.446932
  14 C      7.034859    3.069598    4.960371
  15 C      9.878636    7.164658    4.773004
  16 C      9.645716    5.747770    4.761674
  17 C      8.239230    3.703159    4.854466
  18 C      8.269266    5.192544    5.106039
  19 C      5.845036    3.634471    5.219865
  20 C      5.786939    6.360854    5.576555
  21 C      4.545469    5.690400    5.543499
  22 C      4.721898    4.253123    5.397302
  23 C      3.403957    6.528967    5.599680

Unit cell:
           periodic     x           y           z      points  spacing
  1. axis:    yes   16.000000    0.000000    0.000000    80     0.2000
  2. axis:    yes    0.000000   16.000000    0.000000    80     0.2000
  3. axis:    yes    0.000000    0.000000   10.000000    48     0.2083

Effective grid spacing dv^(1/3) = 0.2027

                     log10-error:    total        iterations:
           time      wfs    density  energy       fermi  poisson
iter:   1  10:12:58          +inf  -163.637352    3      5      
iter:   2  10:12:59         -1.89  -163.567862    3      2      
iter:   3  10:13:00         -2.09  -163.557881    3      2      
iter:   4  10:13:00         -2.22  -163.547078    3      2      
iter:   5  10:13:01         -2.29  -163.534173    3      2      
iter:   6  10:13:02         -2.52  -163.529436    3      2      
iter:   7  10:13:02         -2.64  -163.526756    2      2      
iter:   8  10:13:03         -2.77  -163.525384    2      2      
iter:   9  10:13:04         -3.02  -163.524568    2      2      
iter:  10  10:13:04         -3.27  -163.524014    2      1      
iter:  11  10:13:05         -3.32  -163.520314    2      1      
iter:  12  10:13:05         -3.59  -163.523456    2      1      
iter:  13  10:13:06         -3.65  -163.523698    2      1      
iter:  14  10:13:07         -3.77  -163.521680    2      1      
iter:  15  10:13:07         -4.03  -163.523408    2      1      

Converged after 15 iterations.

Dipole moment: (-0.496330, -0.362826, -0.256687) |e|*Ang

Energy contributions relative to reference atoms: (reference = -24663.074771)

Kinetic:       +164.254053
Potential:     -154.590902
External:        +0.000000
XC:            -175.842958
Entropy (-ST):   -0.456854
Local:           +2.884825
--------------------------
Free energy:   -163.751835
Extrapolated:  -163.523408

Fermi level: -5.02621

 Band  Eigenvalues  Occupancy
    0    -24.48882    2.00000
    1    -22.68270    2.00000
    2    -22.12848    2.00000
    3    -21.51897    2.00000
    4    -21.17462    2.00000
    5    -20.50306    2.00000
    6    -19.73118    2.00000
    7    -19.32517    2.00000
    8    -19.18187    2.00000
    9    -18.38404    2.00000
   10    -17.98702    2.00000
   11    -17.51558    2.00000
   12    -16.82250    2.00000
   13    -15.59153    2.00000
   14    -15.16665    2.00000
   15    -14.73423    2.00000
   16    -14.18204    2.00000
   17    -13.91101    2.00000
   18    -13.46248    2.00000
   19    -13.18679    2.00000
   20    -12.44667    2.00000
   21    -12.25739    2.00000
   22    -12.03136    2.00000
   23    -11.78670    2.00000
   24    -11.49846    2.00000
   25    -10.89007    2.00000
   26    -10.68166    2.00000
   27    -10.11500    2.00000
   28     -9.81754    2.00000
   29     -9.48582    2.00000
   30     -9.25969    2.00000
   31     -8.94354    2.00000
   32     -8.55940    2.00000
   33     -8.23651    2.00000
   34     -7.83796    2.00000
   35     -7.78910    2.00000
   36     -7.60432    2.00000
   37     -7.13557    2.00000
   38     -6.88204    2.00000
   39     -6.75152    2.00000
   40     -6.27159    1.99999
   41     -6.22909    1.99999
   42     -5.87351    1.99958
   43     -5.78688    1.99901
   44     -5.60179    1.99369
   45     -5.40816    1.95706
   46     -5.17440    1.62972
   47     -5.08673    1.29368
   48     -5.01091    0.92365
   49     -4.80763    0.20207
   50     -4.27591    0.00110
   51     -4.18426    0.00044
   52     -3.77472    0.00001
   53     -3.20040    0.00000
   54     -2.89161    0.00000
   55     -2.54133    0.00000
   56     -2.40325    0.00000
   57     -1.40753    0.00000
   58     -1.20301    0.00000
   59     -1.08286    0.00000
   60     -0.85234    0.00000
   61     -0.61528    0.00000
   62      0.03991    0.00000
   63      0.79487    0.00000
   64      1.73100    0.00000
   65      2.31407    0.00000
   66      2.53833    0.00000
   67      2.77593    0.00000
   68      3.27024    0.00000
   69      4.26918    0.00000
   70      4.40510    0.00000
   71      4.67524    0.00000
   72      5.11535    0.00000
   73      5.77246    0.00000
   74      5.86787    0.00000
   75      6.28959    0.00000
   76      6.36910    0.00000
   77      6.99005    0.00000
   78      7.20530    0.00000
   79      7.53877    0.00000
   80      7.59002    0.00000
   81      7.74477    0.00000
   82      8.07762    0.00000
   83      8.25319    0.00000
   84      8.44772    0.00000
   85      8.61143    0.00000
   86      8.68305    0.00000
   87      8.86882    0.00000
   88      9.04714    0.00000
   89      9.12885    0.00000
   90      9.27994    0.00000
   91      9.42968    0.00000
   92      9.44141    0.00000
   93      9.67541    0.00000
   94      9.70351    0.00000
   95      9.86465    0.00000
   96      9.91954    0.00000
   97     10.10105    0.00000


Forces in eV/Ang:
  0 C    -0.63550   15.11938   -0.51445
  1 C     2.08417    1.37837    0.31174
  2 C    -0.21365    3.47810    0.94028
  3 C     1.12752   19.57279    6.70833
  4 C     0.08937   -1.63539   -0.28932
  5 C     0.84128    2.11969    0.16189
  6 C    -1.13504    0.99818    1.32055
  7 C     1.04110   -2.52046   -0.99323
  8 C    -2.34280    2.27667   -2.31853
  9 C    -0.68990   -1.21613   -0.37239
 10 C     1.29586    2.81910    1.19415
 11 C     0.40217   -1.00095   -0.51947
 12 C     1.70260   -2.65572    0.51764
 13 C    -0.45922   -0.14188    0.19291
 14 C    -0.96575    0.26001   -0.00682
 15 C    -0.20253   -0.89523    0.76950
 16 C    -1.18481   -0.28277    1.05983
 17 C     0.90690   -0.32761   -0.59629
 18 C     0.40741    0.43378   -0.92182
 19 C     0.88875   -0.83767   -0.20467
 20 C     0.28998  -17.76166   -5.87952
 21 C    -1.77788   -3.86317   -1.01009
 22 C    -0.48810    1.18142    0.21879
 23 C    -0.88366  -16.59402    0.13884

System changes: positions 

Initializing position-dependent things.

Density initialized from wave functions
           .--------------------------------------.  
          /|                                      |  
         / |                                      |  
        /  |                                      |  
       /   |                                      |  
      /    |                                      |  
     /     |                                      |  
    /      |                  C                   |  
   /       |           C                          |  
  /        |    C  C    C     C C                 |  
 *         |        C     C    C                  |  
 |         | CC    C                              |  
 |         .----C-----C-------C-------------------.  
 |        /    C  C     C   C                    /   
 |       /          C  C   C C                  /    
 |      /                                      /     
 |     /                                      /      
 |    /                                      /       
 |   /                                      /        
 |  /                                      /         
 | /                                      /          
 |/                                      /           
 *--------------------------------------*            

Positions:
   0 C      3.522425    7.673626    5.525978
   1 C      3.960555    8.889499    5.863218
   2 C      5.315960    8.670404    6.099150
   3 C      6.022351    7.442592    5.984222
   4 C      9.650512    9.287187    7.347787
   5 C     10.766348    6.987527    6.968648
   6 C      9.706566    7.942332    7.010388
   7 C     10.754007    5.731034    6.662294
   8 C      8.459539    7.255424    6.507517
   9 C      6.671286    9.273770    6.548697
  10 C      7.293592    7.982703    6.395357
  11 C     10.362205    4.554691    4.378177
  12 C      7.264149    6.022970    5.466620
  13 C      9.623283    3.499079    4.448234
  14 C      7.030122    3.071646    4.960012
  15 C      9.877172    7.158518    4.778850
  16 C      9.636598    5.744644    4.768913
  17 C      8.245015    3.700797    4.850238
  18 C      8.273628    5.194040    5.098751
  19 C      5.847058    3.629830    5.218913
  20 C      5.820112    6.339345    5.573318
  21 C      4.532610    5.663419    5.536058
  22 C      4.721411    4.255431    5.398323
  23 C      3.402028    6.495882    5.595606

Unit cell:
           periodic     x           y           z      points  spacing
  1. axis:    yes   16.000000    0.000000    0.000000    80     0.2000
  2. axis:    yes    0.000000   16.000000    0.000000    80     0.2000
  3. axis:    yes    0.000000    0.000000   10.000000    48     0.2083

Effective grid spacing dv^(1/3) = 0.2027

                     log10-error:    total        iterations:
           time      wfs    density  energy       fermi  poisson
iter:   1  10:13:10          +inf  -166.096756    3      5      
iter:   2  10:13:10         -1.65  -165.852310    3      2      
iter:   3  10:13:11         -1.90  -165.806249    3      2      
iter:   4  10:13:12         -2.08  -165.788750    3      2      
iter:   5  10:13:12         -2.18  -165.773341    3      2      
iter:   6  10:13:13         -2.37  -165.770647    3      2      
iter:   7  10:13:14         -2.49  -165.768621    3      2      
iter:   8  10:13:14         -2.66  -165.767098    2      2      
iter:   9  10:13:15         -2.81  -165.766556    2      2      
iter:  10  10:13:15         -2.99  -165.766005    2      2      
iter:  11  10:13:16         -3.22  -165.765478    2      1      
iter:  12  10:13:17         -3.29  -165.764822    2      1      
iter:  13  10:13:17         -3.46  -165.765824    2      1      
iter:  14  10:13:18         -3.61  -165.765480    2      1      
iter:  15  10:13:19         -3.67  -165.764608    2      1      
iter:  16  10:13:19         -3.85  -165.765002    2      1      
iter:  17  10:13:20         -3.98  -165.765001    2      1      
iter:  18  10:13:20         -4.12  -165.764842    2      1      

Converged after 18 iterations.

Dipole moment: (-0.517790, -0.367961, -0.243457) |e|*Ang

Energy contributions relative to reference atoms: (reference = -24663.074771)

Kinetic:       +151.298537
Potential:     -145.609143
External:        +0.000000
XC:            -174.149504
Entropy (-ST):   -0.429276
Local:           +2.909907
--------------------------
Free energy:   -165.979480
Extrapolated:  -165.764842

Fermi level: -4.99148

 Band  Eigenvalues  Occupancy
    0    -24.26768    2.00000
    1    -22.69379    2.00000
    2    -22.01349    2.00000
    3    -21.45327    2.00000
    4    -21.11724    2.00000
    5    -20.49173    2.00000
    6    -19.73683    2.00000
    7    -19.30284    2.00000
    8    -19.15164    2.00000
    9    -18.36630    2.00000
   10    -17.98511    2.00000
   11    -17.43788    2.00000
   12    -16.81091    2.00000
   13    -15.55664    2.00000
   14    -15.14118    2.00000
   15    -14.75294    2.00000
   16    -14.16864    2.00000
   17    -13.83818    2.00000
   18    -13.48761    2.00000
   19    -13.23217    2.00000
   20    -12.36200    2.00000
   21    -12.25494    2.00000
   22    -12.03378    2.00000
   23    -11.63069    2.00000
   24    -11.52101    2.00000
   25    -10.86234    2.00000
   26    -10.67731    2.00000
   27    -10.28883    2.00000
   28     -9.74749    2.00000
   29     -9.59035    2.00000
   30     -9.30465    2.00000
   31     -8.84612    2.00000
   32     -8.56342    2.00000
   33     -8.23137    2.00000
   34     -7.84079    2.00000
   35     -7.79678    2.00000
   36     -7.54283    2.00000
   37     -7.12219    2.00000
   38     -6.89477    2.00000
   39     -6.71852    2.00000
   40     -6.32237    2.00000
   41     -6.24085    1.99999
   42     -5.87531    1.99971
   43     -5.76429    1.99912
   44     -5.60970    1.99588
   45     -5.38605    1.96206
   46     -5.18048    1.73750
   47     -5.05058    1.28717
   48     -4.95810    0.83464
   49     -4.76142    0.18214
   50     -4.26123    0.00135
   51     -4.14896    0.00044
   52     -3.77579    0.00001
   53     -3.15112    0.00000
   54     -2.87012    0.00000
   55     -2.50876    0.00000
   56     -2.42583    0.00000
   57     -1.45241    0.00000
   58     -1.26016    0.00000
   59     -1.15881    0.00000
   60     -0.94637    0.00000
   61     -0.62986    0.00000
   62      0.12372    0.00000
   63      0.86985    0.00000
   64      1.69348    0.00000
   65      2.39094    0.00000
   66      2.49681    0.00000
   67      2.70924    0.00000
   68      3.30548    0.00000
   69      4.23352    0.00000
   70      4.35448    0.00000
   71      4.72205    0.00000
   72      5.04147    0.00000
   73      5.77106    0.00000
   74      5.88162    0.00000
   75      6.41665    0.00000
   76      6.51612    0.00000
   77      7.10850    0.00000
   78      7.26133    0.00000
   79      7.56855    0.00000
   80      7.66848    0.00000
   81      7.85547    0.00000
   82      8.08160    0.00000
   83      8.28044    0.00000
   84      8.44854    0.00000
   85      8.62537    0.00000
   86      8.71606    0.00000
   87      8.90146    0.00000
   88      9.06659    0.00000
   89      9.13437    0.00000
   90      9.27011    0.00000
   91      9.36866    0.00000
   92      9.46510    0.00000
   93      9.71655    0.00000
   94      9.77828    0.00000
   95      9.89283    0.00000
   96      9.95299    0.00000
   97     10.13170    0.00000


Forces in eV/Ang:
  0 C    -0.75146    9.18222    0.06567
  1 C     0.91136    0.80111    0.05861
  2 C     0.00134    2.97997    0.92691
  3 C     0.72774   13.91176    4.74571
  4 C     0.12543   -1.02387   -0.08368
  5 C     0.58863    0.64341   -0.28488
  6 C    -0.95939    0.11110    1.10107
  7 C     0.91846   -0.75427   -0.60538
  8 C    -1.45575    1.63908   -2.29973
  9 C    -0.67107   -0.52245   -0.24410
 10 C    -0.23755    2.47234    0.64961
 11 C     0.35598   -0.74897   -0.44140
 12 C     1.48024   -1.78929    1.06935
 13 C    -0.25083   -0.21274    0.17753
 14 C    -0.49869    0.31175   -0.07625
 15 C    -0.23381   -0.83612    0.82085
 16 C    -0.84427   -0.41103    0.87885
 17 C     0.46893   -0.29166   -0.54771
 18 C     0.62026   -0.23823   -0.98140
 19 C     0.45418   -0.68514   -0.11404
 20 C     0.47548  -12.47902   -3.84628
 21 C    -0.40364   -2.57823   -0.90060
 22 C    -0.19554    0.24607    0.10150
 23 C    -0.49947   -9.67890   -0.21836

System changes: positions 

Initializing position-dependent things.

Density initialized from wave functions
           .--------------------------------------.  
          /|                                      |  
         / |                                      |  
        /  |                                      |  
       /   |                                      |  
      /    |                                      |  
     /     |                                      |  
    /      |                  C                   |  
   /       |           C                          |  
  /        |    C  C    C     C C                 |  
 *         |        C     C    C                  |  
 |         | CC    C                              |  
 |         .----C-----C-------C-------------------.  
 |        /    C  C     C   C                    /   
 |       /          C  C   C C                  /    
 |      /                                      /     
 |     /                                      /      
 |    /                                      /       
 |   /                                      /        
 |  /                                      /         
 | /                                      /          
 |/                                      /           
 *--------------------------------------*            

Positions:
   0 C      3.508695    7.676907    5.530756
   1 C      3.964676    8.899864    5.864148
   2 C      5.316495    8.697474    6.107656
   3 C      6.007221    7.478385    5.993704
   4 C      9.651961    9.279983    7.347853
   5 C     10.771240    6.987040    6.964249
   6 C      9.698000    7.939977    7.019452
   7 C     10.762291    5.731470    6.658515
   8 C      8.448615    7.268072    6.485985
   9 C      6.665775    9.273119    6.547275
  10 C      7.290028    8.005349    6.400718
  11 C     10.365092    4.548374    4.374449
  12 C      7.275288    6.009868    5.478870
  13 C      9.622244    3.497191    4.449765
  14 C      7.028410    3.074791    4.958894
  15 C      9.874924    7.151192    4.786780
  16 C      9.629353    5.739719    4.776229
  17 C      8.247580    3.698206    4.845370
  18 C      8.280960    5.188800    5.089072
  19 C      5.846917    3.624929    5.218486
  20 C      5.847096    6.314675    5.571333
  21 C      4.532708    5.643848    5.527941
  22 C      4.722579    4.250669    5.398536
  23 C      3.401650    6.487425    5.588985

Unit cell:
           periodic     x           y           z      points  spacing
  1. axis:    yes   16.000000    0.000000    0.000000    80     0.2000
  2. axis:    yes    0.000000   16.000000    0.000000    80     0.2000
  3. axis:    yes    0.000000    0.000000   10.000000    48     0.2083

Effective grid spacing dv^(1/3) = 0.2027

                     log10-error:    total        iterations:
           time      wfs    density  energy       fermi  poisson
iter:   1  10:13:23          +inf  -167.188018    3      5      
iter:   2  10:13:23         -1.81  -167.044507    3      2      
iter:   3  10:13:24         -2.08  -167.024195    2      2      
iter:   4  10:13:25         -2.26  -167.017901    2      1      
iter:   5  10:13:25         -2.34  -167.008432    3      2      
iter:   6  10:13:26         -2.54  -167.010001    2      2      
iter:   7  10:13:26         -2.55  -167.007387    2      2      
iter:   8  10:13:27         -2.82  -167.006583    2      2      
iter:   9  10:13:28         -3.03  -167.006933    2      1      
iter:  10  10:13:28         -3.19  -167.006771    2      1      
iter:  11  10:13:29         -3.43  -167.006034    2      1      
iter:  12  10:13:30         -3.49  -167.005783    2      1      
iter:  13  10:13:30         -3.61  -167.005883    2      1      
iter:  14  10:13:31         -3.79  -167.005692    2      1      
iter:  15  10:13:31         -3.99  -167.005875    2      1      
iter:  16  10:13:32         -4.10  -167.005996    2      1      

Converged after 16 iterations.

Dipole moment: (-0.540604, -0.363113, -0.228687) |e|*Ang

Energy contributions relative to reference atoms: (reference = -24663.074771)

Kinetic:       +145.045443
Potential:     -141.232862
External:        +0.000000
XC:            -173.512379
Entropy (-ST):   -0.399887
Local:           +2.893746
--------------------------
Free energy:   -167.205939
Extrapolated:  -167.005996

Fermi level: -4.96787

 Band  Eigenvalues  Occupancy
    0    -24.17389    2.00000
    1    -22.72961    2.00000
    2    -21.98498    2.00000
    3    -21.39810    2.00000
    4    -21.06373    2.00000
    5    -20.48686    2.00000
    6    -19.73748    2.00000
    7    -19.28732    2.00000
    8    -19.08043    2.00000
    9    -18.36101    2.00000
   10    -17.98115    2.00000
   11    -17.40689    2.00000
   12    -16.80537    2.00000
   13    -15.53632    2.00000
   14    -15.14489    2.00000
   15    -14.78017    2.00000
   16    -14.14833    2.00000
   17    -13.78058    2.00000
   18    -13.51053    2.00000
   19    -13.25165    2.00000
   20    -12.37160    2.00000
   21    -12.17077    2.00000
   22    -12.05635    2.00000
   23    -11.57478    2.00000
   24    -11.47916    2.00000
   25    -10.84392    2.00000
   26    -10.68291    2.00000
   27    -10.41929    2.00000
   28     -9.76922    2.00000
   29     -9.63996    2.00000
   30     -9.34878    2.00000
   31     -8.78131    2.00000
   32     -8.59927    2.00000
   33     -8.22888    2.00000
   34     -7.84779    2.00000
   35     -7.81641    2.00000
   36     -7.52708    2.00000
   37     -7.12715    2.00000
   38     -6.88053    2.00000
   39     -6.70154    2.00000
   40     -6.37128    2.00000
   41     -6.22486    1.99999
   42     -5.87326    1.99977
   43     -5.75148    1.99921
   44     -5.61997    1.99706
   45     -5.38443    1.96943
   46     -5.18987    1.80406
   47     -5.03653    1.33044
   48     -4.91403    0.73710
   49     -4.72429    0.16096
   50     -4.25224    0.00156
   51     -4.11588    0.00040
   52     -3.79124    0.00002
   53     -3.11004    0.00000
   54     -2.86052    0.00000
   55     -2.51866    0.00000
   56     -2.41496    0.00000
   57     -1.44896    0.00000
   58     -1.31577    0.00000
   59     -1.15544    0.00000
   60     -0.92064    0.00000
   61     -0.57067    0.00000
   62      0.20696    0.00000
   63      0.91433    0.00000
   64      1.67663    0.00000
   65      2.39307    0.00000
   66      2.57619    0.00000
   67      2.81835    0.00000
   68      3.37760    0.00000
   69      4.21525    0.00000
   70      4.36603    0.00000
   71      4.75600    0.00000
   72      4.94141    0.00000
   73      5.87694    0.00000
   74      5.90919    0.00000
   75      6.44288    0.00000
   76      6.60694    0.00000
   77      7.14721    0.00000
   78      7.28479    0.00000
   79      7.57615    0.00000
   80      7.76138    0.00000
   81      7.88158    0.00000
   82      8.12054    0.00000
   83      8.30042    0.00000
   84      8.44647    0.00000
   85      8.60811    0.00000
   86      8.76649    0.00000
   87      8.89323    0.00000
   88      9.06314    0.00000
   89      9.13531    0.00000
   90      9.23725    0.00000
   91      9.30237    0.00000
   92      9.48303    0.00000
   93      9.71136    0.00000
   94      9.81072    0.00000
   95      9.88637    0.00000
   96      9.97456    0.00000
   97     10.13382    0.00000


Forces in eV/Ang:
  0 C    -0.49253    8.36639    0.28897
  1 C     0.45829    0.36699   -0.04991
  2 C    -0.70904    2.80143    0.72506
  3 C     0.50987    8.12819    2.82281
  4 C     0.16935   -0.81821    0.02226
  5 C     0.30319    0.94649   -0.23889
  6 C    -0.76940   -0.33295    0.90762
  7 C     0.85388   -0.81449   -0.63630
  8 C    -1.31208    1.33208   -2.36825
  9 C    -0.61539    0.23897   -0.06730
 10 C    -0.24711    1.98226    0.47061
 11 C     0.32403   -0.65000   -0.37751
 12 C     1.59776   -1.29168    1.38220
 13 C    -0.07416   -0.26762    0.14958
 14 C    -0.36007    0.25433   -0.08276
 15 C    -0.30043   -0.73455    0.88460
 16 C    -0.55772   -0.54195    0.68972
 17 C     0.32085   -0.25653   -0.57148
 18 C     0.46797   -0.43555   -0.89537
 19 C     0.48016   -0.76048   -0.12094
 20 C     0.48077   -7.17266   -1.95429
 21 C    -0.05939   -1.67952   -0.75550
 22 C    -0.29410   -0.11983    0.05556
 23 C    -0.10907   -8.49962   -0.30442

System changes: positions 

Initializing position-dependent things.

Density initialized from wave functions
           .--------------------------------------.  
          /|                                      |  
         / |                                      |  
        /  |                                      |  
       /   |                                      |  
      /    |                                      |  
     /     |                                      |  
    /      |                  C                   |  
   /       |           C                          |  
  /        |    C  C    C     C C                 |  
 *         |        C     C    C                  |  
 |         | CC    C                              |  
 |         .----C------C------C-------------------.  
 |        /    C  C     C   C                    /   
 |       /          C  C   C C                  /    
 |      /                                      /     
 |     /                                      /      
 |    /                                      /       
 |   /                                      /        
 |  /                                      /         
 | /                                      /          
 |/                                      /           
 *--------------------------------------*            

Positions:
   0 C      3.494531    7.704714    5.539168
   1 C      3.966211    8.908047    5.863791
   2 C      5.308508    8.735321    6.117844
   3 C      5.991925    7.499001    5.998545
   4 C      9.654552    9.271280    7.349042
   5 C     10.775040    6.991742    6.958702
   6 C      9.687610    7.931814    7.030882
   7 C     10.773805    5.729477    6.652008
   8 C      8.433736    7.283717    6.453264
   9 C      6.657956    9.280165    6.547056
  10 C      7.283889    8.032797    6.406310
  11 C     10.369142    4.540135    4.369595
  12 C      7.294293    5.995654    5.500315
  13 C      9.622456    3.493608    4.451737
  14 C      7.026625    3.078685    4.957283
  15 C      9.870775    7.141408    4.799243
  16 C      9.622138    5.731199    4.785005
  17 C      8.250015    3.694768    4.837790
  18 C      8.289435    5.179408    5.075965
  19 C      5.848673    3.616179    5.217553
  20 C      5.876876    6.305396    5.577708
  21 C      4.536512    5.624928    5.517652
  22 C      4.721972    4.241557    5.398524
  23 C      3.404240    6.457528    5.579920

Unit cell:
           periodic     x           y           z      points  spacing
  1. axis:    yes   16.000000    0.000000    0.000000    80     0.2000
  2. axis:    yes    0.000000   16.000000    0.000000    80     0.2000
  3. axis:    yes    0.000000    0.000000   10.000000    48     0.2083

Effective grid spacing dv^(1/3) = 0.2027

                     log10-error:    total        iterations:
           time      wfs    density  energy       fermi  poisson
iter:   1  10:13:34          +inf  -168.321474    3      5      
iter:   2  10:13:35         -1.78  -168.160239    3      2      
iter:   3  10:13:36         -2.01  -168.124194    2      2      
iter:   4  10:13:36         -2.15  -168.106928    2      2      
iter:   5  10:13:37         -2.23  -168.090784    3      2      
iter:   6  10:13:37         -2.48  -168.089311    2      2      
iter:   7  10:13:38         -2.54  -168.087263    2      2      
iter:   8  10:13:39         -2.76  -168.086495    2      2      
iter:   9  10:13:39         -2.89  -168.086087    2      2      
iter:  10  10:13:40         -3.08  -168.085694    2      2      
iter:  11  10:13:41         -3.30  -168.085589    2      1      
iter:  12  10:13:41         -3.37  -168.085404    2      1      
iter:  13  10:13:42         -3.54  -168.085226    2      1      
iter:  14  10:13:42         -3.69  -168.085275    2      1      
iter:  15  10:13:43         -3.82  -168.085226    1      1      
iter:  16  10:13:44         -3.95  -168.085149    2      1      
iter:  17  10:13:44         -4.06  -168.085097    2      1      

Converged after 17 iterations.

Dipole moment: (-0.563328, -0.329925, -0.209635) |e|*Ang

Energy contributions relative to reference atoms: (reference = -24663.074771)

Kinetic:       +137.394300
Potential:     -135.686143
External:        +0.000000
XC:            -172.513965
Entropy (-ST):   -0.368790
Local:           +2.905107
--------------------------
Free energy:   -168.269492
Extrapolated:  -168.085097

Fermi level: -4.93302

 Band  Eigenvalues  Occupancy
    0    -24.07858    2.00000
    1    -22.76312    2.00000
    2    -21.87403    2.00000
    3    -21.37309    2.00000
    4    -20.99000    2.00000
    5    -20.46716    2.00000
    6    -19.74714    2.00000
    7    -19.28657    2.00000
    8    -18.97532    2.00000
    9    -18.35093    2.00000
   10    -17.96022    2.00000
   11    -17.36719    2.00000
   12    -16.72788    2.00000
   13    -15.51251    2.00000
   14    -15.14516    2.00000
   15    -14.81045    2.00000
   16    -14.11761    2.00000
   17    -13.77355    2.00000
   18    -13.52892    2.00000
   19    -13.24794    2.00000
   20    -12.36220    2.00000
   21    -12.12294    2.00000
   22    -12.06223    2.00000
   23    -11.56667    2.00000
   24    -11.40601    2.00000
   25    -10.87545    2.00000
   26    -10.68684    2.00000
   27    -10.53150    2.00000
   28     -9.76627    2.00000
   29     -9.58628    2.00000
   30     -9.34446    2.00000
   31     -8.73140    2.00000
   32     -8.62432    2.00000
   33     -8.24261    2.00000
   34     -7.82141    2.00000
   35     -7.80022    2.00000
   36     -7.48730    2.00000
   37     -7.13099    2.00000
   38     -6.86112    2.00000
   39     -6.70544    2.00000
   40     -6.42253    2.00000
   41     -6.19621    1.99999
   42     -5.85678    1.99981
   43     -5.72965    1.99931
   44     -5.63425    1.99820
   45     -5.37754    1.97680
   46     -5.20442    1.87569
   47     -5.00077    1.32634
   48     -4.86854    0.68833
   49     -4.66921    0.13345
   50     -4.22619    0.00170
   51     -4.07230    0.00037
   52     -3.77960    0.00002
   53     -3.04186    0.00000
   54     -2.83771    0.00000
   55     -2.49063    0.00000
   56     -2.39402    0.00000
   57     -1.63047    0.00000
   58     -1.38251    0.00000
   59     -1.18466    0.00000
   60     -0.88527    0.00000
   61     -0.47533    0.00000
   62      0.28658    0.00000
   63      0.95963    0.00000
   64      1.63324    0.00000
   65      2.35294    0.00000
   66      2.56608    0.00000
   67      2.88122    0.00000
   68      3.42448    0.00000
   69      4.13523    0.00000
   70      4.31862    0.00000
   71      4.65952    0.00000
   72      4.85522    0.00000
   73      5.92217    0.00000
   74      5.98927    0.00000
   75      6.51176    0.00000
   76      6.70874    0.00000
   77      7.14575    0.00000
   78      7.38094    0.00000
   79      7.62840    0.00000
   80      7.84072    0.00000
   81      7.92990    0.00000
   82      8.14278    0.00000
   83      8.32098    0.00000
   84      8.45474    0.00000
   85      8.58930    0.00000
   86      8.82835    0.00000
   87      8.91572    0.00000
   88      9.05938    0.00000
   89      9.15939    0.00000
   90      9.21646    0.00000
   91      9.25217    0.00000
   92      9.48551    0.00000
   93      9.70580    0.00000
   94      9.83123    0.00000
   95      9.87315    0.00000
   96      9.98969    0.00000
   97     10.07326    0.00000


Forces in eV/Ang:
  0 C    -0.64470    2.85891    0.38644
  1 C    -0.07416    0.71401   -0.03010
  2 C    -0.29988    1.83350    0.60731
  3 C     0.64731    6.55317    2.30403
  4 C     0.20368   -0.74128    0.10509
  5 C     0.10563    0.73760   -0.32713
  6 C    -0.75123   -0.50062    0.74544
  7 C     0.75482   -0.48346   -0.56762
  8 C    -1.05833    0.85364   -2.40681
  9 C    -0.70425    0.88646    0.06476
 10 C    -0.48286    1.50355    0.15882
 11 C     0.25952   -0.58109   -0.32528
 12 C     1.76161   -0.64597    1.70189
 13 C     0.17119   -0.29145    0.08888
 14 C    -0.06055    0.14491   -0.12624
 15 C    -0.36481   -0.65571    1.00422
 16 C    -0.13212   -0.63534    0.46686
 17 C     0.13857   -0.25185   -0.58363
 18 C     0.18122   -0.60476   -0.71170
 19 C     0.20746   -0.66906   -0.07738
 20 C    -0.02183   -5.42389   -1.34975
 21 C     0.29154   -0.89249   -0.65154
 22 C    -0.15676   -0.48155    0.01211
 23 C     0.08928   -3.27978   -0.47834

System changes: positions 

Initializing position-dependent things.

Density initialized from wave functions
           .--------------------------------------.  
          /|                                      |  
         / |                                      |  
        /  |                                      |  
       /   |                                      |  
      /    |                                      |  
     /     |                                      |  
    /      |                  C                   |  
   /       |           C                          |  
  /        |    C  C    C     C C                 |  
 *         |        C     C    C                  |  
 |         | CC    C                              |  
 |         .----C------C------C-------------------.  
 |        /    C  C     C   C                    /   
 |       /          C  C   C C                  /    
 |      /                                      /     
 |     /                                      /      
 |    /                                      /       
 |   /                                      /        
 |  /                                      /         
 | /                                      /          
 |/                                      /           
 *--------------------------------------*            

Positions:
   0 C      3.481003    7.710014    5.547455
   1 C      3.964305    8.918990    5.863584
   2 C      5.301955    8.765791    6.126906
   3 C      5.984014    7.526980    6.006988
   4 C      9.657599    9.261832    7.350848
   5 C     10.776848    6.999483    6.953275
   6 C      9.676986    7.922713    7.041449
   7 C     10.785007    5.725727    6.644647
   8 C      8.418932    7.296263    6.418286
   9 C      6.648719    9.293796    6.548170
  10 C      7.277647    8.056174    6.409569
  11 C     10.372865    4.531855    4.364951
  12 C      7.317386    5.986179    5.525414
  13 C      9.624918    3.489531    4.453184
  14 C      7.026560    3.081376    4.955358
  15 C      9.865653    7.131948    4.813567
  16 C      9.618919    5.721478    4.792019
  17 C      8.251537    3.691198    4.829491
  18 C      8.294262    5.169209    5.064514
  19 C      5.849800    3.607030    5.216668
  20 C      5.895884    6.291107    5.582022
  21 C      4.541781    5.612091    5.508015
  22 C      4.721125    4.230892    5.398349
  23 C      3.408106    6.446810    5.570332

Unit cell:
           periodic     x           y           z      points  spacing
  1. axis:    yes   16.000000    0.000000    0.000000    80     0.2000
  2. axis:    yes    0.000000   16.000000    0.000000    80     0.2000
  3. axis:    yes    0.000000    0.000000   10.000000    48     0.2083

Effective grid spacing dv^(1/3) = 0.2027

                     log10-error:    total        iterations:
           time      wfs    density  energy       fermi  poisson
iter:   1  10:13:46          +inf  -168.945459    3      5      
iter:   2  10:13:47         -1.88  -168.846738    2      2      
iter:   3  10:13:48         -2.16  -168.829114    2      2      
iter:   4  10:13:48         -2.30  -168.824040    2      1      
iter:   5  10:13:49         -2.36  -168.814501    2      2      
iter:   6  10:13:50         -2.59  -168.814941    2      2      
iter:   7  10:13:50         -2.59  -168.812713    2      2      
iter:   8  10:13:51         -2.90  -168.813242    2      1      
iter:   9  10:13:52         -2.98  -168.812227    2      2      
iter:  10  10:13:52         -3.32  -168.812226    1      1      
iter:  11  10:13:53         -3.42  -168.812065    2      1      
iter:  12  10:13:53         -3.61  -168.811738    2      1      
iter:  13  10:13:54         -3.72  -168.811671    2      1      
iter:  14  10:13:55         -3.85  -168.811757    2      1      
iter:  15  10:13:55         -4.02  -168.811712    2      1      

Converged after 15 iterations.

Dipole moment: (-0.570022, -0.313476, -0.186034) |e|*Ang

Energy contributions relative to reference atoms: (reference = -24663.074771)

Kinetic:       +131.500915
Potential:     -131.346469
External:        +0.000000
XC:            -171.689758
Entropy (-ST):   -0.345220
Local:           +2.896210
--------------------------
Free energy:   -168.984322
Extrapolated:  -168.811712

Fermi level: -4.90563

 Band  Eigenvalues  Occupancy
    0    -24.02600    2.00000
    1    -22.79590    2.00000
    2    -21.80174    2.00000
    3    -21.32985    2.00000
    4    -20.92819    2.00000
    5    -20.42953    2.00000
    6    -19.73448    2.00000
    7    -19.27942    2.00000
    8    -18.88378    2.00000
    9    -18.33090    2.00000
   10    -17.95461    2.00000
   11    -17.31728    2.00000
   12    -16.70826    2.00000
   13    -15.50375    2.00000
   14    -15.10697    2.00000
   15    -14.82795    2.00000
   16    -14.07938    2.00000
   17    -13.77864    2.00000
   18    -13.49251    2.00000
   19    -13.23732    2.00000
   20    -12.36174    2.00000
   21    -12.13262    2.00000
   22    -12.00506    2.00000
   23    -11.54269    2.00000
   24    -11.32872    2.00000
   25    -10.94654    2.00000
   26    -10.68342    2.00000
   27    -10.51391    2.00000
   28     -9.79278    2.00000
   29     -9.55846    2.00000
   30     -9.34953    2.00000
   31     -8.73450    2.00000
   32     -8.63345    2.00000
   33     -8.26905    2.00000
   34     -7.80900    2.00000
   35     -7.78461    2.00000
   36     -7.46835    2.00000
   37     -7.15923    2.00000
   38     -6.84266    2.00000
   39     -6.72397    2.00000
   40     -6.45452    2.00000
   41     -6.17654    1.99999
   42     -5.84531    1.99983
   43     -5.73056    1.99948
   44     -5.63398    1.99863
   45     -5.37383    1.98165
   46     -5.22107    1.91816
   47     -4.97862    1.34956
   48     -4.82703    0.62608
   49     -4.63445    0.12456
   50     -4.20006    0.00172
   51     -4.02839    0.00031
   52     -3.77434    0.00002
   53     -2.99595    0.00000
   54     -2.82036    0.00000
   55     -2.48581    0.00000
   56     -2.34239    0.00000
   57     -1.72665    0.00000
   58     -1.37806    0.00000
   59     -1.22269    0.00000
   60     -0.86389    0.00000
   61     -0.35190    0.00000
   62      0.31261    0.00000
   63      0.96698    0.00000
   64      1.59393    0.00000
   65      2.33462    0.00000
   66      2.56487    0.00000
   67      2.93697    0.00000
   68      3.45309    0.00000
   69      4.05794    0.00000
   70      4.27020    0.00000
   71      4.54891    0.00000
   72      4.86260    0.00000
   73      5.92492    0.00000
   74      6.00314    0.00000
   75      6.53479    0.00000
   76      6.75429    0.00000
   77      7.12565    0.00000
   78      7.40236    0.00000
   79      7.67095    0.00000
   80      7.87008    0.00000
   81      7.95337    0.00000
   82      8.17045    0.00000
   83      8.32503    0.00000
   84      8.42550    0.00000
   85      8.56407    0.00000
   86      8.84546    0.00000
   87      8.94510    0.00000
   88      9.03707    0.00000
   89      9.15095    0.00000
   90      9.20892    0.00000
   91      9.22528    0.00000
   92      9.47520    0.00000
   93      9.68919    0.00000
   94      9.81471    0.00000
   95      9.87829    0.00000
   96      9.96778    0.00000
   97     10.02203    0.00000


Forces in eV/Ang:
  0 C    -0.41501    1.90053    0.47995
  1 C    -0.42411    0.44736   -0.11348
  2 C    -0.57967    1.44697    0.43685
  3 C     0.70465    3.77888    1.42028
  4 C     0.23283   -0.71673    0.18901
  5 C     0.03367    0.19202   -0.47966
  6 C    -0.85628   -0.57369    0.56143
  7 C     0.65020    0.12597   -0.43176
  8 C    -0.74852    0.38895   -2.41021
  9 C    -0.60789    1.20154    0.18850
 10 C    -0.54544    1.37111   -0.01994
 11 C     0.29228   -0.44468   -0.29222
 12 C     1.52074   -0.02409    1.91658
 13 C     0.22672   -0.41847    0.05529
 14 C     0.11844   -0.00321   -0.15520
 15 C    -0.41542   -0.60038    1.08612
 16 C     0.13276   -0.66323    0.33060
 17 C     0.06252   -0.26649   -0.59457
 18 C     0.12142   -0.62798   -0.54726
 19 C     0.03475   -0.58989   -0.08415
 20 C    -0.11584   -2.82313   -0.46903
 21 C     0.52322   -0.53069   -0.52038
 22 C    -0.16351   -0.59703   -0.02388
 23 C     0.22309   -2.00425   -0.48956

System changes: positions 

Initializing position-dependent things.

Density initialized from wave functions
           .--------------------------------------.  
          /|                                      |  
         / |                                      |  
        /  |                                      |  
       /   |                                      |  
      /    |                                      |  
     /     |                                      |  
    /      |                  C                   |  
   /       |           C                          |  
  /        |    C  C    C     C C                 |  
 *         |        C     C    C                  |  
 |         | CC    C                              |  
 |         .----C------C-----C--------------------.  
 |        /    C  C     C   C                    /   
 |       /          C  C   C C                  /    
 |      /                                      /     
 |     /                                      /      
 |    /                                      /       
 |   /                                      /        
 |  /                                      /         
 | /                                      /          
 |/                                      /           
 *--------------------------------------*            

Positions:
   0 C      3.470375    7.717810    5.556153
   1 C      3.959348    8.927859    5.862515
   2 C      5.292707    8.792928    6.134580
   3 C      5.981146    7.548932    6.014579
   4 C      9.661099    9.251181    7.353500
   5 C     10.778325    7.001919    6.945936
   6 C      9.663957    7.913664    7.050781
   7 C     10.795669    5.727771    6.638166
   8 C      8.406321    7.304448    6.381219
   9 C      6.639833    9.310601    6.550563
  10 C      7.270911    8.079823    6.411096
  11 C     10.377324    4.524491    4.360290
  12 C      7.339375    5.982839    5.553926
  13 C      9.627855    3.483660    4.454309
  14 C      7.028080    3.082265    4.953022
  15 C      9.859645    7.122421    4.829741
  16 C      9.618566    5.711187    4.798053
  17 C      8.252767    3.687135    4.820507
  18 C      8.298215    5.159093    5.054621
  19 C      5.849518    3.598187    5.215535
  20 C      5.910020    6.282932    5.588191
  21 C      4.548817    5.601041    5.499237
  22 C      4.719728    4.220068    5.397922
  23 C      3.412520    6.436199    5.561012

Unit cell:
           periodic     x           y           z      points  spacing
  1. axis:    yes   16.000000    0.000000    0.000000    80     0.2000
  2. axis:    yes    0.000000   16.000000    0.000000    80     0.2000
  3. axis:    yes    0.000000    0.000000   10.000000    48     0.2083

Effective grid spacing dv^(1/3) = 0.2027

                     log10-error:    total        iterations:
           time      wfs    density  energy       fermi  poisson
iter:   1  10:13:57          +inf  -169.469134    3      5      
iter:   2  10:13:58         -1.96  -169.398753    3      2      
iter:   3  10:13:59         -2.24  -169.384274    3      2      
iter:   4  10:13:59         -2.35  -169.378875    2      1      
iter:   5  10:14:00         -2.44  -169.372098    2      2      
iter:   6  10:14:01         -2.66  -169.372293    2      2      
iter:   7  10:14:01         -2.68  -169.370762    2      2      
iter:   8  10:14:02         -2.92  -169.371197    2      1      
iter:   9  10:14:02         -3.03  -169.370247    2      2      
iter:  10  10:14:03         -3.26  -169.370586    2      1      
iter:  11  10:14:04         -3.44  -169.370473    2      1      
iter:  12  10:14:04         -3.55  -169.369799    2      1      
iter:  13  10:14:05         -3.74  -169.369966    2      1      
iter:  14  10:14:05         -3.84  -169.369996    2      1      
iter:  15  10:14:06         -3.99  -169.369894    1      1      
iter:  16  10:14:07         -4.16  -169.369889    2      1      

Converged after 16 iterations.

Dipole moment: (-0.580202, -0.296337, -0.170971) |e|*Ang

Energy contributions relative to reference atoms: (reference = -24663.074771)

Kinetic:       +126.343670
Potential:     -127.492776
External:        +0.000000
XC:            -170.948681
Entropy (-ST):   -0.327375
Local:           +2.891586
--------------------------
Free energy:   -169.533576
Extrapolated:  -169.369889

Fermi level: -4.88782

 Band  Eigenvalues  Occupancy
    0    -23.99139    2.00000
    1    -22.81559    2.00000
    2    -21.72733    2.00000
    3    -21.31197    2.00000
    4    -20.88211    2.00000
    5    -20.39326    2.00000
    6    -19.72713    2.00000
    7    -19.27266    2.00000
    8    -18.79940    2.00000
    9    -18.32623    2.00000
   10    -17.93495    2.00000
   11    -17.29337    2.00000
   12    -16.68005    2.00000
   13    -15.49806    2.00000
   14    -15.07189    2.00000
   15    -14.84739    2.00000
   16    -14.05363    2.00000
   17    -13.78183    2.00000
   18    -13.45971    2.00000
   19    -13.20869    2.00000
   20    -12.34832    2.00000
   21    -12.13698    2.00000
   22    -11.94610    2.00000
   23    -11.52007    2.00000
   24    -11.26542    2.00000
   25    -11.01667    2.00000
   26    -10.68582    2.00000
   27    -10.45998    2.00000
   28     -9.79323    2.00000
   29     -9.53810    2.00000
   30     -9.34586    2.00000
   31     -8.81114    2.00000
   32     -8.61657    2.00000
   33     -8.30752    2.00000
   34     -7.79658    2.00000
   35     -7.76700    2.00000
   36     -7.45565    2.00000
   37     -7.18902    2.00000
   38     -6.82020    2.00000
   39     -6.75321    2.00000
   40     -6.46918    2.00000
   41     -6.14959    1.99999
   42     -5.83419    1.99984
   43     -5.74656    1.99963
   44     -5.63152    1.99882
   45     -5.38224    1.98585
   46     -5.24547    1.94557
   47     -4.96394    1.36322
   48     -4.80025    0.58812
   49     -4.61003    0.11706
   50     -4.17413    0.00159
   51     -3.99826    0.00027
   52     -3.75934    0.00003
   53     -2.95757    0.00000
   54     -2.80661    0.00000
   55     -2.47196    0.00000
   56     -2.30550    0.00000
   57     -1.80079    0.00000
   58     -1.35729    0.00000
   59     -1.22970    0.00000
   60     -0.83845    0.00000
   61     -0.18577    0.00000
   62      0.33643    0.00000
   63      0.95157    0.00000
   64      1.54959    0.00000
   65      2.30445    0.00000
   66      2.55892    0.00000
   67      2.96310    0.00000
   68      3.45058    0.00000
   69      3.94669    0.00000
   70      4.22017    0.00000
   71      4.45371    0.00000
   72      4.86771    0.00000
   73      5.91720    0.00000
   74      5.98416    0.00000
   75      6.55334    0.00000
   76      6.77610    0.00000
   77      7.09260    0.00000
   78      7.38836    0.00000
   79      7.72529    0.00000
   80      7.87042    0.00000
   81      7.95729    0.00000
   82      8.16754    0.00000
   83      8.31529    0.00000
   84      8.36786    0.00000
   85      8.55619    0.00000
   86      8.83382    0.00000
   87      8.97905    0.00000
   88      9.01733    0.00000
   89      9.13342    0.00000
   90      9.19700    0.00000
   91      9.20626    0.00000
   92      9.44097    0.00000
   93      9.66538    0.00000
   94      9.78544    0.00000
   95      9.85495    0.00000
   96      9.93608    0.00000
   97     10.00142    0.00000


Forces in eV/Ang:
  0 C    -0.28495    0.59009    0.44327
  1 C    -0.60903    0.40424   -0.09824
  2 C    -0.57175    1.05123    0.34964
  3 C     0.60575    2.26594    0.90025
  4 C     0.22475   -0.68615    0.25719
  5 C    -0.17531    0.34575   -0.46607
  6 C    -0.79640   -0.74214    0.40164
  7 C     0.59609    0.11868   -0.45263
  8 C    -0.63578    0.03917   -2.34341
  9 C    -0.54128    1.40476    0.23503
 10 C    -0.45066    1.15999   -0.21988
 11 C     0.24423   -0.46092   -0.27648
 12 C     1.48723    0.34318    1.92614
 13 C     0.33064   -0.42760    0.00835
 14 C     0.12282   -0.11304   -0.15785
 15 C    -0.47636   -0.48798    1.18988
 16 C     0.26375   -0.72237    0.22669
 17 C     0.01865   -0.27740   -0.59728
 18 C    -0.04827   -0.45029   -0.31815
 19 C     0.02718   -0.55033   -0.10223
 20 C    -0.14972   -1.35659    0.01988
 21 C     0.64646   -0.19539   -0.40539
 22 C    -0.15107   -0.63583   -0.06021
 23 C     0.28081   -0.69511   -0.46797

System changes: positions 

Initializing position-dependent things.

Density initialized from wave functions
           .--------------------------------------.  
          /|                                      |  
         / |                                      |  
        /  |                                      |  
       /   |                                      |  
      /    |                                      |  
     /     |                                      |  
    /      |                  C                   |  
   /       |           C                          |  
  /        |    C  C    C    C  C                 |  
 *         |  C     C     C    C                  |  
 |         | C     C                              |  
 |         .----C------C-----C--------------------.  
 |        /    C  C     C   C                    /   
 |       /          C  C   C C                  /    
 |      /                                      /     
 |     /                                      /      
 |    /                                      /       
 |   /                                      /        
 |  /                                      /         
 | /                                      /          
 |/                                      /           
 *--------------------------------------*            

Positions:
   0 C      3.461829    7.722723    5.563964
   1 C      3.952861    8.936359    5.861632
   2 C      5.283351    8.816575    6.141621
   3 C      5.980042    7.569266    6.021917
   4 C      9.664568    9.239979    7.356945
   5 C     10.777390    7.007639    6.938791
   6 C      9.651037    7.902783    7.058770
   7 C     10.806214    5.728356    6.630782
   8 C      8.393987    7.309172    6.343462
   9 C      6.631299    9.329616    6.553402
  10 C      7.265523    8.102149    6.410386
  11 C     10.381424    4.516376    4.355523
  12 C      7.362273    5.983085    5.583174
  13 C      9.631949    3.477471    4.454917
  14 C      7.029086    3.081797    4.950635
  15 C      9.852637    7.113816    4.847874
  16 C      9.619517    5.699912    4.803287
  17 C      8.253888    3.682719    4.811073
  18 C      8.300005    5.151495    5.047278
  19 C      5.849891    3.589240    5.214010
  20 C      5.921235    6.276922    5.594917
  21 C      4.556840    5.592548    5.491424
  22 C      4.717995    4.209604    5.397150
  23 C      3.417004    6.428150    5.552332

Unit cell:
           periodic     x           y           z      points  spacing
  1. axis:    yes   16.000000    0.000000    0.000000    80     0.2000
  2. axis:    yes    0.000000   16.000000    0.000000    80     0.2000
  3. axis:    yes    0.000000    0.000000   10.000000    48     0.2083

Effective grid spacing dv^(1/3) = 0.2027

                     log10-error:    total        iterations:
           time      wfs    density  energy       fermi  poisson
iter:   1  10:14:09          +inf  -169.909716    2      5      
iter:   2  10:14:09         -2.03  -169.860737    3      2      
iter:   3  10:14:10         -2.29  -169.846685    3      2      
iter:   4  10:14:11         -2.39  -169.837764    2      2      
iter:   5  10:14:11         -2.61  -169.837823    2      1      
iter:   6  10:14:12         -2.70  -169.835945    3      2      
iter:   7  10:14:13         -2.79  -169.836228    2      1      
iter:   8  10:14:13         -2.96  -169.835265    2      2      
iter:   9  10:14:14         -3.14  -169.835636    2      1      
iter:  10  10:14:14         -3.23  -169.836052    2      1      
iter:  11  10:14:15         -3.48  -169.835257    2      1      
iter:  12  10:14:16         -3.60  -169.834974    2      1      
iter:  13  10:14:16         -3.71  -169.835127    2      1      
iter:  14  10:14:17         -3.85  -169.834859    2      1      
iter:  15  10:14:17         -3.95  -169.834756    2      1      
iter:  16  10:14:18         -4.09  -169.834952    2      1      

Converged after 16 iterations.

Dipole moment: (-0.577074, -0.283906, -0.156874) |e|*Ang

Energy contributions relative to reference atoms: (reference = -24663.074771)

Kinetic:       +121.351536
Potential:     -123.745427
External:        +0.000000
XC:            -170.168907
Entropy (-ST):   -0.314714
Local:           +2.885202
--------------------------
Free energy:   -169.992309
Extrapolated:  -169.834952

Fermi level: -4.87156

 Band  Eigenvalues  Occupancy
    0    -23.95817    2.00000
    1    -22.82597    2.00000
    2    -21.65401    2.00000
    3    -21.30376    2.00000
    4    -20.84622    2.00000
    5    -20.35821    2.00000
    6    -19.71506    2.00000
    7    -19.26449    2.00000
    8    -18.71813    2.00000
    9    -18.31249    2.00000
   10    -17.91773    2.00000
   11    -17.25667    2.00000
   12    -16.65487    2.00000
   13    -15.49316    2.00000
   14    -15.02852    2.00000
   15    -14.86190    2.00000
   16    -14.02947    2.00000
   17    -13.78070    2.00000
   18    -13.43407    2.00000
   19    -13.17444    2.00000
   20    -12.32892    2.00000
   21    -12.13083    2.00000
   22    -11.89364    2.00000
   23    -11.49294    2.00000
   24    -11.20465    2.00000
   25    -11.06398    2.00000
   26    -10.68140    2.00000
   27    -10.39112    2.00000
   28     -9.78527    2.00000
   29     -9.53347    2.00000
   30     -9.33555    2.00000
   31     -8.92242    2.00000
   32     -8.60304    2.00000
   33     -8.33883    2.00000
   34     -7.78506    2.00000
   35     -7.74602    2.00000
   36     -7.44327    2.00000
   37     -7.22821    2.00000
   38     -6.80882    2.00000
   39     -6.78330    2.00000
   40     -6.47695    2.00000
   41     -6.12996    1.99999
   42     -5.82509    1.99986
   43     -5.76641    1.99974
   44     -5.62058    1.99888
   45     -5.39260    1.98914
   46     -5.26705    1.96240
   47     -4.95073    1.37638
   48     -4.77626    0.55657
   49     -4.59221    0.11535
   50     -4.14712    0.00143
   51     -3.97209    0.00025
   52     -3.73563    0.00002
   53     -2.93080    0.00000
   54     -2.79608    0.00000
   55     -2.45786    0.00000
   56     -2.26652    0.00000
   57     -1.84355    0.00000
   58     -1.37613    0.00000
   59     -1.22277    0.00000
   60     -0.82471    0.00000
   61      0.02578    0.00000
   62      0.34799    0.00000
   63      0.92110    0.00000
   64      1.49620    0.00000
   65      2.27231    0.00000
   66      2.53396    0.00000
   67      2.96110    0.00000
   68      3.42610    0.00000
   69      3.83740    0.00000
   70      4.17445    0.00000
   71      4.38178    0.00000
   72      4.86113    0.00000
   73      5.86554    0.00000
   74      5.95132    0.00000
   75      6.52825    0.00000
   76      6.79018    0.00000
   77      7.06975    0.00000
   78      7.34835    0.00000
   79      7.75500    0.00000
   80      7.85208    0.00000
   81      7.95882    0.00000
   82      8.16380    0.00000
   83      8.28239    0.00000
   84      8.31722    0.00000
   85      8.55519    0.00000
   86      8.81750    0.00000
   87      8.98183    0.00000
   88      9.00700    0.00000
   89      9.10716    0.00000
   90      9.17760    0.00000
   91      9.20384    0.00000
   92      9.39777    0.00000
   93      9.63509    0.00000
   94      9.76098    0.00000
   95      9.81704    0.00000
   96      9.91587    0.00000
   97      9.99428    0.00000


Forces in eV/Ang:
  0 C    -0.16462   -0.24808    0.41850
  1 C    -0.68341    0.32068   -0.09067
  2 C    -0.55363    0.70474    0.28508
  3 C     0.46534    1.10369    0.50357
  4 C     0.23594   -0.70128    0.27143
  5 C    -0.23881    0.14628   -0.52803
  6 C    -0.83541   -0.72018    0.24828
  7 C     0.51447    0.34790   -0.38993
  8 C    -0.50254   -0.21991   -2.20457
  9 C    -0.43585    1.45137    0.26450
 10 C    -0.36597    1.08513   -0.38170
 11 C     0.23005   -0.37463   -0.26203
 12 C     1.29101    0.67065    1.84282
 13 C     0.31709   -0.48480   -0.01396
 14 C     0.20524   -0.21138   -0.17396
 15 C    -0.48768   -0.44892    1.24219
 16 C     0.35926   -0.65747    0.15495
 17 C    -0.03804   -0.26164   -0.57164
 18 C    -0.09653   -0.35307   -0.13305
 19 C    -0.07024   -0.46193   -0.07561
 20 C    -0.11700   -0.27093    0.41425
 21 C     0.74295    0.01726   -0.28653
 22 C    -0.12076   -0.62932   -0.07785
 23 C     0.33985    0.15489   -0.45094

System changes: positions 

Initializing position-dependent things.

Density initialized from wave functions
           .--------------------------------------.  
          /|                                      |  
         / |                                      |  
        /  |                                      |  
       /   |                                      |  
      /    |                                      |  
     /     |                                      |  
    /      |                  C                   |  
   /       |           C                          |  
  /        |    C  C    C    C  C                 |  
 *         |  C     C     C    C                  |  
 |         | C     C                              |  
 |         .----C------C-----C--------------------.  
 |        /    C        C   C                    /   
 |       /       C  C  C   C C                  /    
 |      /                                      /     
 |     /                                      /      
 |    /                                      /       
 |   /                                      /        
 |  /                                      /         
 | /                                      /          
 |/                                      /           
 *--------------------------------------*            

Positions:
   0 C      3.454946    7.726287    5.571348
   1 C      3.945794    8.944228    5.860837
   2 C      5.273907    8.837221    6.148352
   3 C      5.979441    7.588351    6.029124
   4 C      9.668365    9.227497    7.360603
   5 C     10.775770    7.011849    6.930609
   6 C      9.636691    7.892190    7.065435
   7 C     10.816380    5.730981    6.623544
   8 C      8.382186    7.311300    6.305302
   9 C      6.623528    9.349639    6.556631
  10 C      7.261235    8.125072    6.407667
  11 C     10.385639    4.508819    4.350588
  12 C      7.384283    5.986985    5.612641
  13 C      9.635860    3.470160    4.455303
  14 C      7.030888    3.080012    4.947933
  15 C      9.845110    7.105071    4.867738
  16 C      9.621587    5.689047    4.808071
  17 C      8.254579    3.678243    4.801394
  18 C      8.301142    5.145101    5.041952
  19 C      5.849476    3.580773    5.212712
  20 C      5.931074    6.272471    5.602746
  21 C      4.565971    5.585514    5.484622
  22 C      4.716256    4.199535    5.396214
  23 C      3.421959    6.421121    5.543872

Unit cell:
           periodic     x           y           z      points  spacing
  1. axis:    yes   16.000000    0.000000    0.000000    80     0.2000
  2. axis:    yes    0.000000   16.000000    0.000000    80     0.2000
  3. axis:    yes    0.000000    0.000000   10.000000    48     0.2083

Effective grid spacing dv^(1/3) = 0.2027

                     log10-error:    total        iterations:
           time      wfs    density  energy       fermi  poisson
iter:   1  10:14:20          +inf  -170.304470    2      5      
iter:   2  10:14:21         -2.07  -170.263046    3      2      
iter:   3  10:14:21         -2.30  -170.248441    3      2      
iter:   4  10:14:22         -2.41  -170.240218    3      2      
iter:   5  10:14:23         -2.62  -170.239750    2      1      
iter:   6  10:14:23         -2.70  -170.238015    3      2      
iter:   7  10:14:24         -2.84  -170.238116    2      1      
iter:   8  10:14:25         -2.96  -170.237483    2      2      
iter:   9  10:14:25         -3.16  -170.237698    2      1      
iter:  10  10:14:26         -3.25  -170.238139    2      1      
iter:  11  10:14:26         -3.54  -170.237274    1      1      
iter:  12  10:14:27         -3.63  -170.237026    2      1      
iter:  13  10:14:28         -3.79  -170.237222    2      1      
iter:  14  10:14:28         -3.90  -170.236955    2      1      
iter:  15  10:14:29         -4.02  -170.236899    2      1      

Converged after 15 iterations.

Dipole moment: (-0.573838, -0.273723, -0.146741) |e|*Ang

Energy contributions relative to reference atoms: (reference = -24663.074771)

Kinetic:       +116.761695
Potential:     -120.279705
External:        +0.000000
XC:            -169.439147
Entropy (-ST):   -0.304935
Local:           +2.872727
--------------------------
Free energy:   -170.389367
Extrapolated:  -170.236899

Fermi level: -4.86059

 Band  Eigenvalues  Occupancy
    0    -23.93232    2.00000
    1    -22.83040    2.00000
    2    -21.59142    2.00000
    3    -21.30680    2.00000
    4    -20.81989    2.00000
    5    -20.32930    2.00000
    6    -19.70344    2.00000
    7    -19.25949    2.00000
    8    -18.64669    2.00000
    9    -18.30224    2.00000
   10    -17.89898    2.00000
   11    -17.22777    2.00000
   12    -16.63276    2.00000
   13    -15.48826    2.00000
   14    -15.00128    2.00000
   15    -14.87268    2.00000
   16    -14.01312    2.00000
   17    -13.77113    2.00000
   18    -13.41498    2.00000
   19    -13.13582    2.00000
   20    -12.30968    2.00000
   21    -12.12297    2.00000
   22    -11.84576    2.00000
   23    -11.46501    2.00000
   24    -11.15827    2.00000
   25    -11.09332    2.00000
   26    -10.67400    2.00000
   27    -10.31560    2.00000
   28     -9.77610    2.00000
   29     -9.54186    2.00000
   30     -9.33182    2.00000
   31     -9.05226    2.00000
   32     -8.59580    2.00000
   33     -8.36801    2.00000
   34     -7.77406    2.00000
   35     -7.72857    2.00000
   36     -7.43271    2.00000
   37     -7.27013    2.00000
   38     -6.83907    2.00000
   39     -6.77231    2.00000
   40     -6.47744    2.00000
   41     -6.10955    1.99999
   42     -5.82108    1.99987
   43     -5.79357    1.99982
   44     -5.60901    1.99888
   45     -5.40852    1.99169
   46     -5.28542    1.97182
   47     -4.94349    1.39227
   48     -4.75871    0.53051
   49     -4.57965    0.11364
   50     -4.12280    0.00125
   51     -3.95761    0.00024
   52     -3.70513    0.00002
   53     -2.91204    0.00000
   54     -2.79306    0.00000
   55     -2.44687    0.00000
   56     -2.23100    0.00000
   57     -1.87298    0.00000
   58     -1.39085    0.00000
   59     -1.20556    0.00000
   60     -0.81156    0.00000
   61      0.25337    0.00000
   62      0.39054    0.00000
   63      0.87889    0.00000
   64      1.43949    0.00000
   65      2.23106    0.00000
   66      2.50479    0.00000
   67      2.93212    0.00000
   68      3.38832    0.00000
   69      3.73631    0.00000
   70      4.13959    0.00000
   71      4.31346    0.00000
   72      4.84274    0.00000
   73      5.78731    0.00000
   74      5.92703    0.00000
   75      6.46231    0.00000
   76      6.80382    0.00000
   77      7.04631    0.00000
   78      7.29576    0.00000
   79      7.73533    0.00000
   80      7.83703    0.00000
   81      7.95822    0.00000
   82      8.15680    0.00000
   83      8.23380    0.00000
   84      8.28433    0.00000
   85      8.55118    0.00000
   86      8.79714    0.00000
   87      8.93786    0.00000
   88      9.00973    0.00000
   89      9.09638    0.00000
   90      9.15356    0.00000
   91      9.20279    0.00000
   92      9.35440    0.00000
   93      9.59715    0.00000
   94      9.73222    0.00000
   95      9.77847    0.00000
   96      9.90287    0.00000
   97      9.98465    0.00000


Forces in eV/Ang:
  0 C    -0.03838   -0.93959    0.34296
  1 C    -0.71662    0.24617   -0.07222
  2 C    -0.58954    0.44689    0.23586
  3 C     0.30043    0.21753    0.21510
  4 C     0.23715   -0.68631    0.30624
  5 C    -0.36383    0.18112   -0.55995
  6 C    -0.82359   -0.77514    0.12230
  7 C     0.48787    0.38546   -0.39202
  8 C    -0.40006   -0.37016   -1.98350
  9 C    -0.34097    1.44188    0.24335
 10 C    -0.23020    0.98291   -0.56679
 11 C     0.16100   -0.35095   -0.23287
 12 C     1.18500    0.86292    1.63680
 13 C     0.34432   -0.46915   -0.04610
 14 C     0.17578   -0.27556   -0.16560
 15 C    -0.50276   -0.39520    1.27418
 16 C     0.40552   -0.64404    0.12361
 17 C    -0.07031   -0.21245   -0.50208
 18 C    -0.14547   -0.20308    0.06633
 19 C    -0.04919   -0.45166   -0.08096
 20 C    -0.09834    0.57150    0.70925
 21 C     0.79906    0.17512   -0.15271
 22 C    -0.10312   -0.58569   -0.08638
 23 C     0.38509    0.84624   -0.39191

System changes: positions 

Initializing position-dependent things.

Density initialized from wave functions
           .--------------------------------------.  
          /|                                      |  
         / |                                      |  
        /  |                                      |  
[...]
    3    -21.35233    2.00000
    4    -21.17085    2.00000
    5    -20.45867    2.00000
    6    -19.66867    2.00000
    7    -19.29115    2.00000
    8    -18.82808    2.00000
    9    -18.07167    2.00000
   10    -17.70876    2.00000
   11    -17.40905    2.00000
   12    -16.52117    2.00000
   13    -15.56900    2.00000
   14    -15.38299    2.00000
   15    -14.76094    2.00000
   16    -13.98227    2.00000
   17    -13.55304    2.00000
   18    -13.48591    2.00000
   19    -12.87851    2.00000
   20    -12.26235    2.00000
   21    -11.98085    2.00000
   22    -11.42499    2.00000
   23    -11.22014    2.00000
   24    -11.06845    2.00000
   25    -10.97935    2.00000
   26    -10.64003    2.00000
   27    -10.48905    2.00000
   28    -10.01091    2.00000
   29     -9.69733    2.00000
   30     -9.57845    2.00000
   31     -9.47914    2.00000
   32     -9.37434    2.00000
   33     -8.81943    2.00000
   34     -8.43521    2.00000
   35     -8.16017    2.00000
   36     -7.92220    2.00000
   37     -7.39264    2.00000
   38     -7.20857    2.00000
   39     -7.04971    2.00000
   40     -6.68931    2.00000
   41     -6.17522    2.00000
   42     -5.89282    1.99999
   43     -5.62668    1.99986
   44     -5.42867    1.99902
   45     -5.20871    1.99117
   46     -4.94162    1.87952
   47     -4.80795    1.60771
   48     -4.56201    0.51893
   49     -4.03056    0.00344
   50     -3.80230    0.00035
   51     -3.44594    0.00001
   52     -2.95221    0.00000
   53     -2.81977    0.00000
   54     -2.12744    0.00000
   55     -1.87954    0.00000
   56     -1.36659    0.00000
   57     -1.08317    0.00000
   58     -0.98000    0.00000
   59      0.48749    0.00000
   60      0.83862    0.00000
   61      1.00399    0.00000
   62      1.78719    0.00000
   63      2.04390    0.00000
   64      2.23607    0.00000
   65      2.56058    0.00000
   66      3.22319    0.00000
   67      3.65789    0.00000
   68      3.85268    0.00000
   69      4.25971    0.00000
   70      4.89010    0.00000
   71      4.91295    0.00000
   72      5.32772    0.00000
   73      5.77707    0.00000
   74      6.10311    0.00000
   75      6.43418    0.00000
   76      6.73736    0.00000
   77      6.90557    0.00000
   78      7.07561    0.00000
   79      7.26912    0.00000
   80      7.54850    0.00000
   81      7.87591    0.00000
   82      8.02467    0.00000
   83      8.13020    0.00000
   84      8.37337    0.00000
   85      8.65942    0.00000
   86      8.74331    0.00000
   87      8.94445    0.00000
   88      9.06967    0.00000
   89      9.15164    0.00000
   90      9.23074    0.00000
   91      9.34220    0.00000
   92      9.62391    0.00000
   93      9.64652    0.00000
   94      9.78606    0.00000
   95      9.92113    0.00000
   96      9.95846    0.00000
   97     10.15635    0.00000


Forces in eV/Ang:
  0 C     0.02493   -0.06015    0.03187
  1 C     0.07077    0.01406    0.00056
  2 C    -0.04836    0.04474   -0.04440
  3 C    -0.02416    0.01351   -0.01288
  4 C     0.11100    0.01947   -0.11730
  5 C     0.06775    0.08203    0.16198
  6 C     0.04625    0.00469   -0.04202
  7 C    -0.11177   -0.08583   -0.08923
  8 C    -0.04283    0.03947   -0.02025
  9 C    -0.02310   -0.02953    0.04383
 10 C    -0.02106   -0.02464    0.06046
 11 C     0.01851   -0.01056   -0.05550
 12 C    -0.03965   -0.02797    0.03140
 13 C     0.02534    0.00916    0.07275
 14 C     0.02048   -0.00223    0.00908
 15 C     0.00694    0.02425    0.01435
 16 C    -0.01568   -0.00888    0.01330
 17 C    -0.00951   -0.02622   -0.01767
 18 C    -0.00382   -0.04773    0.03847
 19 C    -0.01613   -0.00063   -0.04268
 20 C    -0.02902    0.04891    0.01775
 21 C    -0.02173   -0.01458   -0.00926
 22 C     0.04378   -0.05675   -0.03103
 23 C     0.00679    0.00517   -0.02164

System changes: positions 

Initializing position-dependent things.

Density initialized from wave functions
           .--------------------------------------.  
          /|                                      |  
         / |                                      |  
        /  |                                      |  
       /   |                                      |  
      /    |                                      |  
     /     |                                      |  
    /      |                                      |  
   /       |           C   C  C   C               |  
  /        |    C   C                             |  
 *         |  C      C  C C     C                 |  
 |         |  C     C  C     C                    |  
 |         .----C---------------------------------.  
 |        /    C        C   C                    /   
 |       /       C     C     C                  /    
 |      /           C     C                    /     
 |     /                                      /      
 |    /                                      /       
 |   /                                      /        
 |  /                                      /         
 | /                                      /          
 |/                                      /           
 *--------------------------------------*            

Positions:
   0 C      3.507940    7.819496    5.924512
   1 C      4.008005    9.058429    6.197501
   2 C      5.352115    9.048672    5.948391
   3 C      6.121022    7.835534    5.539813
   4 C     10.034216    7.791048    7.616007
   5 C     10.796559    7.287455    6.297644
   6 C      8.835131    7.281192    7.556930
   7 C     11.345507    8.196519    7.137800
   8 C      8.356474    7.151917    6.078640
   9 C      6.729118    9.273527    6.444424
  10 C      7.478644    8.340025    5.662901
  11 C     10.290781    4.240299    4.510662
  12 C      7.402983    5.975536    5.686882
  13 C      9.452363    3.313598    4.220836
  14 C      6.841695    2.953070    4.535837
  15 C      9.749729    6.703568    5.498057
  16 C      9.603567    5.427911    4.966151
  17 C      8.050400    3.600059    4.513829
  18 C      8.172210    5.026095    5.025833
  19 C      5.745577    3.580633    4.972629
  20 C      5.995239    6.415213    5.751832
  21 C      4.721054    5.703464    5.660627
  22 C      4.756981    4.312456    5.352108
  23 C      3.577666    6.550045    5.803612

Unit cell:
           periodic     x           y           z      points  spacing
  1. axis:    yes   16.000000    0.000000    0.000000    80     0.2000
  2. axis:    yes    0.000000   16.000000    0.000000    80     0.2000
  3. axis:    yes    0.000000    0.000000   10.000000    48     0.2083

Effective grid spacing dv^(1/3) = 0.2027

                     log10-error:    total        iterations:
           time      wfs    density  energy       fermi  poisson
iter:   1  10:33:02          +inf  -177.566473    3      4      
iter:   2  10:33:03         -2.82  -177.562889    3      1      
iter:   3  10:33:04         -3.13  -177.561911    2      1      
iter:   4  10:33:04         -3.25  -177.562185    2      1      
iter:   5  10:33:05         -3.38  -177.561609    2      1      
iter:   6  10:33:05         -3.44  -177.565106    3      1      
iter:   7  10:33:06         -3.02  -177.562937    2      1      
iter:   8  10:33:07         -3.59  -177.561812    2      1      
iter:   9  10:33:07         -3.88  -177.562331    2      1      
iter:  10  10:33:08         -3.72  -177.561380    2      1      
iter:  11  10:33:08         -3.60  -177.561517    2      1      
iter:  12  10:33:09         -3.92  -177.561989    2      1      
iter:  13  10:33:10         -4.13  -177.561830    2      1      

Converged after 13 iterations.

Dipole moment: (-0.123830, 0.039319, -0.284731) |e|*Ang

Energy contributions relative to reference atoms: (reference = -24663.074771)

Kinetic:       +111.792536
Potential:     -116.620661
External:        +0.000000
XC:            -175.557741
Entropy (-ST):   -0.268246
Local:           +2.958159
--------------------------
Free energy:   -177.695954
Extrapolated:  -177.561830

Fermi level: -4.66818

 Band  Eigenvalues  Occupancy
    0    -23.98006    2.00000
    1    -23.30633    2.00000
    2    -22.48250    2.00000
    3    -21.34627    2.00000
    4    -21.17482    2.00000
    5    -20.46040    2.00000
    6    -19.67177    2.00000
    7    -19.29061    2.00000
    8    -18.83381    2.00000
    9    -18.07311    2.00000
   10    -17.70744    2.00000
   11    -17.41082    2.00000
   12    -16.52075    2.00000
   13    -15.56962    2.00000
   14    -15.38551    2.00000
   15    -14.75746    2.00000
   16    -13.98322    2.00000
   17    -13.55504    2.00000
   18    -13.48462    2.00000
   19    -12.88074    2.00000
   20    -12.26237    2.00000
   21    -11.97740    2.00000
   22    -11.42228    2.00000
   23    -11.22155    2.00000
   24    -11.06914    2.00000
   25    -10.98311    2.00000
   26    -10.63976    2.00000
   27    -10.49062    2.00000
   28    -10.01118    2.00000
   29     -9.69933    2.00000
   30     -9.57791    2.00000
   31     -9.48754    2.00000
   32     -9.37340    2.00000
   33     -8.81607    2.00000
   34     -8.44688    2.00000
   35     -8.16174    2.00000
   36     -7.92119    2.00000
   37     -7.39185    2.00000
   38     -7.20862    2.00000
   39     -7.05095    2.00000
   40     -6.68982    2.00000
   41     -6.17761    2.00000
   42     -5.89732    1.99999
   43     -5.62787    1.99986
   44     -5.42901    1.99901
   45     -5.21335    1.99146
   46     -4.94300    1.87962
   47     -4.80934    1.60801
   48     -4.56315    0.51833
   49     -4.02951    0.00336
   50     -3.80174    0.00035
   51     -3.43662    0.00001
   52     -2.95392    0.00000
   53     -2.82062    0.00000
   54     -2.12437    0.00000
   55     -1.88183    0.00000
   56     -1.36393    0.00000
   57     -1.08571    0.00000
   58     -0.98125    0.00000
   59      0.48666    0.00000
   60      0.83617    0.00000
   61      0.99560    0.00000
   62      1.77900    0.00000
   63      2.04468    0.00000
   64      2.23837    0.00000
   65      2.56070    0.00000
   66      3.22805    0.00000
   67      3.65311    0.00000
   68      3.84608    0.00000
   69      4.24943    0.00000
   70      4.87685    0.00000
   71      4.91375    0.00000
   72      5.32743    0.00000
   73      5.78550    0.00000
   74      6.10258    0.00000
   75      6.43579    0.00000
   76      6.73467    0.00000
   77      6.89976    0.00000
   78      7.06876    0.00000
   79      7.26510    0.00000
   80      7.54996    0.00000
   81      7.87458    0.00000
   82      8.02628    0.00000
   83      8.13145    0.00000
   84      8.37169    0.00000
   85      8.65823    0.00000
   86      8.74580    0.00000
   87      8.94535    0.00000
   88      9.06808    0.00000
   89      9.15008    0.00000
   90      9.23129    0.00000
   91      9.34129    0.00000
   92      9.61879    0.00000
   93      9.64312    0.00000
   94      9.78010    0.00000
   95      9.91649    0.00000
   96      9.95634    0.00000
   97     10.15535    0.00000


Forces in eV/Ang:
  0 C     0.02055   -0.05004    0.02658
  1 C     0.04870    0.00751    0.00296
  2 C    -0.02739    0.02504   -0.03159
  3 C    -0.03081    0.02055   -0.01665
  4 C     0.08736   -0.00102   -0.11771
  5 C     0.05870    0.05115    0.10624
  6 C     0.02018    0.00589   -0.01915
  7 C    -0.04582   -0.03411   -0.05298
  8 C    -0.05443    0.04655   -0.03943
  9 C    -0.01953   -0.01474    0.03229
 10 C    -0.02524   -0.02596    0.07816
 11 C     0.03665    0.00566   -0.05154
 12 C    -0.04322   -0.03329    0.02827
 13 C     0.00727   -0.00788    0.07341
 14 C     0.00859   -0.00145    0.01398
 15 C     0.00116    0.02195    0.02798
 16 C    -0.00618   -0.00221    0.01262
 17 C     0.00090   -0.02877   -0.02521
 18 C    -0.01256   -0.05483    0.03377
 19 C    -0.04164    0.00359   -0.04428
 20 C    -0.03050    0.04055    0.00087
 21 C    -0.00035   -0.02573    0.01695
 22 C     0.06011   -0.02974   -0.03620
 23 C     0.03524   -0.00447   -0.02675

System changes: positions 

Initializing position-dependent things.

Density initialized from wave functions
           .--------------------------------------.  
          /|                                      |  
         / |                                      |  
        /  |                                      |  
       /   |                                      |  
      /    |                                      |  
     /     |                                      |  
    /      |                                      |  
   /       |           C   C  C   C               |  
  /        |    C   C                             |  
 *         |  C      C  C C     C                 |  
 |         |  C     C  C     C                    |  
 |         .----C---------------------------------.  
 |        /    C        C   C                    /   
 |       /       C     C     C                  /    
 |      /           C     C                    /     
 |     /                                      /      
 |    /                                      /       
 |   /                                      /        
 |  /                                      /         
 | /                                      /          
 |/                                      /           
 *--------------------------------------*            

Positions:
   0 C      3.510716    7.818123    5.927994
   1 C      4.011171    9.056473    6.199191
   2 C      5.353785    9.049416    5.946466
   3 C      6.121104    7.835024    5.537093
   4 C     10.038020    7.802319    7.610979
   5 C     10.796040    7.287147    6.302220
   6 C      8.843020    7.281618    7.554512
   7 C     11.347854    8.203237    7.131035
   8 C      8.355325    7.150486    6.080849
   9 C      6.728544    9.266681    6.451228
  10 C      7.478783    8.337194    5.665464
  11 C     10.292590    4.241110    4.509120
  12 C      7.400595    5.972649    5.691464
  13 C      9.454206    3.314037    4.222143
  14 C      6.843513    2.952390    4.531788
  15 C      9.749475    6.701792    5.501234
  16 C      9.603173    5.426410    4.968972
  17 C      8.051924    3.599516    4.513584
  18 C      8.171984    5.023970    5.029849
  19 C      5.746979    3.579764    4.970254
  20 C      5.992019    6.414214    5.750493
  21 C      4.717176    5.701955    5.655579
  22 C      4.756125    4.308794    5.348077
  23 C      3.573192    6.548330    5.800704

Unit cell:
           periodic     x           y           z      points  spacing
  1. axis:    yes   16.000000    0.000000    0.000000    80     0.2000
  2. axis:    yes    0.000000   16.000000    0.000000    80     0.2000
  3. axis:    yes    0.000000    0.000000   10.000000    48     0.2083

Effective grid spacing dv^(1/3) = 0.2027

                     log10-error:    total        iterations:
           time      wfs    density  energy       fermi  poisson
iter:   1  10:33:12          +inf  -177.571027    3      5      
iter:   2  10:33:12         -2.65  -177.565886    3      1      
iter:   3  10:33:13         -2.93  -177.564581    2      1      
iter:   4  10:33:14         -3.03  -177.565120    2      1      
iter:   5  10:33:14         -3.17  -177.564025    2      1      
iter:   6  10:33:15         -3.22  -177.567495    3      1      
iter:   7  10:33:15         -3.00  -177.566159    2      1      
iter:   8  10:33:16         -3.34  -177.564504    2      1      
iter:   9  10:33:17         -3.78  -177.564963    2      1      
iter:  10  10:33:17         -3.62  -177.564533    2      1      
iter:  11  10:33:18         -4.16  -177.564286    2      1      

Converged after 11 iterations.

Dipole moment: (-0.126401, 0.039486, -0.278412) |e|*Ang

Energy contributions relative to reference atoms: (reference = -24663.074771)

Kinetic:       +111.946221
Potential:     -116.745210
External:        +0.000000
XC:            -175.589700
Entropy (-ST):   -0.268350
Local:           +2.958578
--------------------------
Free energy:   -177.698461
Extrapolated:  -177.564286

Fermi level: -4.66967

 Band  Eigenvalues  Occupancy
    0    -23.98722    2.00000
    1    -23.33823    2.00000
    2    -22.49405    2.00000
    3    -21.33970    2.00000
    4    -21.18102    2.00000
    5    -20.46301    2.00000
    6    -19.67512    2.00000
    7    -19.28913    2.00000
    8    -18.84423    2.00000
    9    -18.07770    2.00000
   10    -17.70223    2.00000
   11    -17.41656    2.00000
   12    -16.51685    2.00000
   13    -15.57130    2.00000
   14    -15.38766    2.00000
   15    -14.75520    2.00000
   16    -13.98220    2.00000
   17    -13.55651    2.00000
   18    -13.48163    2.00000
   19    -12.88396    2.00000
   20    -12.26304    2.00000
   21    -11.97391    2.00000
   22    -11.41859    2.00000
   23    -11.22482    2.00000
   24    -11.07043    2.00000
   25    -10.98561    2.00000
   26    -10.64057    2.00000
   27    -10.49639    2.00000
   28    -10.01225    2.00000
   29     -9.70192    2.00000
   30     -9.57599    2.00000
   31     -9.50370    2.00000
   32     -9.37448    2.00000
   33     -8.81351    2.00000
   34     -8.46403    2.00000
   35     -8.16406    2.00000
   36     -7.91865    2.00000
   37     -7.39173    2.00000
   38     -7.20841    2.00000
   39     -7.05155    2.00000
   40     -6.69015    2.00000
   41     -6.18008    2.00000
   42     -5.90402    1.99999
   43     -5.62940    1.99986
   44     -5.43139    1.99902
   45     -5.22041    1.99192
   46     -4.94443    1.87956
   47     -4.81026    1.60624
   48     -4.56502    0.51978
   49     -4.02872    0.00329
   50     -3.80093    0.00034
   51     -3.42239    0.00001
   52     -2.95501    0.00000
   53     -2.82003    0.00000
   54     -2.12140    0.00000
   55     -1.88205    0.00000
   56     -1.36283    0.00000
   57     -1.09028    0.00000
   58     -0.98090    0.00000
   59      0.47988    0.00000
   60      0.83289    0.00000
   61      0.98580    0.00000
   62      1.77717    0.00000
   63      2.04433    0.00000
   64      2.24141    0.00000
   65      2.56054    0.00000
   66      3.23195    0.00000
   67      3.64965    0.00000
   68      3.83890    0.00000
   69      4.23745    0.00000
   70      4.85710    0.00000
   71      4.90991    0.00000
   72      5.32572    0.00000
   73      5.80390    0.00000
   74      6.10456    0.00000
   75      6.43770    0.00000
   76      6.72411    0.00000
   77      6.89111    0.00000
   78      7.06315    0.00000
   79      7.26191    0.00000
   80      7.55639    0.00000
   81      7.87530    0.00000
   82      8.02755    0.00000
   83      8.12751    0.00000
   84      8.36872    0.00000
   85      8.65779    0.00000
   86      8.74787    0.00000
   87      8.94619    0.00000
   88      9.06486    0.00000
   89      9.14495    0.00000
   90      9.23208    0.00000
   91      9.33962    0.00000
   92      9.60957    0.00000
   93      9.63652    0.00000
   94      9.77083    0.00000
   95      9.90849    0.00000
   96      9.95348    0.00000
   97     10.15502    0.00000


Forces in eV/Ang:
  0 C     0.00130   -0.04079    0.00421
  1 C    -0.00267   -0.00719    0.01087
  2 C     0.00815   -0.00921   -0.01025
  3 C    -0.04039    0.00230   -0.02537
  4 C     0.03721   -0.01073   -0.07445
  5 C     0.02541    0.00219    0.00211
  6 C    -0.00511    0.00463    0.00443
  7 C     0.07695    0.05428   -0.01880
  8 C    -0.03650    0.01792   -0.03834
  9 C    -0.00988    0.00599    0.00979
 10 C    -0.02936   -0.01982    0.07880
 11 C     0.02959    0.01693   -0.03555
 12 C    -0.02610   -0.02432    0.00554
 13 C    -0.00084   -0.01855    0.06031
 14 C    -0.02008   -0.01667   -0.00198
 15 C    -0.01727    0.00171    0.04101
 16 C     0.00063    0.00534    0.01717
 17 C    -0.00566   -0.03637   -0.01369
 18 C    -0.01014   -0.04217    0.03055
 19 C    -0.02686   -0.02053   -0.06217
 20 C    -0.01280    0.01082   -0.01304
 21 C     0.03133   -0.03102    0.04863
 22 C     0.03890    0.02982   -0.03173
 23 C     0.06743   -0.01068   -0.03116

