
  ___ ___ ___ _ _ _  
 |   |   |_  | | | | 
 | | | | | . | | | | 
 |__ |  _|___|_____|  1.3.0b1
 |___|_|             

User:   esb@s65n72.grendel.cscaa.dk
Date:   Wed Nov  8 17:09:53 2017
Arch:   x86_64
Pid:    98504
Python: 2.7.13
gpaw:   /home/esb/DFT/gpaw_git/gpaw
_gpaw:  /home/esb/DFT/gpaw_git/build/bin.linux-x86_64-2.7/gpaw-python
ase:    /home/esb/DFT/ase_git/ase (version 3.15.0b1)
numpy:  /comm/swstack/core/python/2.7.13/lib/python2.7/site-packages/numpy (version 1.13.3)
scipy:  /comm/swstack/core/python/2.7.13/lib/python2.7/site-packages/scipy (version 0.19.1)
units:  Angstrom and eV
cores:  16
Extra parameters: {'blacs': True}

Input parameters:
  basis: dzp
  gpts: [80 80 48]
  kpts: [1 1 1]
  maxiter: 99
  mixer: {backend: pulay,
          beta: 0.05,
          method: separate,
          nmaxold: 5,
          weight: 75}
  mode: lcao
  nbands: -50
  occupations: {name: fermi-dirac,
                width: 0.1}
  poissonsolver: {eps: 1e-07,
                  name: fd,
                  nn: 3,
                  relax: GS}
  xc: PBE

System changes: positions, numbers, cell, pbc, initial_charges, initial_magmoms 

Initialize ...

C-setup:
  name: Carbon
  id: 4aa54d4b901d75f77cc0ea3eec22967b
  Z: 6
  valence: 4
  core: 2
  charge: 0.0
  file: /home/esb/DFT/gpaw-setups-0.8.7929/C.PBE.gz
  cutoffs: 0.64(comp), 1.14(filt), 1.14(core), lmax=2
  valence states:
                energy  radius
    2s(2.00)   -13.751   0.635
    2p(2.00)    -5.284   0.635
    *s          13.461   0.635
    *p          21.927   0.635
    *d           0.000   0.635

  LCAO basis set for C:
    Name: dzp
    File: /home/esb/DFT/gpaw-setups-0.8.7929/C.dzp.basis.gz
    Number of radial functions: 5
    Number of spherical harmonics: 13
      l=0, rc=5.5469 Bohr: 2s-sz confined orbital
      l=1, rc=6.6719 Bohr: 2p-sz confined orbital
      l=0, rc=3.0312 Bohr: 2s-dz split-valence wave
      l=1, rc=3.7500 Bohr: 2p-dz split-valence wave
      l=2, rc=6.6719 Bohr: d-type Gaussian polarization

Reference energy: -24663.074771

Spin-paired calculation

Occupation numbers:
  Fermi-Dirac: width=0.1000 eV

Convergence criteria:
  Maximum total energy change: 0.0005 eV / electron
  Maximum integral of absolute density change: 0.0001 electrons
  Maximum integral of absolute eigenstate change: 4e-08 eV^2
  Maximum number of iterations: 99

Symmetries present (total): 1

  ( 1  0  0)
  ( 0  1  0)
  ( 0  0  1)

1 k-point (Gamma)
1 k-point in the irreducible part of the Brillouin zone
       k-points in crystal coordinates                weights
   0:     0.00000000    0.00000000    0.00000000          1/1

Wave functions: LCAO
  Diagonalizer: Serial LAPACK
  Atomic Correction: dense with blas
  Datatype: float
  Eigensolver: None 

LCAO using direct dense diagonalizer 

Densities:
  Coarse grid: 80*80*48 grid
  Fine grid: 160*160*96 grid
  Total Charge: 0.000000 

Density mixing:
  Method: separate
  Backend: pulay
  Linear mixing parameter: 0.05
  Mixing with 5 old densities
  Damping of long wave oscillations: 75 

Hamiltonian:
  XC and Coulomb potentials evaluated on a 160*160*96 grid
  Using the PBE Exchange-Correlation functional
  Interpolation: tri-quintic (5. degree polynomial)
  Poisson solver: Gauss-Seidel solver with 6 multi-grid levels
    Coarsest grid: 5 x 5 x 3 points
    Stencil: 6*3+1=19 point O(h^6) finite-difference Laplacian
    Max iterations: 1000
    Tolerance: 1.000000e-07 

Memory estimate:
  Process memory now: 77.59 MiB
  Calculator: 15.59 MiB
    Density: 6.13 MiB
      Arrays: 3.81 MiB
      Localized functions: 0.86 MiB
      Mixer: 1.46 MiB
    Hamiltonian: 5.40 MiB
      Arrays: 2.49 MiB
      XC: 0.00 MiB
      Poisson: 2.85 MiB
      vbar: 0.07 MiB
    Wavefunctions: 4.05 MiB
      C [qnM]: 0.23 MiB
      S, T [2 x qmm]: 1.49 MiB
      P [aqMi]: 0.01 MiB
      TCI: 0.00 MiB
      BasisFunctions: 2.33 MiB
      Eigensolver: 0.00 MiB

Total number of cores used: 16
Domain decomposition: 2 x 4 x 2

Number of atoms: 24
Number of atomic orbitals: 312
Number of bands in calculation: 98
Bands to converge: occupied states only
Number of valence electrons: 96

... initialized

Initializing position-dependent things.

Density initialized from atomic densities
           .--------------------------------------.  
          /|                                      |  
         / |                                      |  
        /  |                                      |  
       /   |                                      |  
      /    |                                      |  
     /     |                                      |  
    /      |                                      |  
   /       |                                      |  
  /        |          C C     C  C                |  
 *         |      C C      C C     C              |  
 |         |      C       C       C               |  
 |         .-----C--C--C-----C-C---C--------------.  
 |        /         C   C CC C                   /   
 |       /          C                           /    
 |      /                                      /     
 |     /                                      /      
 |    /                                      /       
 |   /                                      /        
 |  /                                      /         
 | /                                      /          
 |/                                      /           
 *--------------------------------------*            

Positions:
   0 C      6.209303    9.711669    5.849094
   1 C     12.064704    7.009948    5.090786
   2 C      5.986732    7.697312    6.106887
   3 C      7.976040    5.286059    4.767983
   4 C      9.054831    5.982747    4.522399
   5 C      6.542179    5.285819    4.384965
   6 C      6.612482   10.907152    4.779063
   7 C      4.761659    6.879339    4.508748
   8 C      6.020439    6.450618    5.135266
   9 C     11.369822    8.513174    4.554941
  10 C     10.421901   10.378804    5.188740
  11 C      8.981544    9.172410    5.471305
  12 C     10.351991    4.966336    4.940739
  13 C     10.814364    6.323872    5.012344
  14 C      9.776781    7.091201    4.960558
  15 C      9.242723   10.874408    4.785717
  16 C      6.318616    6.522791    3.217061
  17 C      4.712895    8.149683    5.275256
  18 C      7.870382    9.126750    4.720130
  19 C      7.097084    7.581277    4.224549
  20 C      7.910171   10.371894    4.735445
  21 C      9.171731    4.515423    4.816799
  22 C     11.575147    9.549582    5.005885
  23 C      4.427046    9.766205    4.787234

Unit cell:
           periodic     x           y           z      points  spacing
  1. axis:    yes   16.000000    0.000000    0.000000    80     0.2000
  2. axis:    yes    0.000000   16.000000    0.000000    80     0.2000
  3. axis:    yes    0.000000    0.000000   10.000000    48     0.2083

Effective grid spacing dv^(1/3) = 0.2027

                     log10-error:    total        iterations:
           time      wfs    density  energy       fermi  poisson
iter:   1  17:09:55          +inf  -154.010829    3      6      
iter:   2  17:09:55         -0.89  -152.697542    3      3      
iter:   3  17:09:56         -0.93  -150.791037    3      3      
iter:   4  17:09:56         -1.04  -149.924930    4      3      
iter:   5  17:09:57         -1.17  -149.458841    34     3      
iter:   6  17:09:57         -1.43  -149.425043    3      3      
iter:   7  17:09:58         -1.56  -149.328671    3      3      
iter:   8  17:09:58         -1.75  -149.292701    3      3      
iter:   9  17:09:59         -1.92  -149.281798    3      2      
iter:  10  17:10:00         -2.02  -149.274888    3      2      
iter:  11  17:10:00         -2.20  -149.267652    3      2      
iter:  12  17:10:01         -2.31  -149.262828    3      2      
iter:  13  17:10:01         -2.49  -149.260918    3      2      
iter:  14  17:10:02         -2.70  -149.261020    2      2      
iter:  15  17:10:02         -2.95  -149.262981    2      1      
iter:  16  17:10:03         -3.09  -149.259329    2      1      
iter:  17  17:10:03         -3.22  -149.257113    2      1      
iter:  18  17:10:04         -3.30  -149.260335    2      1      
iter:  19  17:10:04         -3.40  -149.262025    2      1      
iter:  20  17:10:05         -3.52  -149.261251    2      1      
iter:  21  17:10:05         -3.59  -149.262683    2      1      
iter:  22  17:10:05         -3.83  -149.261254    2      1      
iter:  23  17:10:06         -3.93  -149.260404    2      1      
iter:  24  17:10:06         -4.05  -149.260628    2      1      

Converged after 24 iterations.

Dipole moment: (0.469098, -0.229265, 0.019205) |e|*Ang

Energy contributions relative to reference atoms: (reference = -24663.074771)

Kinetic:       +142.456173
Potential:     -130.890642
External:        +0.000000
XC:            -163.430374
Entropy (-ST):   -0.341418
Local:           +2.774925
--------------------------
Free energy:   -149.431337
Extrapolated:  -149.260628

Fermi level: -4.54255

 Band  Eigenvalues  Occupancy
    0    -26.24347    2.00000
    1    -25.05099    2.00000
    2    -23.34229    2.00000
    3    -22.27715    2.00000
    4    -21.48773    2.00000
    5    -20.23623    2.00000
    6    -19.89426    2.00000
    7    -18.66105    2.00000
    8    -18.49996    2.00000
    9    -17.72641    2.00000
   10    -16.81497    2.00000
   11    -16.31186    2.00000
   12    -15.75777    2.00000
   13    -15.57359    2.00000
   14    -14.64709    2.00000
   15    -13.92959    2.00000
   16    -13.60618    2.00000
   17    -13.28194    2.00000
   18    -13.09201    2.00000
   19    -12.90720    2.00000
   20    -12.11956    2.00000
   21    -11.97140    2.00000
   22    -11.58203    2.00000
   23    -11.26496    2.00000
   24    -10.88472    2.00000
   25    -10.51112    2.00000
   26    -10.22182    2.00000
   27     -9.92902    2.00000
   28     -9.66416    2.00000
   29     -9.29841    2.00000
   30     -9.12252    2.00000
   31     -8.88867    2.00000
   32     -8.48587    2.00000
   33     -8.13522    2.00000
   34     -7.88400    2.00000
   35     -7.43758    2.00000
   36     -7.21049    2.00000
   37     -6.91451    2.00000
   38     -6.83732    2.00000
   39     -6.48881    2.00000
   40     -6.16285    2.00000
   41     -5.94593    2.00000
   42     -5.82783    1.99999
   43     -5.50691    1.99987
   44     -5.36430    1.99946
   45     -4.96690    1.97169
   46     -4.78239    1.83341
   47     -4.66485    1.54517
   48     -4.44212    0.53617
   49     -4.25977    0.11167
   50     -3.87422    0.00250
   51     -3.50225    0.00006
   52     -3.12890    0.00000
   53     -2.96618    0.00000
   54     -2.85791    0.00000
   55     -2.69584    0.00000
   56     -2.32841    0.00000
   57     -1.70651    0.00000
   58     -1.62589    0.00000
   59     -1.40957    0.00000
   60     -1.09305    0.00000
   61     -0.55111    0.00000
   62     -0.52543    0.00000
   63     -0.32802    0.00000
   64      0.02483    0.00000
   65      0.61639    0.00000
   66      0.67429    0.00000
   67      0.86919    0.00000
   68      1.36997    0.00000
   69      1.83890    0.00000
   70      2.18612    0.00000
   71      2.77826    0.00000
   72      3.04651    0.00000
   73      3.57793    0.00000
   74      3.75848    0.00000
   75      3.99577    0.00000
   76      4.67899    0.00000
   77      4.97229    0.00000
   78      5.30850    0.00000
   79      5.64521    0.00000
   80      6.16922    0.00000
   81      6.60693    0.00000
   82      6.88912    0.00000
   83      7.10037    0.00000
   84      7.59229    0.00000
   85      7.90112    0.00000
   86      8.08374    0.00000
   87      8.26580    0.00000
   88      8.48337    0.00000
   89      8.58397    0.00000
   90      8.96271    0.00000
   91      9.00126    0.00000
   92      9.05191    0.00000
   93      9.12033    0.00000
   94      9.23622    0.00000
   95      9.35228    0.00000
   96      9.49636    0.00000
   97      9.60874    0.00000


Forces in eV/Ang:
  0 C    -2.15030    1.61040   -3.01138
  1 C     0.16511    2.72566   -1.86729
  2 C    -2.27916    1.48977   -0.90505
  3 C    -4.72328   -2.94523   -1.28741
  4 C    -2.22540    5.93921   -0.22094
  5 C     1.91362    1.08351    1.02291
  6 C    -2.30439   -1.33027    2.96395
  7 C     0.97296    1.83906    0.15847
  8 C     0.14912   -0.64764   -1.13236
  9 C     2.08277  -18.01360   -3.45496
 10 C    -1.56493   -1.17190   -0.51092
 11 C     3.19191   -2.72949    2.10232
 12 C     3.41369   -0.57471    0.75582
 13 C     7.52853   -2.39700    1.84997
 14 C    -5.17990    3.79125   -2.14266
 15 C     2.70502    0.09037    0.29570
 16 C     0.34338    2.18483    3.34280
 17 C    -1.12883    3.87776   -1.36488
 18 C    -1.52619  -14.45932   -1.76970
 19 C    -0.66477    0.05182   -1.38549
 20 C    -0.30598   12.99566   -2.31504
 21 C    -0.72926   -4.97373    0.29552
 22 C    -0.04372   16.45055    5.27681
 23 C     2.30271   -5.01557    3.24057

System changes: positions 

Initializing position-dependent things.

Density initialized from wave functions
           .--------------------------------------.  
          /|                                      |  
         / |                                      |  
        /  |                                      |  
       /   |                                      |  
      /    |                                      |  
     /     |                                      |  
    /      |                                      |  
   /       |                                      |  
  /        |          C C     C  C                |  
 *         |      C C      C C     C              |  
 |         |      C       C       C               |  
 |         .-----C--C--C-----C-C---C--------------.  
 |        /         C   C CC C                   /   
 |       /          C                           /    
 |      /                                      /     
 |     /                                      /      
 |    /                                      /       
 |   /                                      /        
 |  /                                      /         
 | /                                      /          
 |/                                      /           
 *--------------------------------------*            

Positions:
   0 C      6.204643    9.715158    5.842568
   1 C     12.065061    7.015855    5.086740
   2 C      5.981794    7.700540    6.104926
   3 C      7.965805    5.279677    4.765193
   4 C      9.050009    5.995617    4.521920
   5 C      6.546326    5.288167    4.387182
   6 C      6.607489   10.904269    4.785485
   7 C      4.763767    6.883324    4.509091
   8 C      6.020762    6.449215    5.132812
   9 C     11.374335    8.474141    4.547455
  10 C     10.418510   10.376264    5.187633
  11 C      8.988460    9.166495    5.475861
  12 C     10.359388    4.965091    4.942376
  13 C     10.830677    6.318678    5.016353
  14 C      9.765556    7.099416    4.955915
  15 C      9.248585   10.874604    4.786357
  16 C      6.319360    6.527526    3.224304
  17 C      4.710449    8.158085    5.272299
  18 C      7.867075    9.095418    4.716296
  19 C      7.095644    7.581389    4.221547
  20 C      7.909508   10.400054    4.730429
  21 C      9.170151    4.504646    4.817440
  22 C     11.575053    9.585228    5.017319
  23 C      4.432036    9.755337    4.794255

Unit cell:
           periodic     x           y           z      points  spacing
  1. axis:    yes   16.000000    0.000000    0.000000    80     0.2000
  2. axis:    yes    0.000000   16.000000    0.000000    80     0.2000
  3. axis:    yes    0.000000    0.000000   10.000000    48     0.2083

Effective grid spacing dv^(1/3) = 0.2027

                     log10-error:    total        iterations:
           time      wfs    density  energy       fermi  poisson
iter:   1  17:10:08          +inf  -151.971971    3      5      
iter:   2  17:10:09         -1.74  -151.832650    3      2      
iter:   3  17:10:09         -2.04  -151.811751    3      2      
iter:   4  17:10:10         -2.14  -151.796322    3      2      
iter:   5  17:10:10         -2.32  -151.792661    3      2      
iter:   6  17:10:11         -2.40  -151.792656    3      2      
iter:   7  17:10:11         -2.61  -151.790014    2      2      
iter:   8  17:10:12         -2.84  -151.787932    2      2      
iter:   9  17:10:12         -3.00  -151.787585    2      2      
iter:  10  17:10:13         -3.21  -151.787761    2      1      
iter:  11  17:10:13         -3.29  -151.787081    2      1      
iter:  12  17:10:14         -3.50  -151.786095    2      1      
iter:  13  17:10:14         -3.70  -151.787195    2      1      
iter:  14  17:10:15         -3.82  -151.786818    2      1      
iter:  15  17:10:15         -4.10  -151.786884    2      1      

Converged after 15 iterations.

Dipole moment: (0.426700, -0.248658, 0.016830) |e|*Ang

Energy contributions relative to reference atoms: (reference = -24663.074771)

Kinetic:       +124.454045
Potential:     -118.007255
External:        +0.000000
XC:            -160.771860
Entropy (-ST):   -0.338826
Local:           +2.707600
--------------------------
Free energy:   -151.956297
Extrapolated:  -151.786884

Fermi level: -4.56084

 Band  Eigenvalues  Occupancy
    0    -25.97402    2.00000
    1    -24.69878    2.00000
    2    -23.40927    2.00000
    3    -22.12976    2.00000
    4    -21.33220    2.00000
    5    -20.28819    2.00000
    6    -19.73080    2.00000
    7    -18.62692    2.00000
    8    -18.43262    2.00000
    9    -17.82924    2.00000
   10    -16.85936    2.00000
   11    -16.42660    2.00000
   12    -15.82538    2.00000
   13    -15.55575    2.00000
   14    -14.72082    2.00000
   15    -13.94092    2.00000
   16    -13.60611    2.00000
   17    -13.16872    2.00000
   18    -13.11001    2.00000
   19    -12.89717    2.00000
   20    -12.16253    2.00000
   21    -11.89205    2.00000
   22    -11.61355    2.00000
   23    -11.21283    2.00000
   24    -10.90422    2.00000
   25    -10.51851    2.00000
   26    -10.19430    2.00000
   27     -9.94562    2.00000
   28     -9.72705    2.00000
   29     -9.35620    2.00000
   30     -9.13999    2.00000
   31     -8.88319    2.00000
   32     -8.50318    2.00000
   33     -8.06487    2.00000
   34     -7.90651    2.00000
   35     -7.40134    2.00000
   36     -7.11187    2.00000
   37     -6.93373    2.00000
   38     -6.79402    2.00000
   39     -6.53590    2.00000
   40     -6.13416    2.00000
   41     -5.95649    2.00000
   42     -5.81995    1.99999
   43     -5.54754    1.99990
   44     -5.40267    1.99956
   45     -4.96477    1.96539
   46     -4.80239    1.83601
   47     -4.68801    1.56206
   48     -4.45899    0.53066
   49     -4.26913    0.10263
   50     -3.93313    0.00375
   51     -3.48952    0.00004
   52     -3.19164    0.00000
   53     -2.98283    0.00000
   54     -2.87342    0.00000
   55     -2.70303    0.00000
   56     -2.37605    0.00000
   57     -1.67279    0.00000
   58     -1.56694    0.00000
   59     -1.37116    0.00000
   60     -1.12345    0.00000
   61     -0.62301    0.00000
   62     -0.47231    0.00000
   63     -0.30828    0.00000
   64      0.04843    0.00000
   65      0.44245    0.00000
   66      0.70528    0.00000
   67      0.83336    0.00000
   68      1.27362    0.00000
   69      1.81468    0.00000
   70      2.11751    0.00000
   71      2.74569    0.00000
   72      3.07363    0.00000
   73      3.63944    0.00000
   74      3.84444    0.00000
   75      4.11141    0.00000
   76      4.66710    0.00000
   77      5.01799    0.00000
   78      5.22888    0.00000
   79      5.73413    0.00000
   80      6.10871    0.00000
   81      6.57411    0.00000
   82      6.88338    0.00000
   83      7.11349    0.00000
   84      7.54959    0.00000
   85      7.95305    0.00000
   86      8.09442    0.00000
   87      8.27687    0.00000
   88      8.45390    0.00000
   89      8.55578    0.00000
   90      8.87197    0.00000
   91      8.97439    0.00000
   92      9.03268    0.00000
   93      9.11346    0.00000
   94      9.23199    0.00000
   95      9.34940    0.00000
   96      9.47516    0.00000
   97      9.57700    0.00000


Forces in eV/Ang:
  0 C    -2.23966    1.66008   -2.98683
  1 C     0.20369    3.00587   -1.92910
  2 C    -2.21005    1.46112   -0.85866
  3 C    -3.38180   -2.74581   -1.28626
  4 C    -2.61227    4.88814   -0.13210
  5 C     1.58761    0.94098    0.90111
  6 C    -2.24707   -1.36201    2.89180
  7 C     0.97174    1.82915    0.11871
  8 C     0.05613   -0.51075   -1.00120
  9 C     3.37490  -10.12435    0.00356
 10 C    -1.24414   -1.29896   -0.43067
 11 C     2.38363   -2.52647    1.65570
 12 C     2.55717   -0.57717    0.68906
 13 C     5.62487   -1.77991    1.68427
 14 C    -3.33427    2.95570   -1.88830
 15 C     1.72463    0.20301    0.20632
 16 C     0.33646    2.18889    3.24433
 17 C    -1.05369    3.71083   -1.39309
 18 C    -1.12198   -9.98008   -1.56643
 19 C    -0.44572    0.37184   -1.26467
 20 C     0.15039    8.30133   -2.18213
 21 C    -0.42196   -3.98167    0.31611
 22 C    -0.93403    8.30144    1.87683
 23 C     2.27810   -4.96831    3.30031

System changes: positions 

Initializing position-dependent things.

Density initialized from wave functions
           .--------------------------------------.  
          /|                                      |  
         / |                                      |  
        /  |                                      |  
       /   |                                      |  
      /    |                                      |  
     /     |                                      |  
    /      |                                      |  
   /       |                                      |  
  /        |          C C     C  C                |  
 *         |      C C      C C     C              |  
 |         |      C       C       C               |  
 |         .-----C--C--C-----C-C---C--------------.  
 |        /         C   C CC C                   /   
 |       /          C                           /    
 |      /                                      /     
 |     /                                      /      
 |    /                                      /       
 |   /                                      /        
 |  /                                      /         
 | /                                      /          
 |/                                      /           
 *--------------------------------------*            

Positions:
   0 C      6.190096    9.725850    5.823954
   1 C     12.066551    7.036256    5.074293
   2 C      5.968299    7.709555    6.099790
   3 C      7.951918    5.263533    4.757125
   4 C      9.031494    6.020548    4.521577
   5 C      6.554508    5.293294    4.392172
   6 C      6.593698   10.895546    4.803242
   7 C      4.769860    6.894752    4.509619
   8 C      6.020605    6.446758    5.127245
   9 C     11.402591    8.453762    4.566403
  10 C     10.412456   10.367415    5.185369
  11 C      8.998999    9.151747    5.483810
  12 C     10.370752    4.961454    4.946336
  13 C     10.855567    6.310882    5.026018
  14 C      9.754727    7.113397    4.945454
  15 C      9.254046   10.876494    4.787163
  16 C      6.321434    6.541288    3.244130
  17 C      4.704246    8.180465    5.263400
  18 C      7.862245    9.057284    4.707575
  19 C      7.094045    7.585474    4.214270
  20 C      7.912949   10.426473    4.717459
  21 C      9.169184    4.485081    4.819537
  22 C     11.564318    9.592742    5.010494
  23 C      4.446201    9.724409    4.815299

Unit cell:
           periodic     x           y           z      points  spacing
  1. axis:    yes   16.000000    0.000000    0.000000    80     0.2000
  2. axis:    yes    0.000000   16.000000    0.000000    80     0.2000
  3. axis:    yes    0.000000    0.000000   10.000000    48     0.2083

Effective grid spacing dv^(1/3) = 0.2027

                     log10-error:    total        iterations:
           time      wfs    density  energy       fermi  poisson
iter:   1  17:10:17          +inf  -154.469332    3      5      
iter:   2  17:10:17         -1.65  -154.246608    3      2      
iter:   3  17:10:18         -1.89  -154.191577    3      2      
iter:   4  17:10:18         -2.01  -154.152478    3      2      
iter:   5  17:10:19         -2.16  -154.143023    3      2      
iter:   6  17:10:19         -2.34  -154.141707    2      2      
iter:   7  17:10:20         -2.45  -154.138300    3      2      
iter:   8  17:10:21         -2.74  -154.138592    2      2      
iter:   9  17:10:21         -2.84  -154.138470    2      2      
iter:  10  17:10:22         -3.12  -154.138547    2      1      
iter:  11  17:10:22         -3.19  -154.138252    2      1      
iter:  12  17:10:23         -3.39  -154.138340    2      1      
iter:  13  17:10:23         -3.47  -154.138472    2      1      
iter:  14  17:10:23         -3.67  -154.138325    2      1      
iter:  15  17:10:24         -3.83  -154.138252    2      1      
iter:  16  17:10:24         -3.91  -154.138253    1      1      
iter:  17  17:10:25         -3.97  -154.137982    2      1      
iter:  18  17:10:25         -4.18  -154.138336    2      1      

Converged after 18 iterations.

Dipole moment: (0.446785, -0.263306, 0.015929) |e|*Ang

Energy contributions relative to reference atoms: (reference = -24663.074771)

Kinetic:       +112.294446
Potential:     -109.411300
External:        +0.000000
XC:            -159.577433
Entropy (-ST):   -0.356014
Local:           +2.733957
--------------------------
Free energy:   -154.316343
Extrapolated:  -154.138336

Fermi level: -4.56814

 Band  Eigenvalues  Occupancy
    0    -25.48750    2.00000
    1    -24.28053    2.00000
    2    -23.50926    2.00000
    3    -21.89478    2.00000
    4    -21.26770    2.00000
    5    -20.35907    2.00000
    6    -19.69002    2.00000
    7    -18.54751    2.00000
    8    -18.37141    2.00000
    9    -17.92414    2.00000
   10    -16.96222    2.00000
   11    -16.60588    2.00000
   12    -15.95165    2.00000
   13    -15.59231    2.00000
   14    -14.80756    2.00000
   15    -13.98694    2.00000
   16    -13.67076    2.00000
   17    -13.24290    2.00000
   18    -12.99251    2.00000
   19    -12.86939    2.00000
   20    -12.20840    2.00000
   21    -11.70619    2.00000
   22    -11.59364    2.00000
   23    -11.14459    2.00000
   24    -10.93495    2.00000
   25    -10.55751    2.00000
   26    -10.21582    2.00000
   27     -9.99199    2.00000
   28     -9.84752    2.00000
   29     -9.43104    2.00000
   30     -9.15343    2.00000
   31     -8.96529    2.00000
   32     -8.51339    2.00000
   33     -8.03066    2.00000
   34     -7.94668    2.00000
   35     -7.41280    2.00000
   36     -7.16303    2.00000
   37     -6.93162    2.00000
   38     -6.75634    2.00000
   39     -6.58630    2.00000
   40     -6.07298    2.00000
   41     -5.98026    2.00000
   42     -5.79036    1.99999
   43     -5.58739    1.99993
   44     -5.45209    1.99971
   45     -4.92894    1.94722
   46     -4.79941    1.81985
   47     -4.69586    1.56395
   48     -4.47037    0.54669
   49     -4.29023    0.11692
   50     -3.98292    0.00573
   51     -3.42387    0.00002
   52     -3.21884    0.00000
   53     -2.93549    0.00000
   54     -2.80649    0.00000
   55     -2.65769    0.00000
   56     -2.35371    0.00000
   57     -1.59650    0.00000
   58     -1.49873    0.00000
   59     -1.28486    0.00000
   60     -1.14071    0.00000
   61     -0.66305    0.00000
   62     -0.37993    0.00000
   63     -0.13269    0.00000
   64      0.14834    0.00000
   65      0.39599    0.00000
   66      0.78105    0.00000
   67      0.88832    0.00000
   68      1.14861    0.00000
   69      1.77468    0.00000
   70      2.11919    0.00000
   71      2.74092    0.00000
   72      3.15483    0.00000
   73      3.83571    0.00000
   74      4.13253    0.00000
   75      4.49118    0.00000
   76      4.87606    0.00000
   77      5.09350    0.00000
   78      5.24957    0.00000
   79      5.89079    0.00000
   80      6.13213    0.00000
   81      6.54951    0.00000
   82      6.90446    0.00000
   83      7.12839    0.00000
   84      7.56766    0.00000
   85      8.01021    0.00000
   86      8.14107    0.00000
   87      8.30200    0.00000
   88      8.44990    0.00000
   89      8.53376    0.00000
   90      8.84292    0.00000
   91      8.92263    0.00000
   92      9.04920    0.00000
   93      9.13797    0.00000
   94      9.26808    0.00000
   95      9.35986    0.00000
   96      9.45563    0.00000
   97      9.55093    0.00000


Forces in eV/Ang:
  0 C    -2.51012    1.85580   -3.00914
  1 C     0.11726    3.10672   -1.96926
  2 C    -1.99323    1.36316   -0.77273
  3 C    -1.50332   -2.39016   -1.20373
  4 C    -2.81878    3.52171    0.02945
  5 C     0.95213    0.66595    0.66959
  6 C    -1.60021   -1.61289    2.84240
  7 C     0.90506    1.79895    0.02259
  8 C    -0.13837   -0.25278   -0.69347
  9 C     3.68845   -9.17140    0.58829
 10 C    -0.98712   -1.40668   -0.32172
 11 C     1.46990   -2.52261    1.09192
 12 C     1.34117   -0.54284    0.59649
 13 C     3.44416   -0.92529    1.39658
 14 C    -1.54363    1.85402   -1.53476
 15 C     0.90235    0.27135   -0.00122
 16 C     0.32776    2.20869    3.04459
 17 C    -0.94590    3.21453   -1.43702
 18 C    -0.52435   -6.44341   -1.29982
 19 C    -0.09361    0.79638   -1.06179
 20 C     0.15375    4.82036   -2.00931
 21 C     0.14062   -2.59815    0.29058
 22 C    -0.95368    7.22553    1.32440
 23 C     2.22059   -4.80577    3.35502

System changes: positions 

Initializing position-dependent things.

Density initialized from wave functions
           .--------------------------------------.  
          /|                                      |  
         / |                                      |  
        /  |                                      |  
       /   |                                      |  
      /    |                                      |  
     /     |                                      |  
    /      |                                      |  
   /       |                                      |  
  /        |          C C     C  C                |  
 *         |      C C      C C     C              |  
 |         |      C       C       C               |  
 |         .-----C--C--C-----C-C---C--------------.  
 |        /         C   C CC C                   /   
 |       /           C                          /    
 |      /                                      /     
 |     /                                      /      
 |    /                                      /       
 |   /                                      /        
 |  /                                      /         
 | /                                      /          
 |/                                      /           
 *--------------------------------------*            

Positions:
   0 C      6.174716    9.737159    5.806420
   1 C     12.067236    7.055513    5.062515
   2 C      5.957214    7.717275    6.095562
   3 C      7.950526    5.250781    4.750220
   4 C      9.013398    6.035494    4.522295
   5 C      6.558004    5.296286    4.395321
   6 C      6.585520   10.885634    4.819532
   7 C      4.775044    6.905185    4.509470
   8 C      6.019187    6.446135    5.124104
   9 C     11.429001    8.428369    4.582456
  10 C     10.408164   10.358602    5.183926
  11 C      9.003465    9.137701    5.487822
  12 C     10.373844    4.958326    4.949455
  13 C     10.865936    6.308861    5.033182
  14 C      9.754676    7.119730    4.937883
  15 C      9.254749   10.878566    4.786539
  16 C      6.323313    6.554238    3.261285
  17 C      4.699137    8.197932    5.254841
  18 C      7.861456    9.040177    4.701073
  19 C      7.094774    7.591856    4.208782
  20 C      7.915400   10.433452    4.706430
  21 C      9.171899    4.475357    4.821266
  22 C     11.555695    9.605698    5.005866
  23 C      4.459006    9.696733    4.835189

Unit cell:
           periodic     x           y           z      points  spacing
  1. axis:    yes   16.000000    0.000000    0.000000    80     0.2000
  2. axis:    yes    0.000000   16.000000    0.000000    80     0.2000
  3. axis:    yes    0.000000    0.000000   10.000000    48     0.2083

Effective grid spacing dv^(1/3) = 0.2027

                     log10-error:    total        iterations:
           time      wfs    density  energy       fermi  poisson
iter:   1  17:10:27          +inf  -155.903790    3      5      
iter:   2  17:10:28         -1.78  -155.778807    3      2      
iter:   3  17:10:28         -2.01  -155.745833    3      2      
iter:   4  17:10:29         -2.17  -155.729312    3      2      
iter:   5  17:10:29         -2.31  -155.724332    3      2      
iter:   6  17:10:30         -2.48  -155.724300    3      2      
iter:   7  17:10:30         -2.60  -155.722816    3      2      
iter:   8  17:10:31         -2.86  -155.720501    2      1      
iter:   9  17:10:31         -2.97  -155.722239    2      2      
iter:  10  17:10:32         -3.23  -155.722757    2      1      
iter:  11  17:10:32         -3.36  -155.721062    2      1      
iter:  12  17:10:33         -3.48  -155.723073    2      1      
iter:  13  17:10:33         -3.60  -155.723096    2      1      
iter:  14  17:10:34         -3.78  -155.722197    2      1      
iter:  15  17:10:34         -4.02  -155.722811    2      1      

Converged after 15 iterations.

Dipole moment: (0.464230, -0.294262, 0.013049) |e|*Ang

Energy contributions relative to reference atoms: (reference = -24663.074771)

Kinetic:       +107.395322
Potential:     -106.065838
External:        +0.000000
XC:            -159.616211
Entropy (-ST):   -0.360049
Local:           +2.743942
--------------------------
Free energy:   -155.902835
Extrapolated:  -155.722811

Fermi level: -4.58107

 Band  Eigenvalues  Occupancy
    0    -25.27566    2.00000
    1    -24.09105    2.00000
    2    -23.56877    2.00000
    3    -21.82788    2.00000
    4    -21.20710    2.00000
    5    -20.40658    2.00000
    6    -19.65182    2.00000
    7    -18.53971    2.00000
    8    -18.36824    2.00000
    9    -18.01296    2.00000
   10    -17.03665    2.00000
   11    -16.71029    2.00000
   12    -16.05078    2.00000
   13    -15.59568    2.00000
   14    -14.89647    2.00000
   15    -14.03183    2.00000
   16    -13.71327    2.00000
   17    -13.31615    2.00000
   18    -12.98852    2.00000
   19    -12.87315    2.00000
   20    -12.22979    2.00000
   21    -11.68912    2.00000
   22    -11.52632    2.00000
   23    -11.12474    2.00000
   24    -10.95999    2.00000
   25    -10.60911    2.00000
   26    -10.31101    2.00000
   27    -10.07552    2.00000
   28     -9.90562    2.00000
   29     -9.44743    2.00000
   30     -9.18358    2.00000
   31     -9.00609    2.00000
   32     -8.52322    2.00000
   33     -8.07162    2.00000
   34     -7.93080    2.00000
   35     -7.43186    2.00000
   36     -7.20231    2.00000
   37     -6.92798    2.00000
   38     -6.73935    2.00000
   39     -6.61632    2.00000
   40     -6.04490    2.00000
   41     -5.98281    2.00000
   42     -5.77154    1.99999
   43     -5.60163    1.99993
   44     -5.49429    1.99978
   45     -4.90710    1.92608
   46     -4.81034    1.81654
   47     -4.71245    1.57629
   48     -4.49100    0.57778
   49     -4.28338    0.09696
   50     -4.01055    0.00663
   51     -3.41188    0.00002
   52     -3.18667    0.00000
   53     -2.92231    0.00000
   54     -2.71064    0.00000
   55     -2.64100    0.00000
   56     -2.32631    0.00000
   57     -1.57226    0.00000
   58     -1.42561    0.00000
   59     -1.22829    0.00000
   60     -1.15505    0.00000
   61     -0.63501    0.00000
   62     -0.31601    0.00000
   63     -0.04643    0.00000
   64      0.25367    0.00000
   65      0.47390    0.00000
   66      0.80042    0.00000
   67      0.98833    0.00000
   68      1.12542    0.00000
   69      1.76130    0.00000
   70      2.12898    0.00000
   71      2.74289    0.00000
   72      3.22827    0.00000
   73      3.97877    0.00000
   74      4.39529    0.00000
   75      4.59128    0.00000
   76      5.07152    0.00000
   77      5.11834    0.00000
   78      5.59696    0.00000
   79      5.85850    0.00000
   80      6.38915    0.00000
   81      6.57399    0.00000
   82      7.00106    0.00000
   83      7.17431    0.00000
   84      7.62607    0.00000
   85      8.08177    0.00000
   86      8.17852    0.00000
   87      8.32052    0.00000
   88      8.44726    0.00000
   89      8.53014    0.00000
   90      8.84171    0.00000
   91      8.90305    0.00000
   92      9.06279    0.00000
   93      9.15668    0.00000
   94      9.31616    0.00000
   95      9.37461    0.00000
   96      9.46059    0.00000
   97      9.54064    0.00000


Forces in eV/Ang:
  0 C    -2.81287    2.03488   -3.02440
  1 C    -0.02099    2.99583   -1.90502
  2 C    -1.78222    1.30830   -0.70623
  3 C    -1.02768   -2.22113   -1.08426
  4 C    -2.59168    3.14025    0.07584
  5 C     0.62343    0.53655    0.55561
  6 C    -1.11689   -1.73156    2.77248
  7 C     0.84012    1.73963   -0.08012
  8 C    -0.22889   -0.17906   -0.46139
  9 C     3.88498   -7.11486    1.38510
 10 C    -1.04534   -1.37214   -0.31190
 11 C     1.11089   -2.54249    0.85896
 12 C     1.12327   -0.32697    0.55969
 13 C     2.79111   -0.79619    1.25575
 14 C    -1.14241    1.41756   -1.37849
 15 C     0.50065    0.26850   -0.07516
 16 C     0.31765    2.19573    2.87798
 17 C    -0.87192    2.64672   -1.43934
 18 C    -0.27252   -5.46946   -1.30969
 19 C     0.12512    1.04748   -0.90717
 20 C     0.07134    3.85270   -1.88709
 21 C     0.20013   -2.05260    0.28332
 22 C    -0.86517    5.11469    0.50516
 23 C     2.19819   -4.44295    3.35883

System changes: positions 

Initializing position-dependent things.

Density initialized from wave functions
           .--------------------------------------.  
          /|                                      |  
         / |                                      |  
        /  |                                      |  
       /   |                                      |  
      /    |                                      |  
     /     |                                      |  
    /      |                                      |  
   /       |                                      |  
  /        |          C C     C  C                |  
 *         |      C C      C C     C              |  
 |         |      C       C       C               |  
 |         .-----C--C--C-----C-C---C--------------.  
 |        /         C   C CC C                   /   
 |       /           C                          /    
 |      /                                      /     
 |     /                                      /      
 |    /                                      /       
 |   /                                      /        
 |  /                                      /         
 | /                                      /          
 |/                                      /           
 *--------------------------------------*            

Positions:
   0 C      6.154941    9.751254    5.787053
   1 C     12.066466    7.074782    5.050480
   2 C      5.947124    7.725237    6.091522
   3 C      7.950459    5.238075    4.743916
   4 C      8.996937    6.050524    4.523312
   5 C      6.559270    5.298594    4.397901
   6 C      6.581299   10.873735    4.836743
   7 C      4.780052    6.915982    4.508325
   8 C      6.016952    6.445831    5.122752
   9 C     11.457497    8.408355    4.602138
  10 C     10.402077   10.349647    5.182234
  11 C      9.006520    9.121761    5.490864
  12 C     10.377247    4.957247    4.952649
  13 C     10.875099    6.306346    5.039977
  14 C      9.754426    7.124164    4.930607
  15 C      9.253465   10.880549    4.785357
  16 C      6.325275    6.568234    3.278538
  17 C      4.694148    8.211472    5.245539
  18 C      7.862197    9.021585    4.693300
  19 C      7.097319    7.600704    4.204112
  20 C      7.916363   10.441380    4.695346
  21 C      9.174565    4.467926    4.823059
  22 C     11.548839    9.612070    4.998302
  23 C      4.472848    9.670241    4.856832

Unit cell:
           periodic     x           y           z      points  spacing
  1. axis:    yes   16.000000    0.000000    0.000000    80     0.2000
  2. axis:    yes    0.000000   16.000000    0.000000    80     0.2000
  3. axis:    yes    0.000000    0.000000   10.000000    48     0.2083

Effective grid spacing dv^(1/3) = 0.2027

                     log10-error:    total        iterations:
           time      wfs    density  energy       fermi  poisson
iter:   1  17:10:36          +inf  -157.338307    3      5      
iter:   2  17:10:36         -1.76  -157.203854    3      2      
iter:   3  17:10:37         -2.00  -157.165915    3      2      
iter:   4  17:10:37         -2.19  -157.151520    3      2      
iter:   5  17:10:38         -2.31  -157.145017    3      2      
iter:   6  17:10:38         -2.46  -157.144625    3      2      
iter:   7  17:10:39         -2.62  -157.144261    3      2      
iter:   8  17:10:39         -2.81  -157.144074    2      2      
iter:   9  17:10:40         -2.98  -157.143640    2      2      
iter:  10  17:10:40         -3.16  -157.142145    2      1      
iter:  11  17:10:41         -3.34  -157.143388    2      1      
iter:  12  17:10:41         -3.43  -157.143751    2      1      
iter:  13  17:10:42         -3.54  -157.142487    2      1      
iter:  14  17:10:42         -3.81  -157.144066    2      1      
iter:  15  17:10:43         -3.93  -157.144189    2      1      
iter:  16  17:10:43         -4.08  -157.143784    2      1      

Converged after 16 iterations.

Dipole moment: (0.477358, -0.313399, 0.008868) |e|*Ang

Energy contributions relative to reference atoms: (reference = -24663.074771)

Kinetic:       +104.473155
Potential:     -104.130551
External:        +0.000000
XC:            -160.066194
Entropy (-ST):   -0.368037
Local:           +2.763825
--------------------------
Free energy:   -157.327803
Extrapolated:  -157.143784

Fermi level: -4.58574

 Band  Eigenvalues  Occupancy
    0    -25.09148    2.00000
    1    -23.91415    2.00000
    2    -23.59738    2.00000
    3    -21.77780    2.00000
    4    -21.15333    2.00000
    5    -20.43838    2.00000
    6    -19.64829    2.00000
    7    -18.54507    2.00000
    8    -18.38101    2.00000
    9    -18.09953    2.00000
   10    -17.13511    2.00000
   11    -16.78342    2.00000
   12    -16.12895    2.00000
   13    -15.60096    2.00000
   14    -14.97729    2.00000
   15    -14.07791    2.00000
   16    -13.75264    2.00000
   17    -13.38417    2.00000
   18    -13.01621    2.00000
   19    -12.83680    2.00000
   20    -12.25541    2.00000
   21    -11.70127    2.00000
   22    -11.43904    2.00000
   23    -11.10798    2.00000
   24    -10.99693    2.00000
   25    -10.65058    2.00000
   26    -10.41636    2.00000
   27    -10.18499    2.00000
   28     -9.91879    2.00000
   29     -9.43345    2.00000
   30     -9.22052    2.00000
   31     -9.01982    2.00000
   32     -8.53621    2.00000
   33     -8.10933    2.00000
   34     -7.89832    2.00000
   35     -7.44520    2.00000
   36     -7.26333    2.00000
   37     -6.94823    2.00000
   38     -6.73868    2.00000
   39     -6.62118    2.00000
   40     -6.09023    2.00000
   41     -5.92706    2.00000
   42     -5.75173    1.99998
   43     -5.60524    1.99993
   44     -5.54749    1.99987
   45     -4.89394    1.91229
   46     -4.80589    1.80076
   47     -4.71709    1.57619
   48     -4.50573    0.62003
   49     -4.27140    0.08270
   50     -4.03700    0.00824
   51     -3.42446    0.00002
   52     -3.12728    0.00000
   53     -2.87406    0.00000
   54     -2.65133    0.00000
   55     -2.58254    0.00000
   56     -2.27952    0.00000
   57     -1.55633    0.00000
   58     -1.35300    0.00000
   59     -1.22295    0.00000
   60     -1.10616    0.00000
   61     -0.58215    0.00000
   62     -0.25023    0.00000
   63      0.00484    0.00000
   64      0.30484    0.00000
   65      0.65057    0.00000
   66      0.86147    0.00000
   67      1.13701    0.00000
   68      1.17649    0.00000
   69      1.74700    0.00000
   70      2.16162    0.00000
   71      2.74198    0.00000
   72      3.30111    0.00000
   73      4.11965    0.00000
   74      4.54334    0.00000
   75      4.59568    0.00000
   76      5.07106    0.00000
   77      5.25032    0.00000
   78      5.88836    0.00000
   79      6.07948    0.00000
   80      6.56552    0.00000
   81      6.69420    0.00000
   82      7.20814    0.00000
   83      7.32661    0.00000
   84      7.69867    0.00000
   85      8.13834    0.00000
   86      8.22441    0.00000
   87      8.34764    0.00000
   88      8.45773    0.00000
   89      8.54666    0.00000
   90      8.83887    0.00000
   91      8.91916    0.00000
   92      9.07861    0.00000
   93      9.19123    0.00000
   94      9.35068    0.00000
   95      9.39846    0.00000
   96      9.49015    0.00000
   97      9.54741    0.00000


Forces in eV/Ang:
  0 C    -3.27839    2.17764   -2.99355
  1 C    -0.06740    2.71057   -1.79572
  2 C    -1.55981    1.19497   -0.64767
  3 C    -0.69844   -2.01627   -1.03220
  4 C    -2.50141    2.81670    0.07462
  5 C     0.40930    0.45399    0.48044
  6 C    -0.77217   -1.71719    2.71627
  7 C     0.81440    1.64400   -0.20067
  8 C    -0.33134   -0.17994   -0.26666
  9 C     3.89117   -5.87200    1.69430
 10 C    -0.99759   -1.41719   -0.30570
 11 C     0.90525   -2.60328    0.65661
 12 C     0.92805   -0.25238    0.52280
 13 C     2.31036   -0.56845    1.10470
 14 C    -0.86598    1.09165   -1.17199
 15 C     0.20691    0.26254   -0.14730
 16 C     0.30481    2.18362    2.76101
 17 C    -0.78668    1.99386   -1.33142
 18 C    -0.03535   -4.59383   -1.36558
 19 C     0.35783    1.30817   -0.74486
 20 C     0.04598    2.88429   -1.78016
 21 C     0.27563   -1.65858    0.28922
 22 C    -0.80861    4.08659    0.12985
 23 C     2.25727   -3.95173    3.35153

System changes: positions 

Initializing position-dependent things.

Density initialized from wave functions
           .--------------------------------------.  
          /|                                      |  
         / |                                      |  
        /  |                                      |  
       /   |                                      |  
      /    |                                      |  
     /     |                                      |  
    /      |                                      |  
   /       |                                      |  
  /        |          C C     C  C                |  
 *         |      C C      C C     C              |  
 |         |      C       C       C               |  
 |         .-----C--C--C-----C-C---C--------------.  
 |        /         C   C CC C                   /   
 |       /           C                          /    
 |      /                                      /     
 |     /                                      /      
 |    /                                      /       
 |   /                                      /        
 |  /                                      /         
 | /                                      /          
 |/                                      /           
 *--------------------------------------*            

Positions:
   0 C      6.128843    9.767681    5.766417
   1 C     12.065428    7.092268    5.038645
   2 C      5.938125    7.732754    6.087582
   3 C      7.950788    5.225914    4.737353
   4 C      8.980062    6.065687    4.524105
   5 C      6.559568    5.300728    4.400335
   6 C      6.579189   10.861473    4.855017
   7 C      4.785385    6.926732    4.505973
   8 C      6.013723    6.445018    5.122751
   9 C     11.486911    8.390435    4.622478
  10 C     10.395733   10.339477    5.180303
  11 C      9.009499    9.103610    5.493043
  12 C     10.380685    4.956454    4.955882
  13 C     10.883881    6.304925    5.046217
  14 C      9.753801    7.127546    4.924356
  15 C      9.250820   10.882503    4.783605
  16 C      6.327287    6.583306    3.296490
  17 C      4.689442    8.220162    5.236787
  18 C      7.864505    9.003634    4.683848
  19 C      7.101939    7.612303    4.200384
  20 C      7.916962   10.446729    4.684075
  21 C      9.177560    4.461520    4.825100
  22 C     11.542519    9.618151    4.990318
  23 C      4.488709    9.646360    4.880165

Unit cell:
           periodic     x           y           z      points  spacing
  1. axis:    yes   16.000000    0.000000    0.000000    80     0.2000
  2. axis:    yes    0.000000   16.000000    0.000000    80     0.2000
  3. axis:    yes    0.000000    0.000000   10.000000    48     0.2083

Effective grid spacing dv^(1/3) = 0.2027

                     log10-error:    total        iterations:
           time      wfs    density  energy       fermi  poisson
iter:   1  17:10:45          +inf  -158.712535    3      5      
iter:   2  17:10:46         -1.71  -158.540850    3      2      
iter:   3  17:10:46         -1.98  -158.501716    3      2      
iter:   4  17:10:47         -2.18  -158.486388    3      2      
iter:   5  17:10:47         -2.31  -158.479576    3      2      
iter:   6  17:10:48         -2.46  -158.478795    3      2      
iter:   7  17:10:48         -2.63  -158.478711    3      2      
iter:   8  17:10:49         -2.83  -158.478783    2      2      
iter:   9  17:10:49         -2.98  -158.478448    2      2      
iter:  10  17:10:50         -3.15  -158.476335    2      1      
iter:  11  17:10:50         -3.34  -158.477912    2      1      
iter:  12  17:10:51         -3.45  -158.478434    2      1      
iter:  13  17:10:51         -3.56  -158.476781    2      1      
iter:  14  17:10:52         -3.83  -158.478939    2      1      
iter:  15  17:10:52         -3.92  -158.479173    2      1      
iter:  16  17:10:53         -4.10  -158.478593    2      1      

Converged after 16 iterations.

Dipole moment: (0.473633, -0.324250, 0.003692) |e|*Ang

Energy contributions relative to reference atoms: (reference = -24663.074771)

Kinetic:       +102.721116
Potential:     -103.058615
External:        +0.000000
XC:            -160.731396
Entropy (-ST):   -0.378804
Local:           +2.779704
--------------------------
Free energy:   -158.667995
Extrapolated:  -158.478593

Fermi level: -4.58410

 Band  Eigenvalues  Occupancy
    0    -24.91268    2.00000
    1    -23.78325    2.00000
    2    -23.57619    2.00000
    3    -21.73331    2.00000
    4    -21.10240    2.00000
    5    -20.46114    2.00000
    6    -19.64972    2.00000
    7    -18.56033    2.00000
    8    -18.39623    2.00000
    9    -18.18612    2.00000
   10    -17.24318    2.00000
   11    -16.83003    2.00000
   12    -16.18093    2.00000
   13    -15.60324    2.00000
   14    -15.05504    2.00000
   15    -14.12720    2.00000
   16    -13.78313    2.00000
   17    -13.44888    2.00000
   18    -13.05360    2.00000
   19    -12.79624    2.00000
   20    -12.28483    2.00000
   21    -11.70950    2.00000
   22    -11.34623    2.00000
   23    -11.12802    2.00000
   24    -11.02635    2.00000
   25    -10.68219    2.00000
   26    -10.49885    2.00000
   27    -10.28549    2.00000
   28     -9.91481    2.00000
   29     -9.40563    2.00000
   30     -9.24333    2.00000
   31     -9.01584    2.00000
   32     -8.54906    2.00000
   33     -8.13696    2.00000
   34     -7.86258    2.00000
   35     -7.45408    2.00000
   36     -7.33313    2.00000
   37     -6.99014    2.00000
   38     -6.73876    2.00000
   39     -6.61977    2.00000
   40     -6.15417    2.00000
   41     -5.87293    1.99999
   42     -5.74637    1.99998
   43     -5.61259    1.99993
   44     -5.59894    1.99992
   45     -4.90605    1.92312
   46     -4.77594    1.74390
   47     -4.71393    1.57107
   48     -4.51790    0.68056
   49     -4.25378    0.07092
   50     -4.06050    0.01059
   51     -3.44106    0.00002
   52     -3.06670    0.00000
   53     -2.80711    0.00000
   54     -2.65044    0.00000
   55     -2.47933    0.00000
   56     -2.21287    0.00000
   57     -1.55497    0.00000
   58     -1.28193    0.00000
   59     -1.22942    0.00000
   60     -1.02396    0.00000
   61     -0.51429    0.00000
   62     -0.18577    0.00000
   63      0.06466    0.00000
   64      0.33792    0.00000
   65      0.69366    0.00000
   66      1.02743    0.00000
   67      1.28433    0.00000
   68      1.41322    0.00000
   69      1.74389    0.00000
   70      2.20984    0.00000
   71      2.73989    0.00000
   72      3.38003    0.00000
   73      4.27317    0.00000
   74      4.52782    0.00000
   75      4.66415    0.00000
   76      5.03132    0.00000
   77      5.33578    0.00000
   78      6.05702    0.00000
   79      6.28754    0.00000
   80      6.69662    0.00000
   81      6.98678    0.00000
   82      7.33964    0.00000
   83      7.62250    0.00000
   84      7.79142    0.00000
   85      8.19216    0.00000
   86      8.27100    0.00000
   87      8.39903    0.00000
   88      8.47694    0.00000
   89      8.58110    0.00000
   90      8.83177    0.00000
   91      8.96851    0.00000
   92      9.09932    0.00000
   93      9.24194    0.00000
   94      9.35201    0.00000
   95      9.43944    0.00000
   96      9.53593    0.00000
   97      9.58538    0.00000


Forces in eV/Ang:
  0 C    -3.79385    2.24121   -2.96493
  1 C    -0.01966    2.29265   -1.61214
  2 C    -1.35539    1.06630   -0.60452
  3 C    -0.43887   -1.85273   -1.00465
  4 C    -2.45858    2.57481    0.11926
  5 C     0.24133    0.41165    0.40821
  6 C    -0.40833   -1.52649    2.54137
  7 C     0.80355    1.50618   -0.30363
  8 C    -0.43560   -0.25080   -0.08490
  9 C     3.77875   -4.53774    1.84050
 10 C    -1.02305   -1.44094   -0.30451
 11 C     0.76696   -2.70713    0.43664
 12 C     0.79810   -0.17084    0.48771
 13 C     1.84409   -0.40456    0.94661
 14 C    -0.67214    0.80189   -0.94422
 15 C     0.00103    0.23560   -0.17973
 16 C     0.26110    2.15499    2.68666
 17 C    -0.70208    1.27590   -1.19846
 18 C     0.16437   -3.95292   -1.46661
 19 C     0.59901    1.55299   -0.58271
 20 C    -0.04322    2.11973   -1.71321
 21 C     0.31758   -1.33254    0.28306
 22 C    -0.70610    3.21182   -0.18851
 23 C     2.38978   -3.29895    3.35770

System changes: positions 

Initializing position-dependent things.

Density initialized from wave functions
           .--------------------------------------.  
          /|                                      |  
         / |                                      |  
        /  |                                      |  
       /   |                                      |  
      /    |                                      |  
     /     |                                      |  
    /      |                                      |  
   /       |                                      |  
  /        |          C C     C  C                |  
 *         |      C C      C C     C              |  
 |         |      C       C       C               |  
 |         .-----C--C--C-----C-C---C--------------.  
 |        /         C   C CC C                   /   
 |       /           C                          /    
 |      /                                      /     
 |     /                                      /      
 |    /                                      /       
 |   /                                      /        
 |  /                                      /         
 | /                                      /          
 |/                                      /           
 *--------------------------------------*            

Positions:
   0 C      6.098762    9.784202    5.745870
   1 C     12.065238    7.106150    5.028353
   2 C      5.930276    7.739355    6.083782
   3 C      7.951294    5.214459    4.730695
   4 C      8.963146    6.080571    4.525237
   5 C      6.559416    5.302965    4.402490
   6 C      6.579155   10.851399    4.871841
   7 C      4.790828    6.936430    4.503004
   8 C      6.009839    6.443198    5.123715
   9 C     11.514422    8.377003    4.640995
  10 C     10.388833   10.329116    5.178277
  11 C      9.012663    9.084305    5.494079
  12 C     10.384260    4.956002    4.958965
  13 C     10.891299    6.303994    5.051551
  14 C      9.752711    7.129973    4.919543
  15 C      9.247923   10.884138    4.781883
  16 C      6.328898    6.598229    3.314429
  17 C      4.685218    8.223937    5.229149
  18 C      7.867662    8.985954    4.673240
  19 C      7.108076    7.625330    4.197616
  20 C      7.916613   10.450676    4.672876
  21 C      9.180469    4.455954    4.827085
  22 C     11.537333    9.624273    4.982569
  23 C      4.506029    9.627446    4.903718

Unit cell:
           periodic     x           y           z      points  spacing
  1. axis:    yes   16.000000    0.000000    0.000000    80     0.2000
  2. axis:    yes    0.000000   16.000000    0.000000    80     0.2000
  3. axis:    yes    0.000000    0.000000   10.000000    48     0.2083

Effective grid spacing dv^(1/3) = 0.2027

                     log10-error:    total        iterations:
           time      wfs    density  energy       fermi  poisson
iter:   1  17:10:54          +inf  -159.910435    3      5      
iter:   2  17:10:55         -1.71  -159.727583    3      2      
iter:   3  17:10:55         -2.01  -159.693484    3      2      
iter:   4  17:10:56         -2.19  -159.678530    3      2      
iter:   5  17:10:56         -2.34  -159.673121    3      2      
iter:   6  17:10:57         -2.49  -159.672249    3      2      
iter:   7  17:10:57         -2.69  -159.672599    3      2      
iter:   8  17:10:58         -2.85  -159.672194    3      2      
iter:   9  17:10:58         -3.04  -159.669894    2      1      
iter:  10  17:10:59         -3.17  -159.669844    2      1      
iter:  11  17:10:59         -3.37  -159.671144    2      1      
iter:  12  17:11:00         -3.54  -159.671654    2      1      
iter:  13  17:11:00         -3.65  -159.673130    2      1      
iter:  14  17:11:01         -3.78  -159.672678    2      1      
iter:  15  17:11:01         -3.87  -159.671455    2      1      
iter:  16  17:11:02         -4.20  -159.672436    2      1      

Converged after 16 iterations.

Dipole moment: (0.453385, -0.326585, -0.001455) |e|*Ang

Energy contributions relative to reference atoms: (reference = -24663.074771)

Kinetic:       +101.748937
Potential:     -102.560614
External:        +0.000000
XC:            -161.460552
Entropy (-ST):   -0.390358
Local:           +2.794972
--------------------------
Free energy:   -159.867615
Extrapolated:  -159.672436

Fermi level: -4.57467

 Band  Eigenvalues  Occupancy
    0    -24.74377    2.00000
    1    -23.73299    2.00000
    2    -23.46863    2.00000
    3    -21.68881    2.00000
    4    -21.06342    2.00000
    5    -20.47348    2.00000
    6    -19.65347    2.00000
    7    -18.58582    2.00000
    8    -18.40463    2.00000
    9    -18.25840    2.00000
   10    -17.34492    2.00000
   11    -16.85138    2.00000
   12    -16.20558    2.00000
   13    -15.60387    2.00000
   14    -15.12191    2.00000
   15    -14.17683    2.00000
   16    -13.80457    2.00000
   17    -13.50795    2.00000
   18    -13.08891    2.00000
   19    -12.75801    2.00000
   20    -12.31595    2.00000
   21    -11.70690    2.00000
   22    -11.25761    2.00000
   23    -11.19023    2.00000
   24    -11.03309    2.00000
   25    -10.69954    2.00000
   26    -10.53103    2.00000
   27    -10.37186    2.00000
   28     -9.90423    2.00000
   29     -9.38039    2.00000
   30     -9.23535    2.00000
   31     -9.00268    2.00000
   32     -8.55961    2.00000
   33     -8.15745    2.00000
   34     -7.83393    2.00000
   35     -7.47175    2.00000
   36     -7.39623    2.00000
   37     -7.04347    2.00000
   38     -6.74019    2.00000
   39     -6.62135    2.00000
   40     -6.22816    2.00000
   41     -5.83451    1.99999
   42     -5.77739    1.99999
   43     -5.65434    1.99996
   44     -5.58417    1.99992
   45     -4.92886    1.94371
   46     -4.73732    1.67139
   47     -4.69952    1.55409
   48     -4.52424    0.75310
   49     -4.23378    0.06404
   50     -4.07759    0.01378
   51     -3.45416    0.00003
   52     -3.01089    0.00000
   53     -2.73412    0.00000
   54     -2.65647    0.00000
   55     -2.38693    0.00000
   56     -2.13058    0.00000
   57     -1.57283    0.00000
   58     -1.27400    0.00000
   59     -1.16610    0.00000
   60     -0.93488    0.00000
   61     -0.44824    0.00000
   62     -0.12802    0.00000
   63      0.14267    0.00000
   64      0.37443    0.00000
   65      0.69332    0.00000
   66      1.14307    0.00000
   67      1.43833    0.00000
   68      1.70751    0.00000
   69      1.84607    0.00000
   70      2.27478    0.00000
   71      2.73997    0.00000
   72      3.46773    0.00000
   73      4.43165    0.00000
   74      4.50414    0.00000
   75      4.71408    0.00000
   76      4.97303    0.00000
   77      5.42421    0.00000
   78      6.12159    0.00000
   79      6.39293    0.00000
   80      6.84890    0.00000
   81      7.29174    0.00000
   82      7.46690    0.00000
   83      7.79321    0.00000
   84      7.92895    0.00000
   85      8.24085    0.00000
   86      8.30469    0.00000
   87      8.46972    0.00000
   88      8.51376    0.00000
   89      8.62526    0.00000
   90      8.82813    0.00000
   91      9.02705    0.00000
   92      9.12255    0.00000
   93      9.29749    0.00000
   94      9.34449    0.00000
   95      9.47167    0.00000
   96      9.58751    0.00000
   97      9.64348    0.00000


Forces in eV/Ang:
  0 C    -4.28995    2.24369   -2.93600
  1 C     0.09054    1.70871   -1.38185
  2 C    -1.16916    0.91986   -0.59997
  3 C    -0.23341   -1.67103   -0.95927
  4 C    -2.39193    2.39905    0.13580
  5 C     0.12093    0.39466    0.33671
  6 C    -0.09558   -1.23080    2.38988
  7 C     0.78989    1.35128   -0.40331
  8 C    -0.53744   -0.36716    0.07705
  9 C     3.60123   -3.26692    1.84295
 10 C    -1.05060   -1.45888   -0.28369
 11 C     0.69732   -2.82799    0.22194
 12 C     0.68044   -0.11375    0.45712
 13 C     1.44582   -0.26764    0.78893
 14 C    -0.54506    0.57609   -0.71282
 15 C    -0.20947    0.21225   -0.18793
 16 C     0.21387    2.10305    2.64349
 17 C    -0.57791    0.59609   -1.01817
 18 C     0.33254   -3.42391   -1.56653
 19 C     0.83138    1.75039   -0.46228
 20 C    -0.10623    1.47411   -1.62779
 21 C     0.36161   -1.03152    0.27189
 22 C    -0.56645    2.48026   -0.37928
 23 C     2.55085   -2.59850    3.27266

System changes: positions 

Initializing position-dependent things.

Density initialized from wave functions
           .--------------------------------------.  
          /|                                      |  
         / |                                      |  
        /  |                                      |  
       /   |                                      |  
      /    |                                      |  
     /     |                                      |  
    /      |                                      |  
   /       |                                      |  
  /        |          C C     C  C                |  
 *         |      C C      C C     C              |  
 |         |      C       C       C               |  
 |         .-----C--C--C-----C--C--C--------------.  
 |        /         C   C CC C                   /   
 |       /           C                          /    
 |      /                                      /     
 |     /                                      /      
 |    /                                      /       
 |   /                                      /        
 |  /                                      /         
 | /                                      /          
 |/                                      /           
 *--------------------------------------*            

Positions:
   0 C      6.067378    9.799482    5.726336
   1 C     12.066237    7.115221    5.020085
   2 C      5.923489    7.744806    6.079896
   3 C      7.951824    5.204311    4.724495
   4 C      8.947209    6.094878    4.526310
   5 C      6.559255    5.305349    4.404292
   6 C      6.580248   10.844309    4.887086
   7 C      4.796044    6.944755    4.499736
   8 C      6.005648    6.440366    5.125209
   9 C     11.538872    8.367900    4.656475
  10 C     10.381899   10.319139    5.176500
  11 C      9.016231    9.064931    5.494158
  12 C     10.387601    4.955609    4.961820
  13 C     10.897510    6.303379    5.055927
  14 C      9.751161    7.131953    4.916095
  15 C      9.244659   10.885529    4.780451
  16 C      6.330115    6.612125    3.331774
  17 C      4.681962    8.224290    5.223110
  18 C      7.871118    8.969230    4.662378
  19 C      7.115010    7.638412    4.195296
  20 C      7.915907   10.453573    4.662491
  21 C      9.183320    4.451366    4.828886
  22 C     11.533490    9.630316    4.976095
  23 C      4.523838    9.613451    4.925431

Unit cell:
           periodic     x           y           z      points  spacing
  1. axis:    yes   16.000000    0.000000    0.000000    80     0.2000
  2. axis:    yes    0.000000   16.000000    0.000000    80     0.2000
  3. axis:    yes    0.000000    0.000000   10.000000    48     0.2083

Effective grid spacing dv^(1/3) = 0.2027

                     log10-error:    total        iterations:
           time      wfs    density  energy       fermi  poisson
iter:   1  17:11:03          +inf  -160.929075    3      5      
iter:   2  17:11:04         -1.73  -160.757587    3      2      
iter:   3  17:11:04         -2.06  -160.730349    3      2      
iter:   4  17:11:05         -2.22  -160.717369    3      2      
iter:   5  17:11:05         -2.40  -160.713686    2      2      
iter:   6  17:11:06         -2.54  -160.713293    3      2      
iter:   7  17:11:06         -2.78  -160.709198    3      1      
iter:   8  17:11:07         -2.89  -160.712553    3      2      
iter:   9  17:11:07         -3.10  -160.711721    2      1      
iter:  10  17:11:08         -3.22  -160.709987    2      1      
iter:  11  17:11:08         -3.40  -160.713718    2      1      
iter:  12  17:11:09         -3.49  -160.713766    2      1      
iter:  13  17:11:09         -3.61  -160.712170    2      1      
iter:  14  17:11:10         -3.72  -160.713050    2      1      
iter:  15  17:11:10         -3.82  -160.713260    2      1      
iter:  16  17:11:11         -3.99  -160.712132    2      1      
iter:  17  17:11:11         -4.30  -160.713313    2      1      

Converged after 17 iterations.

Dipole moment: (0.421700, -0.323245, -0.006458) |e|*Ang

Energy contributions relative to reference atoms: (reference = -24663.074771)

Kinetic:       +101.166598
Potential:     -102.338170
External:        +0.000000
XC:            -162.146437
Entropy (-ST):   -0.401235
Local:           +2.805314
--------------------------
Free energy:   -160.913930
Extrapolated:  -160.713313

Fermi level: -4.56078

 Band  Eigenvalues  Occupancy
    0    -24.59146    2.00000
    1    -23.72360    2.00000
    2    -23.32653    2.00000
    3    -21.64284    2.00000
    4    -21.04077    2.00000
    5    -20.47580    2.00000
    6    -19.65638    2.00000
    7    -18.61870    2.00000
    8    -18.40385    2.00000
    9    -18.31712    2.00000
   10    -17.43031    2.00000
   11    -16.85488    2.00000
   12    -16.21265    2.00000
   13    -15.60963    2.00000
   14    -15.17376    2.00000
   15    -14.22119    2.00000
   16    -13.81913    2.00000
   17    -13.56188    2.00000
   18    -13.11683    2.00000
   19    -12.72953    2.00000
   20    -12.34270    2.00000
   21    -11.69543    2.00000
   22    -11.25585    2.00000
   23    -11.18175    2.00000
   24    -11.03158    2.00000
   25    -10.69839    2.00000
   26    -10.53259    2.00000
   27    -10.44651    2.00000
   28     -9.89176    2.00000
   29     -9.36864    2.00000
   30     -9.19848    2.00000
   31     -8.98770    2.00000
   32     -8.56916    2.00000
   33     -8.17653    2.00000
   34     -7.81911    2.00000
   35     -7.54100    2.00000
   36     -7.41093    2.00000
   37     -7.09619    2.00000
   38     -6.74825    2.00000
   39     -6.63154    2.00000
   40     -6.30396    2.00000
   41     -5.85571    2.00000
   42     -5.79084    1.99999
   43     -5.66616    1.99997
   44     -5.55976    1.99991
   45     -4.95050    1.96021
   46     -4.71460    1.64641
   47     -4.66477    1.47768
   48     -4.52788    0.83697
   49     -4.21602    0.06168
   50     -4.08573    0.01715
   51     -3.46016    0.00003
   52     -2.96110    0.00000
   53     -2.69955    0.00000
   54     -2.63045    0.00000
   55     -2.31199    0.00000
   56     -2.04494    0.00000
   57     -1.60651    0.00000
   58     -1.28554    0.00000
   59     -1.08368    0.00000
   60     -0.84680    0.00000
   61     -0.39264    0.00000
   62     -0.08176    0.00000
   63      0.22881    0.00000
   64      0.42007    0.00000
   65      0.69902    0.00000
   66      1.22079    0.00000
   67      1.59721    0.00000
   68      1.74981    0.00000
   69      2.16577    0.00000
   70      2.39453    0.00000
   71      2.75344    0.00000
   72      3.55662    0.00000
   73      4.44363    0.00000
   74      4.65402    0.00000
   75      4.74476    0.00000
   76      4.93174    0.00000
   77      5.51567    0.00000
   78      6.12710    0.00000
   79      6.46872    0.00000
   80      6.97720    0.00000
   81      7.50749    0.00000
   82      7.59242    0.00000
   83      7.87011    0.00000
   84      8.04773    0.00000
   85      8.29506    0.00000
   86      8.32501    0.00000
   87      8.51371    0.00000
   88      8.58851    0.00000
   89      8.67067    0.00000
   90      8.82666    0.00000
   91      9.07522    0.00000
   92      9.14890    0.00000
   93      9.33648    0.00000
   94      9.34605    0.00000
   95      9.49973    0.00000
   96      9.63322    0.00000
   97      9.70899    0.00000


Forces in eV/Ang:
  0 C    -4.65139    2.18370   -2.83593
  1 C     0.20983    1.20517   -1.17640
  2 C    -1.05424    0.77479   -0.62378
  3 C    -0.03222   -1.53191   -0.91907
  4 C    -2.42193    2.34965    0.12291
  5 C     0.03519    0.38225    0.26942
  6 C     0.17234   -0.91263    2.18147
  7 C     0.77170    1.18283   -0.50690
  8 C    -0.64208   -0.50846    0.21296
  9 C     3.41092   -2.17117    1.79125
 10 C    -1.10112   -1.47320   -0.28439
 11 C     0.66090   -2.96735    0.01522
 12 C     0.61269   -0.08762    0.43639
 13 C     1.11528   -0.17393    0.66160
 14 C    -0.43967    0.40012   -0.48758
 15 C    -0.37784    0.20758   -0.17131
 16 C     0.15485    2.06024    2.68576
 17 C    -0.43868    0.04803   -0.82891
 18 C     0.49513   -2.95282   -1.60013
 19 C     1.06095    1.85530   -0.36980
 20 C    -0.20844    0.93957   -1.52567
 21 C     0.39335   -0.77432    0.25931
 22 C    -0.44095    1.89584   -0.51793
 23 C     2.66362   -1.95256    3.16825

System changes: positions 

Initializing position-dependent things.

Density initialized from wave functions
           .--------------------------------------.  
          /|                                      |  
         / |                                      |  
        /  |                                      |  
       /   |                                      |  
      /    |                                      |  
     /     |                                      |  
    /      |                                      |  
   /       |                                      |  
  /        |          C C     C  C                |  
 *         |      C C      C C     C              |  
 |         |      C       C       C               |  
 |         .-----C--C--C-----C--C--C--------------.  
 |        /         C   C CC C                   /   
 |       /           C                          /    
 |      /                                      /     
 |     /                                      /      
 |    /                                      /       
 |   /                                      /        
 |  /                                      /         
 | /                                      /          
 |/                                      /           
 *--------------------------------------*            

Positions:
   0 C      6.034994    9.813771    5.707706
   1 C     12.068238    7.121518    5.012939
   2 C      5.916746    7.749475    6.075577
   3 C      7.952763    5.194564    4.718444
   4 C      8.930564    6.110173    4.527096
   5 C      6.559209    5.307884    4.405840
   6 C      6.582134   10.839532    4.900926
   7 C      4.801180    6.952070    4.495992
   8 C      6.000959    6.436417    5.127076
   9 C     11.561709    8.361583    4.670041
  10 C     10.374488   10.309146    5.174641
  11 C      9.020316    9.044632    5.493367
  12 C     10.391164    4.955026    4.964659
  13 C     10.903107    6.302743    5.059883
  14 C      9.749357    7.133808    4.913712
  15 C      9.241132   10.886971    4.779393
  16 C      6.330926    6.625767    3.350008
  17 C      4.679574    8.222823    5.218266
  18 C      7.875091    8.953091    4.651631
  19 C      7.122974    7.651239    4.193105
  20 C      7.914455   10.455850    4.652662
  21 C      9.186175    4.447362    4.830588
  22 C     11.530438    9.636616    4.970380
  23 C      4.542143    9.602650    4.946246

Unit cell:
           periodic     x           y           z      points  spacing
  1. axis:    yes   16.000000    0.000000    0.000000    80     0.2000
  2. axis:    yes    0.000000   16.000000    0.000000    80     0.2000
  3. axis:    yes    0.000000    0.000000   10.000000    48     0.2083

Effective grid spacing dv^(1/3) = 0.2027

                     log10-error:    total        iterations:
           time      wfs    density  energy       fermi  poisson
iter:   1  17:11:13          +inf  -161.897409    3      5      
iter:   2  17:11:14         -1.74  -161.726709    3      2      
iter:   3  17:11:14         -2.08  -161.702579    3      2      
iter:   4  17:11:15         -2.24  -161.691298    3      2      
iter:   5  17:11:15         -2.42  -161.688709    3      2      
iter:   6  17:11:16         -2.54  -161.687652    3      2      
iter:   7  17:11:16         -2.71  -161.687405    3      2      
iter:   8  17:11:17         -2.92  -161.687169    3      2      
iter:   9  17:11:17         -3.10  -161.684558    2      1      
iter:  10  17:11:18         -3.25  -161.685771    2      1      
iter:  11  17:11:18         -3.39  -161.687577    2      1      
iter:  12  17:11:19         -3.50  -161.686157    2      1      
iter:  13  17:11:19         -3.71  -161.687609    2      1      
iter:  14  17:11:20         -3.82  -161.687542    2      1      
iter:  15  17:11:20         -3.93  -161.686840    2      1      
iter:  16  17:11:21         -4.12  -161.687373    2      1      

Converged after 16 iterations.

Dipole moment: (0.381500, -0.315798, -0.011732) |e|*Ang

Energy contributions relative to reference atoms: (reference = -24663.074771)

Kinetic:       +100.837681
Potential:     -102.328691
External:        +0.000000
XC:            -162.808203
Entropy (-ST):   -0.409299
Local:           +2.816490
--------------------------
Free energy:   -161.892022
Extrapolated:  -161.687373

Fermi level: -4.54467

 Band  Eigenvalues  Occupancy
    0    -24.44313    2.00000
    1    -23.71899    2.00000
    2    -23.17779    2.00000
    3    -21.59181    2.00000
    4    -21.03639    2.00000
    5    -20.46630    2.00000
    6    -19.65977    2.00000
    7    -18.65646    2.00000
    8    -18.39343    2.00000
    9    -18.36555    2.00000
   10    -17.50075    2.00000
   11    -16.84636    2.00000
   12    -16.20804    2.00000
   13    -15.62222    2.00000
   14    -15.21059    2.00000
   15    -14.25708    2.00000
   16    -13.82980    2.00000
   17    -13.61253    2.00000
   18    -13.13942    2.00000
   19    -12.71019    2.00000
   20    -12.36051    2.00000
   21    -11.67919    2.00000
   22    -11.31030    2.00000
   23    -11.12945    2.00000
   24    -11.01244    2.00000
   25    -10.68572    2.00000
   26    -10.52841    2.00000
   27    -10.50447    2.00000
   28     -9.87862    2.00000
   29     -9.36393    2.00000
   30     -9.14400    2.00000
   31     -8.97559    2.00000
   32     -8.57918    2.00000
   33     -8.20278    2.00000
   34     -7.82454    2.00000
   35     -7.63836    2.00000
   36     -7.39680    2.00000
   37     -7.14484    2.00000
   38     -6.76328    2.00000
   39     -6.65946    2.00000
   40     -6.36682    2.00000
   41     -5.91104    2.00000
   42     -5.77295    1.99999
   43     -5.67102    1.99997
   44     -5.52694    1.99989
   45     -4.96894    1.97167
   46     -4.70443    1.66337
   47     -4.61603    1.34241
   48     -4.53290    0.94120
   49     -4.19993    0.06169
   50     -4.08395    0.01976
   51     -3.45977    0.00004
   52     -2.91333    0.00000
   53     -2.71305    0.00000
   54     -2.56082    0.00000
   55     -2.24529    0.00000
   56     -1.95936    0.00000
   57     -1.64775    0.00000
   58     -1.29590    0.00000
   59     -1.00534    0.00000
   60     -0.75728    0.00000
   61     -0.34400    0.00000
   62     -0.04130    0.00000
   63      0.31785    0.00000
   64      0.48481    0.00000
   65      0.72202    0.00000
   66      1.28166    0.00000
   67      1.73310    0.00000
   68      1.81192    0.00000
   69      2.30435    0.00000
   70      2.59563    0.00000
   71      2.86408    0.00000
   72      3.64706    0.00000
   73      4.42511    0.00000
   74      4.71803    0.00000
   75      4.84047    0.00000
   76      5.01577    0.00000
   77      5.61477    0.00000
   78      6.11534    0.00000
   79      6.53903    0.00000
   80      7.08228    0.00000
   81      7.62551    0.00000
   82      7.72820    0.00000
   83      7.93237    0.00000
   84      8.11972    0.00000
   85      8.32267    0.00000
   86      8.37957    0.00000
   87      8.54913    0.00000
   88      8.66713    0.00000
   89      8.72908    0.00000
   90      8.82627    0.00000
   91      9.10373    0.00000
   92      9.18225    0.00000
   93      9.33269    0.00000
   94      9.38736    0.00000
   95      9.53387    0.00000
   96      9.67458    0.00000
   97      9.77937    0.00000


Forces in eV/Ang:
  0 C    -4.84528    2.18181   -2.76166
  1 C     0.31602    0.72848   -0.98427
  2 C    -0.97440    0.58074   -0.65493
  3 C     0.16722   -1.37468   -0.88993
  4 C    -2.47815    2.34033    0.12401
  5 C    -0.02769    0.37615    0.20543
  6 C     0.38611   -0.60651    2.04508
  7 C     0.75469    1.01233   -0.62230
  8 C    -0.74843   -0.67035    0.31933
  9 C     3.19208   -1.21957    1.76096
 10 C    -1.14729   -1.49746   -0.29160
 11 C     0.68829   -3.11497   -0.21019
 12 C     0.56147   -0.09150    0.42014
 13 C     0.81716   -0.10834    0.52970
 14 C    -0.35720    0.25581   -0.26545
 15 C    -0.55274    0.22004   -0.15045
 16 C     0.05297    1.98648    2.75532
 17 C    -0.29517   -0.39845   -0.64391
 18 C     0.57973   -2.53345   -1.61642
 19 C     1.32700    1.89786   -0.28462
 20 C    -0.29503    0.50069   -1.43955
 21 C     0.43908   -0.53916    0.24652
 22 C    -0.30937    1.40972   -0.63486
 23 C     2.70160   -1.40359    3.03482

System changes: positions 

Initializing position-dependent things.

Density initialized from wave functions
           .--------------------------------------.  
          /|                                      |  
         / |                                      |  
[...]
    3    -21.10115    2.00000
    4    -20.52988    2.00000
    5    -20.04676    2.00000
    6    -19.72688    2.00000
    7    -19.35060    2.00000
    8    -18.19689    2.00000
    9    -17.95272    2.00000
   10    -17.64854    2.00000
   11    -16.92046    2.00000
   12    -16.28100    2.00000
   13    -15.75623    2.00000
   14    -15.49937    2.00000
   15    -14.59913    2.00000
   16    -14.12463    2.00000
   17    -13.93125    2.00000
   18    -13.33124    2.00000
   19    -12.94575    2.00000
   20    -12.36620    2.00000
   21    -11.85016    2.00000
   22    -11.66728    2.00000
   23    -11.07812    2.00000
   24    -10.82771    2.00000
   25    -10.51780    2.00000
   26    -10.48907    2.00000
   27    -10.18555    2.00000
   28     -9.87567    2.00000
   29     -9.79454    2.00000
   30     -9.38840    2.00000
   31     -9.30608    2.00000
   32     -8.83403    2.00000
   33     -8.80220    2.00000
   34     -8.56405    2.00000
   35     -8.22661    2.00000
   36     -7.80289    2.00000
   37     -7.32749    2.00000
   38     -7.23031    2.00000
   39     -7.13840    2.00000
   40     -6.73245    2.00000
   41     -6.23488    2.00000
   42     -5.87734    2.00000
   43     -5.45274    1.99994
   44     -5.08091    1.99753
   45     -4.95888    1.99165
   46     -4.85418    1.97638
   47     -4.39190    0.90234
   48     -4.38875    0.88676
   49     -4.21472    0.24526
   50     -3.45652    0.00014
   51     -2.97359    0.00000
   52     -2.65724    0.00000
   53     -2.40622    0.00000
   54     -1.94258    0.00000
   55     -1.58851    0.00000
   56     -0.91483    0.00000
   57     -0.82289    0.00000
   58     -0.38667    0.00000
   59      0.02359    0.00000
   60      0.90375    0.00000
   61      1.27135    0.00000
   62      2.09409    0.00000
   63      2.30578    0.00000
   64      2.72720    0.00000
   65      3.33107    0.00000
   66      3.86288    0.00000
   67      4.08573    0.00000
   68      4.49740    0.00000
   69      4.90555    0.00000
   70      5.37282    0.00000
   71      5.77460    0.00000
   72      5.94634    0.00000
   73      6.43031    0.00000
   74      6.77502    0.00000
   75      6.93357    0.00000
   76      7.19191    0.00000
   77      7.63754    0.00000
   78      8.07385    0.00000
   79      8.16082    0.00000
   80      8.48843    0.00000
   81      8.53895    0.00000
   82      8.67026    0.00000
   83      8.92631    0.00000
   84      9.14548    0.00000
   85      9.28058    0.00000
   86      9.37154    0.00000
   87      9.40289    0.00000
   88      9.49025    0.00000
   89      9.53126    0.00000
   90      9.70384    0.00000
   91      9.82903    0.00000
   92      9.83818    0.00000
   93     10.04629    0.00000
   94     10.20037    0.00000
   95     10.37588    0.00000
   96     10.44226    0.00000
   97     10.50679    0.00000


Forces in eV/Ang:
  0 C    -0.04541   -0.03167   -0.02529
  1 C    -0.00062    0.02744    0.03189
  2 C    -0.02006    0.01474   -0.04903
  3 C    -0.02160   -0.02372    0.01122
  4 C     0.02325   -0.02584    0.03026
  5 C    -0.01991   -0.02509    0.01270
  6 C    -0.05995   -0.07805   -0.05759
  7 C    -0.02075    0.00151    0.01869
  8 C    -0.01286    0.01453   -0.05200
  9 C     0.04162   -0.02758   -0.02039
 10 C     0.07939    0.06963    0.05768
 11 C    -0.04134    0.08366   -0.00025
 12 C    -0.00403   -0.04536    0.00188
 13 C     0.02590    0.01182   -0.00419
 14 C     0.01307    0.02651   -0.00563
 15 C     0.05143   -0.00671    0.01630
 16 C     0.00360    0.01123    0.02831
 17 C     0.06421   -0.02384   -0.00566
 18 C    -0.04826    0.00260    0.03016
 19 C    -0.01942    0.06028   -0.01275
 20 C     0.00230    0.00397   -0.03429
 21 C    -0.02163    0.00077    0.00893
 22 C     0.05045    0.02397    0.00229
 23 C     0.07329   -0.02945    0.01572

System changes: positions 

Initializing position-dependent things.

Density initialized from wave functions
           .--------------------------------------.  
          /|                                      |  
         / |                                      |  
        /  |                                      |  
       /   |                                      |  
      /    |                                      |  
     /     |                                      |  
    /      |                                      |  
   /       |                                      |  
  /        |       C C  C      C                  |  
 *         |     C         C    C  CC             |  
 |         |                  C    C              |  
 |         .-----C---------C-C-C------------------.  
 |        /         CC  C C                      /   
 |       /                                      /    
 |      /                                      /     
 |     /                                      /      
 |    /                                      /       
 |   /                                      /        
 |  /                                      /         
 | /                                      /          
 |/                                      /           
 *--------------------------------------*            

Positions:
   0 C      5.712893   10.124410    5.433331
   1 C     12.012856    7.072013    5.491402
   2 C      4.905386    6.653414    6.322079
   3 C      7.946305    5.531300    4.561547
   4 C      8.519307    6.757287    4.105579
   5 C      6.511620    5.764701    4.417011
   6 C      6.825278   10.659391    5.043447
   7 C      4.891743    7.175787    4.331102
   8 C      5.238792    5.931678    5.115420
   9 C     12.064948    8.376340    5.347645
  10 C     10.351893    9.883321    4.750520
  11 C      9.633527    8.693570    4.289488
  12 C     10.205199    5.139885    5.295968
  13 C     10.815949    6.423574    5.081241
  14 C      9.813889    7.257435    4.401822
  15 C      9.381716   10.938678    4.821807
  16 C      6.278647    7.122485    3.828492
  17 C      4.521079    7.886559    5.656285
  18 C      8.248614    9.025453    4.002601
  19 C      7.523227    7.808586    3.821530
  20 C      8.073404   10.417878    4.497423
  21 C      9.007879    4.760028    5.124612
  22 C     11.677237    9.622048    5.208844
  23 C      4.911850    9.177440    5.843898

Unit cell:
           periodic     x           y           z      points  spacing
  1. axis:    yes   16.000000    0.000000    0.000000    80     0.2000
  2. axis:    yes    0.000000   16.000000    0.000000    80     0.2000
  3. axis:    yes    0.000000    0.000000   10.000000    48     0.2083

Effective grid spacing dv^(1/3) = 0.2027

                     log10-error:    total        iterations:
           time      wfs    density  energy       fermi  poisson
iter:   1  17:21:50          +inf  -181.294530    3      5      
iter:   2  17:21:50         -2.53  -181.289445    3      1      
iter:   3  17:21:51         -2.83  -181.289199    2      1      
iter:   4  17:21:51         -2.92  -181.289407    2      1      
iter:   5  17:21:52         -3.01  -181.289718    2      1      
iter:   6  17:21:52         -3.18  -181.289351    3      1      
iter:   7  17:21:53         -3.22  -181.288323    2      1      
iter:   8  17:21:53         -3.49  -181.288005    2      1      
iter:   9  17:21:54         -3.65  -181.288223    2      1      
iter:  10  17:21:54         -3.79  -181.287844    2      1      
iter:  11  17:21:55         -3.91  -181.287894    2      1      
iter:  12  17:21:55         -3.96  -181.287953    2      1      
iter:  13  17:21:56         -4.24  -181.287873    2      1      

Converged after 13 iterations.

Dipole moment: (-0.235946, -0.112939, -0.254840) |e|*Ang

Energy contributions relative to reference atoms: (reference = -24663.074771)

Kinetic:       +113.694075
Potential:     -119.450926
External:        +0.000000
XC:            -178.333759
Entropy (-ST):   -0.368579
Local:           +2.987026
--------------------------
Free energy:   -181.472163
Extrapolated:  -181.287873

Fermi level: -4.41574

 Band  Eigenvalues  Occupancy
    0    -23.64081    2.00000
    1    -22.82993    2.00000
    2    -21.77455    2.00000
    3    -21.09834    2.00000
    4    -20.52882    2.00000
    5    -20.04709    2.00000
    6    -19.72584    2.00000
    7    -19.35047    2.00000
    8    -18.20149    2.00000
    9    -17.95225    2.00000
   10    -17.65241    2.00000
   11    -16.91919    2.00000
   12    -16.28743    2.00000
   13    -15.75921    2.00000
   14    -15.49098    2.00000
   15    -14.60220    2.00000
   16    -14.12124    2.00000
   17    -13.92525    2.00000
   18    -13.33301    2.00000
   19    -12.94031    2.00000
   20    -12.35921    2.00000
   21    -11.85401    2.00000
   22    -11.66571    2.00000
   23    -11.08314    2.00000
   24    -10.82594    2.00000
   25    -10.51850    2.00000
   26    -10.48987    2.00000
   27    -10.17896    2.00000
   28     -9.87916    2.00000
   29     -9.79612    2.00000
   30     -9.38891    2.00000
   31     -9.30307    2.00000
   32     -8.82841    2.00000
   33     -8.80473    2.00000
   34     -8.56621    2.00000
   35     -8.22941    2.00000
   36     -7.79389    2.00000
   37     -7.32505    2.00000
   38     -7.23161    2.00000
   39     -7.13933    2.00000
   40     -6.73703    2.00000
   41     -6.24358    2.00000
   42     -5.87765    2.00000
   43     -5.45784    1.99994
   44     -5.09048    1.99765
   45     -4.96079    1.99145
   46     -4.85831    1.97635
   47     -4.40219    0.93235
   48     -4.38812    0.86279
   49     -4.21617    0.23931
   50     -3.47230    0.00016
   51     -2.97444    0.00000
   52     -2.66415    0.00000
   53     -2.40328    0.00000
   54     -1.95383    0.00000
   55     -1.59651    0.00000
   56     -0.90224    0.00000
   57     -0.80225    0.00000
   58     -0.36821    0.00000
   59      0.02834    0.00000
   60      0.88922    0.00000
   61      1.25534    0.00000
   62      2.05600    0.00000
   63      2.30337    0.00000
   64      2.70485    0.00000
   65      3.33174    0.00000
   66      3.83346    0.00000
   67      4.06163    0.00000
   68      4.48892    0.00000
   69      4.89647    0.00000
   70      5.37190    0.00000
   71      5.75514    0.00000
   72      5.93827    0.00000
   73      6.41520    0.00000
   74      6.76470    0.00000
   75      6.93210    0.00000
   76      7.18118    0.00000
   77      7.61378    0.00000
   78      8.06305    0.00000
   79      8.14388    0.00000
   80      8.47516    0.00000
   81      8.53073    0.00000
   82      8.65649    0.00000
   83      8.92222    0.00000
   84      9.13266    0.00000
   85      9.26942    0.00000
   86      9.37779    0.00000
   87      9.40152    0.00000
   88      9.48531    0.00000
   89      9.53558    0.00000
   90      9.69749    0.00000
   91      9.82390    0.00000
   92      9.83239    0.00000
   93     10.04012    0.00000
   94     10.20132    0.00000
   95     10.37775    0.00000
   96     10.43542    0.00000
   97     10.50210    0.00000


Forces in eV/Ang:
  0 C    -0.03370    0.00550    0.01554
  1 C    -0.01860    0.04051    0.03072
  2 C     0.01185    0.00025   -0.03403
  3 C    -0.02269   -0.01188    0.00030
  4 C     0.02385   -0.03213   -0.00289
  5 C    -0.01010   -0.01316    0.05252
  6 C    -0.06849   -0.05700   -0.06941
  7 C    -0.00318    0.00511    0.02009
  8 C    -0.01601    0.00764   -0.07797
  9 C     0.00506    0.01847   -0.02854
 10 C     0.06298    0.07103    0.07276
 11 C    -0.01236    0.05945   -0.01305
 12 C     0.00609   -0.00010    0.00362
 13 C     0.02521    0.00546   -0.04121
 14 C     0.00372    0.03131    0.03953
 15 C     0.06548   -0.02586    0.00147
 16 C    -0.01116    0.03034    0.01996
 17 C     0.05587   -0.03337   -0.05638
 18 C    -0.01033   -0.01656    0.05018
 19 C    -0.02579    0.00663    0.06150
 20 C     0.01187   -0.04280   -0.05758
 21 C    -0.02056    0.01673    0.00382
 22 C     0.02750   -0.02809    0.00749
 23 C     0.05274    0.00010    0.02121

System changes: positions 

Initializing position-dependent things.

Density initialized from wave functions
           .--------------------------------------.  
          /|                                      |  
         / |                                      |  
        /  |                                      |  
       /   |                                      |  
      /    |                                      |  
     /     |                                      |  
    /      |                                      |  
   /       |                                      |  
  /        |       C C  C      C                  |  
 *         |     C         C    C  CC             |  
 |         |                  C    C              |  
 |         .-----C---------C-C-C------------------.  
 |        /         CC  C C                      /   
 |       /                                      /    
 |      /                                      /     
 |     /                                      /      
 |    /                                      /       
 |   /                                      /        
 |  /                                      /         
 | /                                      /          
 |/                                      /           
 *--------------------------------------*            

Positions:
   0 C      5.710356   10.127211    5.432981
   1 C     12.013299    7.072452    5.490225
   2 C      4.909743    6.655837    6.319858
   3 C      7.945951    5.530142    4.563108
   4 C      8.519120    6.757049    4.108502
   5 C      6.511247    5.763295    4.418016
   6 C      6.822821   10.657588    5.039340
   7 C      4.891360    7.175132    4.332585
   8 C      5.237539    5.930516    5.115190
   9 C     12.066827    8.376397    5.345101
  10 C     10.352994    9.884706    4.753230
  11 C      9.632721    8.694423    4.292235
  12 C     10.206924    5.138293    5.293126
  13 C     10.817259    6.422786    5.078648
  14 C      9.814135    7.257712    4.402579
  15 C      9.381979   10.938170    4.822631
  16 C      6.278795    7.122026    3.829932
  17 C      4.522499    7.887945    5.654548
  18 C      8.247941    9.025001    4.006526
  19 C      7.522523    7.807944    3.824197
  20 C      8.072965   10.417050    4.499164
  21 C      9.008807    4.759341    5.123787
  22 C     11.678592    9.622013    5.209308
  23 C      4.909722    9.179598    5.838392

Unit cell:
           periodic     x           y           z      points  spacing
  1. axis:    yes   16.000000    0.000000    0.000000    80     0.2000
  2. axis:    yes    0.000000   16.000000    0.000000    80     0.2000
  3. axis:    yes    0.000000    0.000000   10.000000    48     0.2083

Effective grid spacing dv^(1/3) = 0.2027

                     log10-error:    total        iterations:
           time      wfs    density  energy       fermi  poisson
iter:   1  17:21:57          +inf  -181.292500    2      4      
iter:   2  17:21:58         -2.71  -181.289429    3      1      
iter:   3  17:21:58         -3.08  -181.289297    2      1      
iter:   4  17:21:59         -3.21  -181.289243    2      1      
iter:   5  17:21:59         -3.37  -181.289077    2      1      
iter:   6  17:22:00         -3.48  -181.288684    2      1      
iter:   7  17:22:00         -3.41  -181.289286    2      1      
iter:   8  17:22:01         -3.79  -181.289414    2      1      
iter:   9  17:22:01         -3.93  -181.289205    2      1      
iter:  10  17:22:02         -3.97  -181.289471    2      1      
iter:  11  17:22:02         -4.33  -181.289529    2      1      

Converged after 11 iterations.

Dipole moment: (-0.240790, -0.107761, -0.251986) |e|*Ang

Energy contributions relative to reference atoms: (reference = -24663.074771)

Kinetic:       +113.935866
Potential:     -119.629738
External:        +0.000000
XC:            -178.413675
Entropy (-ST):   -0.367878
Local:           +3.001956
--------------------------
Free energy:   -181.473468
Extrapolated:  -181.289529

Fermi level: -4.41275

 Band  Eigenvalues  Occupancy
    0    -23.64551    2.00000
    1    -22.83031    2.00000
    2    -21.77514    2.00000
    3    -21.09501    2.00000
    4    -20.53348    2.00000
    5    -20.04560    2.00000
    6    -19.72797    2.00000
    7    -19.35019    2.00000
    8    -18.20175    2.00000
    9    -17.95501    2.00000
   10    -17.64790    2.00000
   11    -16.91847    2.00000
   12    -16.29055    2.00000
   13    -15.75873    2.00000
   14    -15.49339    2.00000
   15    -14.59924    2.00000
   16    -14.12523    2.00000
   17    -13.92877    2.00000
   18    -13.33318    2.00000
   19    -12.93909    2.00000
   20    -12.36095    2.00000
   21    -11.85259    2.00000
   22    -11.66418    2.00000
   23    -11.08316    2.00000
   24    -10.82546    2.00000
   25    -10.51774    2.00000
   26    -10.49978    2.00000
   27    -10.18043    2.00000
   28     -9.87802    2.00000
   29     -9.79393    2.00000
   30     -9.39077    2.00000
   31     -9.30274    2.00000
   32     -8.82953    2.00000
   33     -8.80232    2.00000
   34     -8.56762    2.00000
   35     -8.23158    2.00000
   36     -7.79963    2.00000
   37     -7.32572    2.00000
   38     -7.23016    2.00000
   39     -7.13816    2.00000
   40     -6.73393    2.00000
   41     -6.23787    2.00000
   42     -5.87674    2.00000
   43     -5.45469    1.99994
   44     -5.08792    1.99766
   45     -4.96044    1.99167
   46     -4.85591    1.97649
   47     -4.39791    0.92591
   48     -4.38704    0.87216
   49     -4.21161    0.23601
   50     -3.46341    0.00015
   51     -2.97466    0.00000
   52     -2.66131    0.00000
   53     -2.40290    0.00000
   54     -1.94900    0.00000
   55     -1.59205    0.00000
   56     -0.89876    0.00000
   57     -0.80278    0.00000
   58     -0.36729    0.00000
   59      0.03246    0.00000
   60      0.89600    0.00000
   61      1.26260    0.00000
   62      2.06872    0.00000
   63      2.30328    0.00000
   64      2.71107    0.00000
   65      3.33261    0.00000
   66      3.84940    0.00000
   67      4.07191    0.00000
   68      4.48807    0.00000
   69      4.89845    0.00000
   70      5.36829    0.00000
   71      5.75757    0.00000
   72      5.93688    0.00000
   73      6.41501    0.00000
   74      6.76089    0.00000
   75      6.93929    0.00000
   76      7.19641    0.00000
   77      7.62281    0.00000
   78      8.07194    0.00000
   79      8.15024    0.00000
   80      8.48139    0.00000
   81      8.53270    0.00000
   82      8.65710    0.00000
   83      8.93435    0.00000
   84      9.13301    0.00000
   85      9.27449    0.00000
   86      9.37450    0.00000
   87      9.40425    0.00000
   88      9.48685    0.00000
   89      9.53973    0.00000
   90      9.69834    0.00000
   91      9.82558    0.00000
   92      9.83075    0.00000
   93     10.04372    0.00000
   94     10.20280    0.00000
   95     10.38410    0.00000
   96     10.43774    0.00000
   97     10.50252    0.00000


Forces in eV/Ang:
  0 C    -0.02150    0.04008   -0.00810
  1 C    -0.02648    0.02612    0.02109
  2 C     0.02135    0.00874    0.01213
  3 C    -0.01287    0.00361   -0.00975
  4 C     0.02118   -0.02646   -0.01240
  5 C    -0.00085    0.00215    0.04262
  6 C    -0.02633   -0.02941   -0.06317
  7 C     0.00836    0.00094   -0.00743
  8 C    -0.01082   -0.03080   -0.08446
  9 C     0.01622    0.01155   -0.02842
 10 C     0.02780    0.04096    0.04775
 11 C     0.00606    0.04533   -0.00471
 12 C    -0.00004    0.00833   -0.00446
 13 C     0.02928    0.00175   -0.01573
 14 C    -0.01467    0.02201    0.04275
 15 C     0.05122   -0.00407    0.00526
 16 C    -0.02017    0.01278    0.00793
 17 C     0.01624   -0.03494   -0.04620
 18 C     0.00224   -0.03202    0.03869
 19 C    -0.00933    0.02027    0.06864
 20 C     0.02069   -0.02711   -0.05825
 21 C    -0.00076    0.00988    0.00335
 22 C     0.01313   -0.01015    0.01165
 23 C     0.00567   -0.02697    0.04917

