
  ___ ___ ___ _ _ _  
 |   |   |_  | | | | 
 | | | | | . | | | | 
 |__ |  _|___|_____|  1.3.0b1
 |___|_|             

User:   esb@s65n32.grendel.cscaa.dk
Date:   Thu Nov  9 11:23:14 2017
Arch:   x86_64
Pid:    24099
Python: 2.7.13
gpaw:   /home/esb/DFT/gpaw_git/gpaw
_gpaw:  /home/esb/DFT/gpaw_git/build/bin.linux-x86_64-2.7/gpaw-python
ase:    /home/esb/DFT/ase_git/ase (version 3.15.0b1)
numpy:  /comm/swstack/core/python/2.7.13/lib/python2.7/site-packages/numpy (version 1.13.3)
scipy:  /comm/swstack/core/python/2.7.13/lib/python2.7/site-packages/scipy (version 0.19.1)
units:  Angstrom and eV
cores:  16
Extra parameters: {'blacs': True}

Input parameters:
  basis: dzp
  gpts: [80 80 48]
  kpts: [1 1 1]
  maxiter: 99
  mixer: {backend: pulay,
          beta: 0.05,
          method: separate,
          nmaxold: 5,
          weight: 75}
  mode: lcao
  nbands: -50
  occupations: {name: fermi-dirac,
                width: 0.1}
  poissonsolver: {eps: 1e-07,
                  name: fd,
                  nn: 3,
                  relax: GS}
  xc: PBE

System changes: positions, numbers, cell, pbc, initial_charges, initial_magmoms 

Initialize ...

C-setup:
  name: Carbon
  id: 4aa54d4b901d75f77cc0ea3eec22967b
  Z: 6
  valence: 4
  core: 2
  charge: 0.0
  file: /home/esb/DFT/gpaw-setups-0.8.7929/C.PBE.gz
  cutoffs: 0.64(comp), 1.14(filt), 1.14(core), lmax=2
  valence states:
                energy  radius
    2s(2.00)   -13.751   0.635
    2p(2.00)    -5.284   0.635
    *s          13.461   0.635
    *p          21.927   0.635
    *d           0.000   0.635

  LCAO basis set for C:
    Name: dzp
    File: /home/esb/DFT/gpaw-setups-0.8.7929/C.dzp.basis.gz
    Number of radial functions: 5
    Number of spherical harmonics: 13
      l=0, rc=5.5469 Bohr: 2s-sz confined orbital
      l=1, rc=6.6719 Bohr: 2p-sz confined orbital
      l=0, rc=3.0312 Bohr: 2s-dz split-valence wave
      l=1, rc=3.7500 Bohr: 2p-dz split-valence wave
      l=2, rc=6.6719 Bohr: d-type Gaussian polarization

Reference energy: -24663.074771

Spin-paired calculation

Occupation numbers:
  Fermi-Dirac: width=0.1000 eV

Convergence criteria:
  Maximum total energy change: 0.0005 eV / electron
  Maximum integral of absolute density change: 0.0001 electrons
  Maximum integral of absolute eigenstate change: 4e-08 eV^2
  Maximum number of iterations: 99

Symmetries present (total): 1

  ( 1  0  0)
  ( 0  1  0)
  ( 0  0  1)

1 k-point (Gamma)
1 k-point in the irreducible part of the Brillouin zone
       k-points in crystal coordinates                weights
   0:     0.00000000    0.00000000    0.00000000          1/1

Wave functions: LCAO
  Diagonalizer: Serial LAPACK
  Atomic Correction: dense with blas
  Datatype: float
  Eigensolver: None 

LCAO using direct dense diagonalizer 

Densities:
  Coarse grid: 80*80*48 grid
  Fine grid: 160*160*96 grid
  Total Charge: 0.000000 

Density mixing:
  Method: separate
  Backend: pulay
  Linear mixing parameter: 0.05
  Mixing with 5 old densities
  Damping of long wave oscillations: 75 

Hamiltonian:
  XC and Coulomb potentials evaluated on a 160*160*96 grid
  Using the PBE Exchange-Correlation functional
  Interpolation: tri-quintic (5. degree polynomial)
  Poisson solver: Gauss-Seidel solver with 6 multi-grid levels
    Coarsest grid: 5 x 5 x 3 points
    Stencil: 6*3+1=19 point O(h^6) finite-difference Laplacian
    Max iterations: 1000
    Tolerance: 1.000000e-07 

Memory estimate:
  Process memory now: 77.57 MiB
  Calculator: 15.59 MiB
    Density: 6.13 MiB
      Arrays: 3.81 MiB
      Localized functions: 0.86 MiB
      Mixer: 1.46 MiB
    Hamiltonian: 5.40 MiB
      Arrays: 2.49 MiB
      XC: 0.00 MiB
      Poisson: 2.85 MiB
      vbar: 0.07 MiB
    Wavefunctions: 4.05 MiB
      C [qnM]: 0.23 MiB
      S, T [2 x qmm]: 1.49 MiB
      P [aqMi]: 0.01 MiB
      TCI: 0.00 MiB
      BasisFunctions: 2.33 MiB
      Eigensolver: 0.00 MiB

Total number of cores used: 16
Domain decomposition: 2 x 4 x 2

Number of atoms: 24
Number of atomic orbitals: 312
Number of bands in calculation: 98
Bands to converge: occupied states only
Number of valence electrons: 96

... initialized

Initializing position-dependent things.

Density initialized from atomic densities
           .--------------------------------------.  
          /|                                      |  
         / |                                      |  
        /  |                                      |  
       /   |                                      |  
      /    |                                      |  
     /     |                                      |  
    /      |                                      |  
   /       |                                      |  
  /       C|                               C  C   |  
 *         | C   C  C  C  C         C   C         |  
 |         | C       C   C  C C  C                |  
 |         .--C----C-C--C-------------------------.  
 |        /   C     C                            /   
 |       /      C      C                        /    
 |      /                                      /     
 |     /                                      /      
 |    /                                      /       
 |   /                                      /        
 |  /                                      /         
 | /                                      /          
 |/                                      /           
 *--------------------------------------*            

Positions:
   0 C      5.475356    2.547808    5.380250
   1 C      3.277671    6.419539    5.686620
   2 C      7.813038    7.306786    5.140267
   3 C      8.917301    8.151583    4.950659
   4 C      6.569235    9.809763    5.185886
   5 C      7.743082   10.209563    4.987110
   6 C      5.655173    8.735896    5.357004
   7 C      6.342271    7.456986    5.312254
   8 C      4.231077    8.847378    5.537609
   9 C      5.784994    6.082988    5.421513
  10 C      8.176236    3.209649    5.332080
  11 C      8.104981    5.894490    5.177121
  12 C      6.857864    3.720848    5.428126
  13 C      6.897319    5.168096    5.343998
  14 C      4.608842    3.479230    5.519144
  15 C      4.277668    4.765506    5.438223
  16 C      9.499476    9.196423    4.361138
  17 C      1.043271    9.945784    5.354893
  18 C     13.234478   10.186743    4.950406
  19 C     10.748433    9.615024    4.515277
  20 C     14.489020   10.277494    5.146169
  21 C     15.796336   10.186026    5.302523
  22 C     11.954845    9.956724    4.720559
  23 C      2.310062    9.550679    5.322292

Unit cell:
           periodic     x           y           z      points  spacing
  1. axis:    yes   16.000000    0.000000    0.000000    80     0.2000
  2. axis:    yes    0.000000   16.000000    0.000000    80     0.2000
  3. axis:    yes    0.000000    0.000000   10.000000    48     0.2083

Effective grid spacing dv^(1/3) = 0.2027

                     log10-error:    total        iterations:
           time      wfs    density  energy       fermi  poisson
iter:   1  11:23:16          +inf  -169.814406    2      6      
iter:   2  11:23:16         -0.88  -167.691471    3      3      
iter:   3  11:23:17         -0.93  -166.349978    3      3      
iter:   4  11:23:17         -0.99  -165.611821    3      3      
iter:   5  11:23:18         -1.06  -165.033317    35     3      
iter:   6  11:23:19         -1.23  -164.656256    3      3      
iter:   7  11:23:19         -1.37  -164.630929    4      3      
iter:   8  11:23:20         -1.54  -164.556476    3      3      
iter:   9  11:23:20         -1.76  -164.535255    2      2      
iter:  10  11:23:21         -1.86  -164.509637    3      3      
iter:  11  11:23:21         -2.05  -164.497870    3      2      
iter:  12  11:23:22         -2.21  -164.493492    3      2      
iter:  13  11:23:22         -2.43  -164.489498    3      2      
iter:  14  11:23:23         -2.55  -164.489116    3      2      
iter:  15  11:23:23         -2.72  -164.487180    2      2      
iter:  16  11:23:24         -2.88  -164.485615    2      2      
iter:  17  11:23:24         -3.07  -164.483727    2      1      
iter:  18  11:23:25         -3.21  -164.479605    2      1      
iter:  19  11:23:25         -3.37  -164.476866    2      1      
iter:  20  11:23:26         -3.65  -164.482950    2      1      
iter:  21  11:23:26         -3.80  -164.483236    2      1      
iter:  22  11:23:27         -3.96  -164.483364    2      1      
iter:  23  11:23:27         -4.07  -164.485278    2      1      

Converged after 23 iterations.

Dipole moment: (15.824368, 0.354087, -0.009714) |e|*Ang

Energy contributions relative to reference atoms: (reference = -24663.074771)

Kinetic:        +62.909044
Potential:      -80.435380
External:        +0.000000
XC:            -149.601087
Entropy (-ST):   -0.500777
Local:           +2.892533
--------------------------
Free energy:   -164.735666
Extrapolated:  -164.485278

Fermi level: -4.73918

 Band  Eigenvalues  Occupancy
    0    -22.34993    2.00000
    1    -21.12150    2.00000
    2    -20.85944    2.00000
    3    -20.63475    2.00000
    4    -20.27587    2.00000
    5    -19.92779    2.00000
    6    -19.31619    2.00000
    7    -18.95495    2.00000
    8    -18.18444    2.00000
    9    -17.53922    2.00000
   10    -17.40038    2.00000
   11    -16.84019    2.00000
   12    -16.62496    2.00000
   13    -16.04855    2.00000
   14    -15.33232    2.00000
   15    -14.63015    2.00000
   16    -14.33233    2.00000
   17    -13.77151    2.00000
   18    -13.57167    2.00000
   19    -13.12853    2.00000
   20    -12.27826    2.00000
   21    -11.39207    2.00000
   22    -10.67509    2.00000
   23    -10.53544    2.00000
   24    -10.12885    2.00000
   25     -9.94954    2.00000
   26     -9.68645    2.00000
   27     -9.63965    2.00000
   28     -9.39249    2.00000
   29     -9.27220    2.00000
   30     -9.11823    2.00000
   31     -8.81971    2.00000
   32     -8.28084    2.00000
   33     -8.20266    2.00000
   34     -8.03833    2.00000
   35     -8.00751    2.00000
   36     -7.21743    2.00000
   37     -6.86732    2.00000
   38     -6.73196    2.00000
   39     -6.58428    2.00000
   40     -6.32380    2.00000
   41     -6.04326    2.00000
   42     -5.83784    1.99997
   43     -5.51105    1.99911
   44     -5.37573    1.99657
   45     -5.10112    1.94780
   46     -4.86414    1.55448
   47     -4.82625    1.40981
   48     -4.64314    0.55362
   49     -4.63316    0.51457
   50     -4.28864    0.02186
   51     -4.05499    0.00213
   52     -3.72904    0.00008
   53     -3.40507    0.00000
   54     -3.13981    0.00000
   55     -2.91653    0.00000
   56     -2.64706    0.00000
   57     -2.26794    0.00000
   58     -1.96268    0.00000
   59     -1.24485    0.00000
   60     -1.03367    0.00000
   61     -0.70967    0.00000
   62     -0.15669    0.00000
   63     -0.02634    0.00000
   64      0.65613    0.00000
   65      0.83012    0.00000
   66      1.39528    0.00000
   67      1.88069    0.00000
   68      2.27118    0.00000
   69      2.39903    0.00000
   70      2.64802    0.00000
   71      3.16299    0.00000
   72      3.50559    0.00000
   73      4.73049    0.00000
   74      5.20024    0.00000
   75      5.45816    0.00000
   76      6.01839    0.00000
   77      6.06331    0.00000
   78      6.48429    0.00000
   79      6.95137    0.00000
   80      7.22327    0.00000
   81      7.40875    0.00000
   82      7.83996    0.00000
   83      8.16977    0.00000
   84      8.49377    0.00000
   85      8.68150    0.00000
   86      8.92947    0.00000
   87      9.02232    0.00000
   88      9.11681    0.00000
   89      9.18083    0.00000
   90      9.26162    0.00000
   91      9.32304    0.00000
   92      9.35944    0.00000
   93      9.46858    0.00000
   94      9.60937    0.00000
   95      9.71626    0.00000
   96      9.85892    0.00000
   97      9.97569    0.00000


Forces in eV/Ang:
  0 C     4.31880    0.20877   -0.02470
  1 C     2.61738   -3.13525   -0.52698
  2 C     0.89010   -1.06855    0.17964
  3 C    -2.30026   -0.05133   -0.99410
  4 C    -0.66979   -0.48054    0.00747
  5 C     1.83299    0.97283   -0.57723
  6 C    -1.14114    0.92925   -0.70484
  7 C    -1.71837   -0.94269    0.27072
  8 C    -3.27570   -1.94123    0.51118
  9 C    -0.71909   -0.80746   -0.06446
 10 C    -1.83894    0.41052    0.19695
 11 C     0.54137    0.02234    0.11751
 12 C     1.27165   -2.40800   -0.63021
 13 C    -1.64019   -0.88156    0.32777
 14 C    -1.32165    2.63989    0.03249
 15 C    -1.79550    7.12144    0.60622
 16 C    -0.99178   -0.42180    1.68401
 17 C     5.96557   -1.69338    0.47254
 18 C    -2.14664   -0.20245   -0.36489
 19 C     0.17763    0.56445   -0.20052
 20 C     2.99848   -0.10450    0.39927
 21 C    -4.56306    0.60369   -0.43205
 22 C     1.49914    0.43221    0.03932
 23 C     2.00943    0.21433   -0.31730

System changes: positions 

Initializing position-dependent things.

Density initialized from wave functions
           .--------------------------------------.  
          /|                                      |  
         / |                                      |  
        /  |                                      |  
       /   |                                      |  
      /    |                                      |  
     /     |                                      |  
    /      |                                      |  
   /       |                                      |  
  /       C|                               C  C   |  
 *         | C   C  C  C  C         C   C         |  
 |         | C       C   C  C C  C                |  
 |         .--C----C-C--C-------------------------.  
 |        /   C     C                            /   
 |       /      C      C                        /    
 |      /                                      /     
 |     /                                      /      
 |    /                                      /       
 |   /                                      /        
 |  /                                      /         
 | /                                      /          
 |/                                      /           
 *--------------------------------------*            

Positions:
   0 C      5.498798    2.548941    5.380116
   1 C      3.291878    6.402521    5.683760
   2 C      7.817869    7.300986    5.141242
   3 C      8.904816    8.151304    4.945263
   4 C      6.565599    9.807155    5.185927
   5 C      7.753032   10.214843    4.983977
   6 C      5.648979    8.740940    5.353178
   7 C      6.332944    7.451869    5.313723
   8 C      4.213297    8.836841    5.540384
   9 C      5.781091    6.078605    5.421163
  10 C      8.166254    3.211877    5.333149
  11 C      8.107920    5.894611    5.177759
  12 C      6.864766    3.707777    5.424705
  13 C      6.888416    5.163311    5.345778
  14 C      4.601668    3.493559    5.519320
  15 C      4.267922    4.804161    5.441514
  16 C      9.494092    9.194133    4.370279
  17 C      1.075652    9.936592    5.357458
  18 C     13.222826   10.185644    4.948425
  19 C     10.749397    9.618088    4.514188
  20 C     14.505295   10.276927    5.148336
  21 C     15.771568   10.189303    5.300178
  22 C     11.962982    9.959070    4.720772
  23 C      2.320969    9.551843    5.320569

Unit cell:
           periodic     x           y           z      points  spacing
  1. axis:    yes   16.000000    0.000000    0.000000    80     0.2000
  2. axis:    yes    0.000000   16.000000    0.000000    80     0.2000
  3. axis:    yes    0.000000    0.000000   10.000000    48     0.2083

Effective grid spacing dv^(1/3) = 0.2027

                     log10-error:    total        iterations:
           time      wfs    density  energy       fermi  poisson
iter:   1  11:23:29          +inf  -165.686620    3      5      
iter:   2  11:23:30         -1.77  -165.604966    2      2      
iter:   3  11:23:30         -1.93  -165.563441    3      2      
iter:   4  11:23:31         -2.09  -165.545552    2      2      
iter:   5  11:23:31         -2.23  -165.535766    2      2      
iter:   6  11:23:32         -2.38  -165.532223    2      2      
iter:   7  11:23:32         -2.58  -165.531897    2      2      
iter:   8  11:23:33         -2.73  -165.531227    2      2      
iter:   9  11:23:33         -2.95  -165.530525    2      1      
iter:  10  11:23:34         -3.15  -165.529812    2      1      
iter:  11  11:23:34         -3.37  -165.529960    2      1      
iter:  12  11:23:35         -3.42  -165.530100    2      1      
iter:  13  11:23:35         -3.53  -165.529963    2      1      
iter:  14  11:23:36         -3.66  -165.530074    2      1      
iter:  15  11:23:36         -3.73  -165.530127    2      1      
iter:  16  11:23:37         -3.82  -165.530098    2      1      
iter:  17  11:23:38         -3.92  -165.530145    2      1      
iter:  18  11:23:38         -4.01  -165.530054    2      1      

Converged after 18 iterations.

Dipole moment: (16.751692, 0.367193, -0.026519) |e|*Ang

Energy contributions relative to reference atoms: (reference = -24663.074771)

Kinetic:        +55.167856
Potential:      -74.633462
External:        +0.000000
XC:            -148.668592
Entropy (-ST):   -0.492361
Local:           +2.850324
--------------------------
Free energy:   -165.776235
Extrapolated:  -165.530054

Fermi level: -4.75771

 Band  Eigenvalues  Occupancy
    0    -22.34557    2.00000
    1    -21.13392    2.00000
    2    -20.82666    2.00000
    3    -20.58800    2.00000
    4    -20.17708    2.00000
    5    -19.86506    2.00000
    6    -19.28723    2.00000
    7    -18.98483    2.00000
    8    -18.30333    2.00000
    9    -17.51270    2.00000
   10    -17.43091    2.00000
   11    -16.79567    2.00000
   12    -16.60973    2.00000
   13    -16.00162    2.00000
   14    -15.32159    2.00000
   15    -14.67676    2.00000
   16    -14.34289    2.00000
   17    -13.86169    2.00000
   18    -13.60652    2.00000
   19    -13.17933    2.00000
   20    -12.26628    2.00000
   21    -11.43103    2.00000
   22    -10.73577    2.00000
   23    -10.58761    2.00000
   24    -10.14594    2.00000
   25     -9.97599    2.00000
   26     -9.72862    2.00000
   27     -9.65373    2.00000
   28     -9.38630    2.00000
   29     -9.25733    2.00000
   30     -9.09328    2.00000
   31     -8.77253    2.00000
   32     -8.23784    2.00000
   33     -8.15541    2.00000
   34     -7.99484    2.00000
   35     -7.96357    2.00000
   36     -7.23696    2.00000
   37     -6.88985    2.00000
   38     -6.79207    2.00000
   39     -6.60763    2.00000
   40     -6.32053    2.00000
   41     -6.05047    2.00000
   42     -5.91636    1.99998
   43     -5.51885    1.99901
   44     -5.38433    1.99621
   45     -5.11049    1.94294
   46     -4.90824    1.63672
   47     -4.83114    1.35146
   48     -4.66288    0.55843
   49     -4.64674    0.49585
   50     -4.28478    0.01751
   51     -4.06135    0.00189
   52     -3.58132    0.00002
   53     -3.30174    0.00000
   54     -3.10605    0.00000
   55     -2.89033    0.00000
   56     -2.58772    0.00000
   57     -2.17166    0.00000
   58     -1.99140    0.00000
   59     -1.19657    0.00000
   60     -0.98152    0.00000
   61     -0.46834    0.00000
   62     -0.04822    0.00000
   63      0.10592    0.00000
   64      0.61730    0.00000
   65      0.75241    0.00000
   66      1.30819    0.00000
   67      1.81647    0.00000
   68      2.18156    0.00000
   69      2.29334    0.00000
   70      2.63889    0.00000
   71      3.10082    0.00000
   72      3.44491    0.00000
   73      4.65252    0.00000
   74      5.11478    0.00000
   75      5.43610    0.00000
   76      5.94413    0.00000
   77      6.06182    0.00000
   78      6.33103    0.00000
   79      6.78149    0.00000
   80      7.08154    0.00000
   81      7.36322    0.00000
   82      7.79480    0.00000
   83      8.13314    0.00000
   84      8.51646    0.00000
   85      8.62775    0.00000
   86      8.85851    0.00000
   87      9.00702    0.00000
   88      9.12984    0.00000
   89      9.17735    0.00000
   90      9.19966    0.00000
   91      9.33007    0.00000
   92      9.37753    0.00000
   93      9.45907    0.00000
   94      9.60580    0.00000
   95      9.73548    0.00000
   96      9.83910    0.00000
   97      9.95838    0.00000


Forces in eV/Ang:
  0 C     2.73925    1.82162    0.16010
  1 C     2.73006   -3.45241   -0.55457
  2 C     0.40021   -0.97003    0.18296
  3 C    -2.20801   -0.11641   -0.86598
  4 C     0.27383   -0.04188   -0.17030
  5 C     0.76863    0.66326   -0.39407
  6 C    -1.42512    0.54322   -0.59732
  7 C    -1.53441   -0.83465    0.24835
  8 C    -3.03794   -1.71617    0.34458
  9 C    -0.84874   -0.81831   -0.08311
 10 C    -1.08792    0.12078    0.13369
 11 C     0.20428   -0.44885    0.22331
 12 C     0.29128   -1.81044   -0.56463
 13 C    -1.02275   -0.76721    0.21987
 14 C    -0.08411    1.93161   -0.22726
 15 C    -1.47456    6.41243    0.73384
 16 C    -0.13208    0.07425    1.56423
 17 C     2.45001   -0.95316    0.27769
 18 C    -0.47621    0.00746   -0.09221
 19 C    -0.55651    0.23586   -0.24789
 20 C     0.06728   -0.08123    0.01471
 21 C     0.34085   -0.12975   -0.06920
 22 C     0.92318    0.31307   -0.08112
 23 C     2.57532   -0.03679   -0.12136

System changes: positions 

Initializing position-dependent things.

Density initialized from wave functions
           .--------------------------------------.  
          /|                                      |  
         / |                                      |  
        /  |                                      |  
       /   |                                      |  
      /    |                                      |  
     /     |                                      |  
    /      |                                      |  
   /       |                                      |  
  /       C|                               C  C   |  
 *         | C   C  C  C  C         C   C         |  
 |         | C       C   C  C C  C                |  
 |         .--C----C-C--C-------------------------.  
 |        /   C     C                            /   
 |       /      C      C                        /    
 |      /                                      /     
 |     /                                      /      
 |    /                                      /       
 |   /                                      /        
 |  /                                      /         
 | /                                      /          
 |/                                      /           
 *--------------------------------------*            

Positions:
   0 C      5.515445    2.559808    5.381067
   1 C      3.308341    6.381716    5.680416
   2 C      7.820321    7.295127    5.142345
   3 C      8.891487    8.150607    4.940028
   4 C      6.567179    9.806869    5.184913
   5 C      7.757750   10.218868    4.981585
   6 C      5.640403    8.744247    5.349566
   7 C      6.323672    7.446826    5.315223
   8 C      4.194950    8.826470    5.542476
   9 C      5.775980    6.073668    5.420663
  10 C      8.159633    3.212628    5.333960
  11 C      8.109178    5.891939    5.179098
  12 C      6.866599    3.696809    5.421294
  13 C      6.882199    5.158673    5.347112
  14 C      4.601066    3.505267    5.517969
  15 C      4.259001    4.842903    5.445932
  16 C      9.493230    9.194543    4.379725
  17 C      1.090702    9.930785    5.359148
  18 C     13.219825   10.185673    4.947848
  19 C     10.746096    9.619536    4.512697
  20 C     14.505925   10.276435    5.148454
  21 C     15.773249   10.188576    5.299733
  22 C     11.968596    9.960968    4.720292
  23 C      2.336463    9.551640    5.319822

Unit cell:
           periodic     x           y           z      points  spacing
  1. axis:    yes   16.000000    0.000000    0.000000    80     0.2000
  2. axis:    yes    0.000000   16.000000    0.000000    80     0.2000
  3. axis:    yes    0.000000    0.000000   10.000000    48     0.2083

Effective grid spacing dv^(1/3) = 0.2027

                     log10-error:    total        iterations:
           time      wfs    density  energy       fermi  poisson
iter:   1  11:23:40          +inf  -166.421531    3      5      
iter:   2  11:23:40         -1.86  -166.339289    2      2      
iter:   3  11:23:41         -2.10  -166.319937    2      2      
iter:   4  11:23:41         -2.25  -166.308248    2      2      
iter:   5  11:23:42         -2.44  -166.303202    2      2      
iter:   6  11:23:42         -2.58  -166.301221    2      2      
iter:   7  11:23:43         -2.74  -166.300487    2      2      
iter:   8  11:23:43         -2.95  -166.300208    2      2      
iter:   9  11:23:44         -3.15  -166.298972    2      1      
iter:  10  11:23:44         -3.34  -166.299011    2      1      
iter:  11  11:23:45         -3.51  -166.299654    2      1      
iter:  12  11:23:46         -3.64  -166.299447    1      1      
iter:  13  11:23:46         -3.81  -166.299799    1      1      
iter:  14  11:23:47         -3.90  -166.299839    1      1      
iter:  15  11:23:47         -4.00  -166.299535    1      1      
iter:  16  11:23:48         -4.23  -166.299787    2      1      

Converged after 16 iterations.

Dipole moment: (16.675542, 0.361814, -0.034416) |e|*Ang

Energy contributions relative to reference atoms: (reference = -24663.074771)

Kinetic:        +49.455212
Potential:      -70.265284
External:        +0.000000
XC:            -148.103202
Entropy (-ST):   -0.477301
Local:           +2.852138
--------------------------
Free energy:   -166.538437
Extrapolated:  -166.299787

Fermi level: -4.76388

 Band  Eigenvalues  Occupancy
    0    -22.33718    2.00000
    1    -21.13653    2.00000
    2    -20.80378    2.00000
    3    -20.55641    2.00000
    4    -20.11684    2.00000
    5    -19.83914    2.00000
    6    -19.26161    2.00000
    7    -19.00072    2.00000
    8    -18.34772    2.00000
    9    -17.52516    2.00000
   10    -17.42295    2.00000
   11    -16.78616    2.00000
   12    -16.63334    2.00000
   13    -15.99667    2.00000
   14    -15.31142    2.00000
   15    -14.71886    2.00000
   16    -14.34399    2.00000
   17    -13.94614    2.00000
   18    -13.63982    2.00000
   19    -13.19247    2.00000
   20    -12.26095    2.00000
   21    -11.49198    2.00000
   22    -10.78090    2.00000
   23    -10.64880    2.00000
   24    -10.15257    2.00000
   25     -9.99541    2.00000
   26     -9.79121    2.00000
   27     -9.64582    2.00000
   28     -9.37980    2.00000
   29     -9.24437    2.00000
   30     -9.08154    2.00000
   31     -8.74802    2.00000
   32     -8.22442    2.00000
   33     -8.13215    2.00000
   34     -7.98232    2.00000
   35     -7.92898    2.00000
   36     -7.24919    2.00000
   37     -6.89996    2.00000
   38     -6.82625    2.00000
   39     -6.61995    2.00000
   40     -6.32138    2.00000
   41     -6.07742    2.00000
   42     -5.96507    1.99999
   43     -5.52508    1.99901
   44     -5.38918    1.99616
   45     -5.13934    1.95425
   46     -4.93225    1.68679
   47     -4.83075    1.32243
   48     -4.67707    0.59130
   49     -4.63469    0.43107
   50     -4.28943    0.01725
   51     -4.05956    0.00175
   52     -3.44018    0.00000
   53     -3.17534    0.00000
   54     -3.06636    0.00000
   55     -2.87348    0.00000
   56     -2.56048    0.00000
   57     -2.17106    0.00000
   58     -2.00253    0.00000
   59     -1.18528    0.00000
   60     -0.93575    0.00000
   61     -0.36501    0.00000
   62      0.04214    0.00000
   63      0.42150    0.00000
   64      0.61311    0.00000
   65      0.73057    0.00000
   66      1.26120    0.00000
   67      1.78846    0.00000
   68      2.12392    0.00000
   69      2.27585    0.00000
   70      2.70175    0.00000
   71      3.04237    0.00000
   72      3.40868    0.00000
   73      4.59265    0.00000
   74      5.04942    0.00000
   75      5.42258    0.00000
   76      5.85367    0.00000
   77      6.05009    0.00000
   78      6.24119    0.00000
   79      6.63233    0.00000
   80      6.93149    0.00000
   81      7.32404    0.00000
   82      7.74531    0.00000
   83      8.11506    0.00000
   84      8.48193    0.00000
   85      8.59497    0.00000
   86      8.81274    0.00000
   87      8.98886    0.00000
   88      9.14183    0.00000
   89      9.15195    0.00000
   90      9.17163    0.00000
   91      9.33363    0.00000
   92      9.37052    0.00000
   93      9.45764    0.00000
   94      9.60575    0.00000
   95      9.73770    0.00000
   96      9.82555    0.00000
   97      9.94492    0.00000


Forces in eV/Ang:
  0 C     1.90770    2.68031    0.25671
  1 C     2.87310   -3.87549   -0.60878
  2 C     0.01164   -0.97013    0.17932
  3 C    -1.97157    0.05920   -0.86445
  4 C     0.32572   -0.04948   -0.18876
  5 C     0.47279    0.53568   -0.32662
  6 C    -1.46990    0.32245   -0.50264
  7 C    -1.47516   -0.71091    0.23267
  8 C    -2.98577   -1.34453    0.20513
  9 C    -0.96357   -0.85730   -0.09781
 10 C    -0.53633   -0.06865    0.08748
 11 C     0.00244   -0.75669    0.28726
 12 C    -0.35790   -1.38899   -0.50401
 13 C    -0.69370   -0.65710    0.16286
 14 C     0.47136    1.89413   -0.34963
 15 C    -1.25209    5.96284    0.81754
 16 C    -0.10263    0.06737    1.53299
 17 C     1.83212   -0.85595    0.19025
 18 C     0.00196    0.08903   -0.01501
 19 C    -0.13749    0.30824   -0.15223
 20 C     0.23849   -0.10354    0.03180
 21 C     0.80821   -0.24526   -0.05810
 22 C     0.08239    0.11935   -0.23228
 23 C     2.75597   -0.13249   -0.04199

System changes: positions 

Initializing position-dependent things.

Density initialized from wave functions
           .--------------------------------------.  
          /|                                      |  
         / |                                      |  
        /  |                                      |  
       /   |                                      |  
      /    |                                      |  
     /     |                                      |  
    /      |                                      |  
   /       |                                      |  
  /       C|                               C  C   |  
 *         | C   C  C  C  C         C   C         |  
 |         | C       C   C  C C  C                |  
 |         .--C----C-C--C-------------------------.  
 |        /   C     C                            /   
 |       /      C      C                        /    
 |      /                                      /     
 |     /                                      /      
 |    /                                      /       
 |   /                                      /        
 |  /                                      /         
 | /                                      /          
 |/                                      /           
 *--------------------------------------*            

Positions:
   0 C      5.528680    2.576104    5.382609
   1 C      3.326810    6.356844    5.676496
   2 C      7.820637    7.288798    5.143496
   3 C      8.878811    8.151113    4.934357
   4 C      6.568529    9.806189    5.183835
   5 C      7.761542   10.222519    4.979360
   6 C      5.631150    8.746549    5.346280
   7 C      6.314046    7.442209    5.316733
   8 C      4.175549    8.817778    5.543876
   9 C      5.769834    6.068140    5.420042
  10 C      8.155791    3.212345    5.334557
  11 C      8.109386    5.887325    5.180888
  12 C      6.864829    3.687548    5.418019
  13 C      6.877362    5.154393    5.348226
  14 C      4.603319    3.518027    5.515879
  15 C      4.250766    4.881700    5.451127
  16 C      9.491880    9.194570    4.389683
  17 C      1.105115    9.924709    5.360496
  18 C     13.218671   10.186109    4.947560
  19 C     10.745979    9.621818    4.511794
  20 C     14.509919   10.275741    5.148979
  21 C     15.774648   10.187547    5.299068
  22 C     11.969254    9.961755    4.718833
  23 C      2.353824    9.550952    5.319424

Unit cell:
           periodic     x           y           z      points  spacing
  1. axis:    yes   16.000000    0.000000    0.000000    80     0.2000
  2. axis:    yes    0.000000   16.000000    0.000000    80     0.2000
  3. axis:    yes    0.000000    0.000000   10.000000    48     0.2083

Effective grid spacing dv^(1/3) = 0.2027

                     log10-error:    total        iterations:
           time      wfs    density  energy       fermi  poisson
iter:   1  11:23:49          +inf  -167.248851    3      5      
iter:   2  11:23:50         -1.78  -167.119431    3      2      
iter:   3  11:23:50         -2.11  -167.100407    3      2      
iter:   4  11:23:51         -2.25  -167.088855    2      2      
iter:   5  11:23:51         -2.48  -167.084940    2      2      
iter:   6  11:23:52         -2.61  -167.083165    2      2      
iter:   7  11:23:52         -2.73  -167.081661    2      2      
iter:   8  11:23:53         -2.98  -167.081544    2      2      
iter:   9  11:23:54         -3.17  -167.080236    2      1      
iter:  10  11:23:54         -3.33  -167.080222    2      1      
iter:  11  11:23:55         -3.52  -167.081117    2      1      
iter:  12  11:23:55         -3.67  -167.081091    2      1      
iter:  13  11:23:56         -3.78  -167.081373    2      1      
iter:  14  11:23:56         -3.87  -167.081357    2      1      
iter:  15  11:23:57         -3.93  -167.080650    2      1      
iter:  16  11:23:57         -4.23  -167.081276    2      1      

Converged after 16 iterations.

Dipole moment: (16.604357, 0.345510, -0.040563) |e|*Ang

Energy contributions relative to reference atoms: (reference = -24663.074771)

Kinetic:        +44.461815
Potential:      -66.427003
External:        +0.000000
XC:            -147.746192
Entropy (-ST):   -0.453973
Local:           +2.857090
--------------------------
Free energy:   -167.308263
Extrapolated:  -167.081276

Fermi level: -4.76210

 Band  Eigenvalues  Occupancy
    0    -22.32213    2.00000
    1    -21.13592    2.00000
    2    -20.78639    2.00000
    3    -20.52658    2.00000
    4    -20.07693    2.00000
    5    -19.81116    2.00000
    6    -19.22784    2.00000
    7    -19.01180    2.00000
    8    -18.37277    2.00000
    9    -17.53936    2.00000
   10    -17.42685    2.00000
   11    -16.82121    2.00000
   12    -16.65337    2.00000
   13    -15.97714    2.00000
   14    -15.30284    2.00000
   15    -14.75794    2.00000
   16    -14.34887    2.00000
   17    -14.02623    2.00000
   18    -13.66738    2.00000
   19    -13.19128    2.00000
   20    -12.25990    2.00000
   21    -11.55777    2.00000
   22    -10.82685    2.00000
   23    -10.69634    2.00000
   24    -10.15151    2.00000
   25    -10.01356    2.00000
   26     -9.85819    2.00000
   27     -9.63504    2.00000
   28     -9.37482    2.00000
   29     -9.22902    2.00000
   30     -9.07321    2.00000
   31     -8.73150    2.00000
   32     -8.21177    2.00000
   33     -8.11187    2.00000
   34     -7.97240    2.00000
   35     -7.89590    2.00000
   36     -7.25410    2.00000
   37     -6.92384    2.00000
   38     -6.86102    2.00000
   39     -6.63807    2.00000
   40     -6.32042    2.00000
   41     -6.10200    2.00000
   42     -6.00421    1.99999
   43     -5.52619    1.99904
   44     -5.38854    1.99620
   45     -5.17633    1.96872
   46     -4.95222    1.74005
   47     -4.82562    1.30732
   48     -4.68354    0.62623
   49     -4.60404    0.34143
   50     -4.29924    0.01935
   51     -4.05280    0.00166
   52     -3.30447    0.00000
   53     -3.02819    0.00000
   54     -3.00885    0.00000
   55     -2.85411    0.00000
   56     -2.52442    0.00000
   57     -2.15704    0.00000
   58     -2.00237    0.00000
   59     -1.17225    0.00000
   60     -0.90157    0.00000
   61     -0.33958    0.00000
   62      0.13440    0.00000
   63      0.53790    0.00000
   64      0.64776    0.00000
   65      1.00755    0.00000
   66      1.23740    0.00000
   67      1.77164    0.00000
   68      2.07843    0.00000
   69      2.29605    0.00000
   70      2.81909    0.00000
   71      2.98805    0.00000
   72      3.38703    0.00000
   73      4.53483    0.00000
   74      4.99019    0.00000
   75      5.39478    0.00000
   76      5.76137    0.00000
   77      6.03165    0.00000
   78      6.14282    0.00000
   79      6.50887    0.00000
   80      6.80069    0.00000
   81      7.26689    0.00000
   82      7.69649    0.00000
   83      8.11333    0.00000
   84      8.42919    0.00000
   85      8.60735    0.00000
   86      8.77042    0.00000
   87      8.96537    0.00000
   88      9.11841    0.00000
   89      9.15863    0.00000
   90      9.16590    0.00000
   91      9.33410    0.00000
   92      9.36535    0.00000
   93      9.45377    0.00000
   94      9.60352    0.00000
   95      9.73795    0.00000
   96      9.82464    0.00000
   97      9.93721    0.00000


Forces in eV/Ang:
  0 C     1.30734    3.28617    0.30141
  1 C     3.02707   -4.28941   -0.65087
  2 C    -0.24910   -0.96895    0.16723
  3 C    -1.84356    0.12510   -0.81074
  4 C     0.32650   -0.07256   -0.19915
  5 C     0.23722    0.41179   -0.26500
  6 C    -1.55265    0.14685   -0.41906
  7 C    -1.44001   -0.63455    0.20186
  8 C    -2.94374   -0.93434    0.04577
  9 C    -1.04947   -0.85945   -0.11468
 10 C    -0.20787   -0.15703    0.06374
 11 C    -0.15671   -0.94636    0.33669
 12 C    -0.70181   -1.11066   -0.44871
 13 C    -0.50704   -0.55231    0.11859
 14 C     0.82224    1.86147   -0.38638
 15 C    -1.12125    5.69241    0.85702
 16 C     0.06467    0.15844    1.44080
 17 C     1.31843   -0.79929    0.12630
 18 C     0.27969    0.12114    0.02260
 19 C    -0.33231    0.21272   -0.14096
 20 C    -0.09367   -0.11672   -0.01406
 21 C     1.57747   -0.37984   -0.00952
 22 C     0.09384    0.12280   -0.23123
 23 C     2.88676   -0.22676    0.04964

System changes: positions 

Initializing position-dependent things.

Density initialized from wave functions
           .--------------------------------------.  
          /|                                      |  
         / |                                      |  
        /  |                                      |  
       /   |                                      |  
      /    |                                      |  
     /     |                                      |  
    /      |                                      |  
   /       |                                      |  
  /       C|                               C  C   |  
 *         | C   C  C  C  C         C   C         |  
 |         | C       C   C  C C  C                |  
 |         .--C----C-C--C-------------------------.  
 |        /   C     C                            /   
 |       /      C      C                        /    
 |      /                                      /     
 |     /                                      /      
 |    /                                      /       
 |   /                                      /        
 |  /                                      /         
 | /                                      /          
 |/                                      /           
 *--------------------------------------*            

Positions:
   0 C      5.540435    2.594358    5.384207
   1 C      3.346326    6.329657    5.672333
   2 C      7.820146    7.282311    5.144589
   3 C      8.866329    8.151816    4.928872
   4 C      6.569257    9.805094    5.182805
   5 C      7.764944   10.225796    4.977289
   6 C      5.621426    8.748307    5.343278
   7 C      6.304283    7.437757    5.318102
   8 C      4.155869    8.810943    5.544560
   9 C      5.763273    6.062575    5.419333
  10 C      8.152724    3.211952    5.335118
  11 C      8.109066    5.882151    5.182871
  12 C      6.862384    3.678940    5.414920
  13 C      6.872780    5.150492    5.349220
  14 C      4.606305    3.531272    5.513866
  15 C      4.242708    4.920515    5.456460
  16 C      9.491070    9.194925    4.399314
  17 C      1.119450    9.918305    5.361700
  18 C     13.217569   10.186506    4.947229
  19 C     10.744289    9.623572    4.510820
  20 C     14.513213   10.274968    5.149406
  21 C     15.777536   10.186227    5.298482
  22 C     11.971748    9.962973    4.717680
  23 C      2.371723    9.549929    5.319387

Unit cell:
           periodic     x           y           z      points  spacing
  1. axis:    yes   16.000000    0.000000    0.000000    80     0.2000
  2. axis:    yes    0.000000   16.000000    0.000000    80     0.2000
  3. axis:    yes    0.000000    0.000000   10.000000    48     0.2083

Effective grid spacing dv^(1/3) = 0.2027

                     log10-error:    total        iterations:
           time      wfs    density  energy       fermi  poisson
iter:   1  11:23:59          +inf  -168.097197    3      5      
iter:   2  11:23:59         -1.72  -167.921098    3      2      
iter:   3  11:24:00         -2.08  -167.895433    2      2      
iter:   4  11:24:00         -2.23  -167.881352    2      2      
iter:   5  11:24:01         -2.48  -167.878229    2      2      
iter:   6  11:24:02         -2.62  -167.876545    2      2      
iter:   7  11:24:02         -2.73  -167.875324    2      2      
iter:   8  11:24:03         -2.93  -167.875001    2      2      
iter:   9  11:24:03         -3.13  -167.872453    2      1      
iter:  10  11:24:04         -3.34  -167.873372    2      1      
iter:  11  11:24:04         -3.51  -167.874742    2      1      
iter:  12  11:24:05         -3.63  -167.874340    2      1      
iter:  13  11:24:05         -3.79  -167.874795    2      1      
iter:  14  11:24:06         -3.88  -167.874745    2      1      
iter:  15  11:24:06         -3.97  -167.874223    2      1      
iter:  16  11:24:07         -4.23  -167.874743    2      1      

Converged after 16 iterations.

Dipole moment: (16.473050, 0.329701, -0.046119) |e|*Ang

Energy contributions relative to reference atoms: (reference = -24663.074771)

Kinetic:        +40.224581
Potential:      -63.180715
External:        +0.000000
XC:            -147.568004
Entropy (-ST):   -0.426413
Local:           +2.862602
--------------------------
Free energy:   -168.087950
Extrapolated:  -167.874743

Fermi level: -4.75757

 Band  Eigenvalues  Occupancy
    0    -22.30781    2.00000
    1    -21.13666    2.00000
    2    -20.77120    2.00000
    3    -20.49945    2.00000
    4    -20.04564    2.00000
    5    -19.78616    2.00000
    6    -19.19994    2.00000
    7    -19.01981    2.00000
    8    -18.39579    2.00000
    9    -17.56037    2.00000
   10    -17.42705    2.00000
   11    -16.90910    2.00000
   12    -16.65764    2.00000
   13    -15.96783    2.00000
   14    -15.29339    2.00000
   15    -14.79906    2.00000
   16    -14.36142    2.00000
   17    -14.09046    2.00000
   18    -13.69093    2.00000
   19    -13.18493    2.00000
   20    -12.26683    2.00000
   21    -11.62418    2.00000
   22    -10.88787    2.00000
   23    -10.72291    2.00000
   24    -10.15023    2.00000
   25    -10.03405    2.00000
   26     -9.92373    2.00000
   27     -9.62416    2.00000
   28     -9.37646    2.00000
   29     -9.21391    2.00000
   30     -9.06668    2.00000
   31     -8.71743    2.00000
   32     -8.20178    2.00000
   33     -8.09504    2.00000
   34     -7.95119    2.00000
   35     -7.86991    2.00000
   36     -7.26174    2.00000
   37     -6.94841    2.00000
   38     -6.89021    2.00000
   39     -6.64835    2.00000
   40     -6.31154    2.00000
   41     -6.12387    2.00000
   42     -6.04289    1.99999
   43     -5.52467    1.99907
   44     -5.38976    1.99641
   45     -5.22110    1.98078
   46     -4.97254    1.79129
   47     -4.81934    1.29942
   48     -4.68625    0.65781
   49     -4.56381    0.25183
   50     -4.30695    0.02184
   51     -4.04143    0.00155
   52     -3.20252    0.00000
   53     -2.93180    0.00000
   54     -2.88158    0.00000
   55     -2.80597    0.00000
   56     -2.49210    0.00000
   57     -2.15085    0.00000
   58     -1.98465    0.00000
   59     -1.16404    0.00000
   60     -0.86580    0.00000
   61     -0.33673    0.00000
   62      0.23357    0.00000
   63      0.51483    0.00000
   64      0.64854    0.00000
   65      1.19876    0.00000
   66      1.51206    0.00000
   67      1.76946    0.00000
   68      2.03085    0.00000
   69      2.32999    0.00000
   70      2.89021    0.00000
   71      3.01895    0.00000
   72      3.38461    0.00000
   73      4.47628    0.00000
   74      4.93272    0.00000
   75      5.35011    0.00000
   76      5.66328    0.00000
   77      6.00454    0.00000
   78      6.05801    0.00000
   79      6.39932    0.00000
   80      6.70050    0.00000
   81      7.24619    0.00000
   82      7.65195    0.00000
   83      8.11606    0.00000
   84      8.38534    0.00000
   85      8.62418    0.00000
   86      8.73229    0.00000
   87      8.93531    0.00000
   88      9.10387    0.00000
   89      9.15208    0.00000
   90      9.18901    0.00000
   91      9.32585    0.00000
   92      9.36405    0.00000
   93      9.44362    0.00000
   94      9.59757    0.00000
   95      9.73972    0.00000
   96      9.83217    0.00000
   97      9.94068    0.00000


Forces in eV/Ang:
  0 C     0.79338    3.76065    0.32132
  1 C     3.15909   -4.62106   -0.69250
  2 C    -0.45469   -0.93072    0.16078
  3 C    -1.74885    0.16465   -0.75923
  4 C     0.34611   -0.08681   -0.21621
  5 C    -0.00661    0.28837   -0.20002
  6 C    -1.63183   -0.02073   -0.34838
  7 C    -1.36260   -0.57321    0.16819
  8 C    -2.92281   -0.49262   -0.10519
  9 C    -1.09793   -0.80927   -0.13119
 10 C     0.04091   -0.21724    0.04666
 11 C    -0.29139   -1.10740    0.37148
 12 C    -0.91093   -0.89253   -0.41344
 13 C    -0.35367   -0.47401    0.07359
 14 C     1.09805    1.78921   -0.40789
 15 C    -0.97438    5.41338    0.88535
 16 C     0.13481    0.18778    1.36007
 17 C     0.92203   -0.74227    0.07129
 18 C     0.61000    0.16367    0.07175
 19 C    -0.22501    0.20594   -0.08856
 20 C    -0.21104   -0.13856   -0.03369
 21 C     2.09587   -0.48615    0.01570
 22 C    -0.20977    0.05289   -0.28708
 23 C     3.00407   -0.35790    0.16422

System changes: positions 

Initializing position-dependent things.

Density initialized from wave functions
           .--------------------------------------.  
          /|                                      |  
         / |                                      |  
        /  |                                      |  
       /   |                                      |  
      /    |                                      |  
     /     |                                      |  
    /      |                                      |  
   /       |                                      |  
  /       C|                               C  C   |  
 *         | C   C  C  C  C         C   C         |  
 |         | C       C   C  C C  C                |  
 |         .--C----C-C--C-------------------------.  
 |        /   C     C                            /   
 |       /      C      C                        /    
 |      /                                      /     
 |     /                                      /      
 |    /                                      /       
 |   /                                      /        
 |  /                                      /         
 | /                                      /          
 |/                                      /           
 *--------------------------------------*            

Positions:
   0 C      5.551420    2.613584    5.385671
   1 C      3.366698    6.300990    5.667933
   2 C      7.819372    7.276018    5.145692
   3 C      8.853610    8.152397    4.923536
   4 C      6.569902    9.803845    5.181697
   5 C      7.767665   10.228694    4.975418
   6 C      5.611172    8.749591    5.340403
   7 C      6.294775    7.433290    5.319322
   8 C      4.135685    8.806004    5.544666
   9 C      5.756634    6.057432    5.418541
  10 C      8.149709    3.211668    5.335704
  11 C      8.108435    5.876627    5.184923
  12 C      6.860402    3.670401    5.411779
  13 C      6.868213    5.146672    5.350086
  14 C      4.609541    3.544445    5.511992
  15 C      4.234960    4.959382    5.461871
  16 C      9.490100    9.195160    4.408792
  17 C      1.133904    9.911790    5.362822
  18 C     13.217431   10.187019    4.947036
  19 C     10.743676    9.625573    4.510124
  20 C     14.516928   10.274054    5.149865
  21 C     15.780905   10.184690    5.297861
  22 C     11.972952    9.963903    4.716256
  23 C      2.390232    9.548195    5.319929

Unit cell:
           periodic     x           y           z      points  spacing
  1. axis:    yes   16.000000    0.000000    0.000000    80     0.2000
  2. axis:    yes    0.000000   16.000000    0.000000    80     0.2000
  3. axis:    yes    0.000000    0.000000   10.000000    48     0.2083

Effective grid spacing dv^(1/3) = 0.2027

                     log10-error:    total        iterations:
           time      wfs    density  energy       fermi  poisson
iter:   1  11:24:08          +inf  -168.927779    3      5      
iter:   2  11:24:09         -1.69  -168.721435    2      2      
iter:   3  11:24:09         -2.06  -168.688694    2      2      
iter:   4  11:24:10         -2.21  -168.670743    2      2      
iter:   5  11:24:11         -2.50  -168.668201    2      2      
iter:   6  11:24:11         -2.64  -168.666909    2      2      
iter:   7  11:24:12         -2.74  -168.666002    2      2      
iter:   8  11:24:12         -2.90  -168.665482    2      2      
iter:   9  11:24:13         -3.10  -168.665423    2      2      
iter:  10  11:24:13         -3.33  -168.664266    2      1      
iter:  11  11:24:14         -3.46  -168.665031    2      1      
iter:  12  11:24:14         -3.57  -168.665449    2      1      
iter:  13  11:24:15         -3.64  -168.664459    2      1      
iter:  14  11:24:15         -3.90  -168.665487    2      1      
iter:  15  11:24:16         -4.00  -168.665493    2      1      

Converged after 15 iterations.

Dipole moment: (16.319592, 0.319430, -0.051138) |e|*Ang

Energy contributions relative to reference atoms: (reference = -24663.074771)

Kinetic:        +36.976580
Potential:      -60.706876
External:        +0.000000
XC:            -147.588872
Entropy (-ST):   -0.400559
Local:           +2.853954
--------------------------
Free energy:   -168.865773
Extrapolated:  -168.665493

Fermi level: -4.75095

 Band  Eigenvalues  Occupancy
    0    -22.29300    2.00000
    1    -21.13649    2.00000
    2    -20.75728    2.00000
    3    -20.47385    2.00000
    4    -20.01658    2.00000
    5    -19.76443    2.00000
    6    -19.19061    2.00000
    7    -19.03020    2.00000
    8    -18.41692    2.00000
    9    -17.60313    2.00000
   10    -17.43280    2.00000
   11    -17.03304    2.00000
   12    -16.65203    2.00000
   13    -15.95888    2.00000
   14    -15.28895    2.00000
   15    -14.83833    2.00000
   16    -14.37725    2.00000
   17    -14.13219    2.00000
   18    -13.70829    2.00000
   19    -13.17269    2.00000
   20    -12.28227    2.00000
   21    -11.68803    2.00000
   22    -10.96169    2.00000
   23    -10.73349    2.00000
   24    -10.14784    2.00000
   25    -10.06061    2.00000
   26     -9.98225    2.00000
   27     -9.61478    2.00000
   28     -9.38875    2.00000
   29     -9.20043    2.00000
   30     -9.06250    2.00000
   31     -8.70443    2.00000
   32     -8.19352    2.00000
   33     -8.08045    2.00000
   34     -7.91534    2.00000
   35     -7.84373    2.00000
   36     -7.28068    2.00000
   37     -6.97372    2.00000
   38     -6.92005    2.00000
   39     -6.65946    2.00000
   40     -6.29306    2.00000
   41     -6.14537    2.00000
   42     -6.07981    2.00000
   43     -5.52321    1.99912
   44     -5.39804    1.99691
   45     -5.26682    1.98857
   46     -4.98982    1.83192
   47     -4.81230    1.29749
   48     -4.68510    0.68216
   49     -4.51739    0.17643
   50     -4.31781    0.02596
   51     -4.02806    0.00145
   52     -3.14204    0.00000
   53     -2.86284    0.00000
   54     -2.78535    0.00000
   55     -2.65142    0.00000
   56     -2.46040    0.00000
   57     -2.14486    0.00000
   58     -1.93703    0.00000
   59     -1.15553    0.00000
   60     -0.82309    0.00000
   61     -0.33779    0.00000
   62      0.33269    0.00000
   63      0.50605    0.00000
   64      0.65262    0.00000
   65      1.18815    0.00000
   66      1.69915    0.00000
   67      1.97503    0.00000
   68      2.02269    0.00000
   69      2.37845    0.00000
   70      2.83925    0.00000
   71      3.15252    0.00000
   72      3.45969    0.00000
   73      4.41810    0.00000
   74      4.87894    0.00000
   75      5.28931    0.00000
   76      5.56261    0.00000
   77      5.96070    0.00000
   78      5.98982    0.00000
   79      6.29968    0.00000
   80      6.63487    0.00000
   81      7.29134    0.00000
   82      7.63569    0.00000
   83      8.12500    0.00000
   84      8.35507    0.00000
   85      8.63913    0.00000
   86      8.70004    0.00000
   87      8.90674    0.00000
   88      9.09780    0.00000
   89      9.14605    0.00000
   90      9.22820    0.00000
   91      9.31189    0.00000
   92      9.36481    0.00000
   93      9.42788    0.00000
   94      9.58898    0.00000
   95      9.74645    0.00000
   96      9.84731    0.00000
   97      9.94813    0.00000


Forces in eV/Ang:
  0 C     0.29714    4.08581    0.34953
  1 C     3.18033   -4.66463   -0.69642
  2 C    -0.65902   -0.89806    0.16605
  3 C    -1.63489    0.24326   -0.71712
  4 C     0.32583   -0.11528   -0.23092
  5 C    -0.19844    0.17551   -0.14681
  6 C    -1.70471   -0.17364   -0.26338
  7 C    -1.28767   -0.51646    0.15109
  8 C    -2.90423   -0.06062   -0.24701
  9 C    -1.08969   -0.72244   -0.14560
 10 C     0.28319   -0.27286    0.03108
 11 C    -0.42180   -1.22409    0.39592
 12 C    -1.07366   -0.65249   -0.37626
 13 C    -0.23185   -0.42761    0.03354
 14 C     1.29354    1.69902   -0.42747
 15 C    -0.78845    4.95254    0.87281
 16 C     0.20977    0.22203    1.30228
 17 C     0.54325   -0.69251    0.01144
 18 C     0.83239    0.18598    0.10129
 19 C    -0.28415    0.15563   -0.05243
 20 C    -0.36827   -0.16223   -0.05929
 21 C     2.62719   -0.58915    0.04626
 22 C    -0.27977    0.03643   -0.30170
 23 C     3.17426   -0.50951    0.23319

System changes: positions 

Initializing position-dependent things.

Density initialized from wave functions
           .--------------------------------------.  
          /|                                      |  
         / |                                      |  
        /  |                                      |  
       /   |                                      |  
      /    |                                      |  
     /     |                                      |  
    /      |                                      |  
   /       |                                      |  
  /       C|                               C  C   |  
 *         | C   C  C  C  C         C   C         |  
 |         | C       C   C  C C  C                |  
 |         .--C----C-C--C-------------------------.  
 |        /   C     C                            /   
 |       /      C      C                        /    
 |      /                                      /     
 |     /                                      /      
 |    /                                      /       
 |   /                                      /        
 |  /                                      /         
 | /                                      /          
 |/                                      /           
 *--------------------------------------*            

Positions:
   0 C      5.561829    2.634132    5.387319
   1 C      3.388136    6.272072    5.663409
   2 C      7.817879    7.269383    5.147040
   3 C      8.840192    8.153583    4.917833
   4 C      6.570062    9.802165    5.180435
   5 C      7.770267   10.231431    4.973526
   6 C      5.599654    8.750459    5.337727
   7 C      6.284852    7.428540    5.320686
   8 C      4.113509    8.802857    5.544175
   9 C      5.750054    6.052783    5.417620
  10 C      8.146993    3.211340    5.336331
  11 C      8.107295    5.870607    5.187124
  12 C      6.858695    3.662010    5.408446
  13 C      6.863245    5.142334    5.350892
  14 C      4.612787    3.558233    5.510019
  15 C      4.227693    4.998339    5.467309
  16 C      9.488995    9.195352    4.419092
  17 C      1.149109    9.904693    5.363790
  18 C     13.217353   10.187508    4.946793
  19 C     10.742356    9.627476    4.509542
  20 C     14.520957   10.272882    5.150326
  21 C     15.785720   10.182737    5.297244
  22 C     11.975125    9.965108    4.714834
  23 C      2.411625    9.545242    5.320581

Unit cell:
           periodic     x           y           z      points  spacing
  1. axis:    yes   16.000000    0.000000    0.000000    80     0.2000
  2. axis:    yes    0.000000   16.000000    0.000000    80     0.2000
  3. axis:    yes    0.000000    0.000000   10.000000    48     0.2083

Effective grid spacing dv^(1/3) = 0.2027

                     log10-error:    total        iterations:
           time      wfs    density  energy       fermi  poisson
iter:   1  11:24:18          +inf  -169.759769    3      5      
iter:   2  11:24:18         -1.66  -169.519849    2      2      
iter:   3  11:24:19         -2.02  -169.477847    2      2      
iter:   4  11:24:19         -2.18  -169.454443    2      2      
iter:   5  11:24:20         -2.50  -169.452156    2      2      
iter:   6  11:24:20         -2.63  -169.450881    2      2      
iter:   7  11:24:21         -2.72  -169.449897    2      2      
iter:   8  11:24:21         -2.88  -169.449479    2      2      
iter:   9  11:24:22         -3.06  -169.449340    2      2      
iter:  10  11:24:22         -3.32  -169.448115    2      1      
iter:  11  11:24:23         -3.45  -169.448484    2      1      
iter:  12  11:24:23         -3.59  -169.449437    2      1      
iter:  13  11:24:24         -3.73  -169.449067    2      1      
iter:  14  11:24:24         -3.87  -169.449630    2      1      
iter:  15  11:24:25         -3.93  -169.449557    2      1      
iter:  16  11:24:25         -4.02  -169.449046    1      1      

Converged after 16 iterations.

Dipole moment: (16.100644, 0.315106, -0.056212) |e|*Ang

Energy contributions relative to reference atoms: (reference = -24663.074771)

Kinetic:        +34.364529
Potential:      -58.739755
External:        +0.000000
XC:            -147.753286
Entropy (-ST):   -0.378157
Local:           +2.868544
--------------------------
Free energy:   -169.638124
Extrapolated:  -169.449046

Fermi level: -4.74360

 Band  Eigenvalues  Occupancy
    0    -22.28066    2.00000
    1    -21.13964    2.00000
    2    -20.74461    2.00000
    3    -20.45069    2.00000
    4    -19.98902    2.00000
    5    -19.74535    2.00000
    6    -19.22399    2.00000
    7    -19.02910    2.00000
    8    -18.43583    2.00000
    9    -17.68498    2.00000
   10    -17.43818    2.00000
   11    -17.15485    2.00000
   12    -16.64711    2.00000
   13    -15.95466    2.00000
   14    -15.29314    2.00000
   15    -14.87101    2.00000
   16    -14.38998    2.00000
   17    -14.15525    2.00000
   18    -13.72278    2.00000
   19    -13.15964    2.00000
   20    -12.30979    2.00000
   21    -11.75180    2.00000
   22    -11.05004    2.00000
   23    -10.73997    2.00000
   24    -10.14704    2.00000
   25    -10.10633    2.00000
   26    -10.02600    2.00000
   27     -9.60684    2.00000
   28     -9.41228    2.00000
   29     -9.18869    2.00000
   30     -9.06128    2.00000
   31     -8.69247    2.00000
   32     -8.18489    2.00000
   33     -8.06753    2.00000
   34     -7.87937    2.00000
   35     -7.80635    2.00000
   36     -7.31931    2.00000
   37     -6.99552    2.00000
   38     -6.94358    2.00000
   39     -6.66500    2.00000
   40     -6.26560    2.00000
   41     -6.16742    2.00000
   42     -6.11597    2.00000
   43     -5.52398    1.99918
   44     -5.42721    1.99785
   45     -5.29855    1.99225
   46     -5.00674    1.86572
   47     -4.80454    1.29562
   48     -4.68114    0.69751
   49     -4.46813    0.11964
   50     -4.32817    0.03091
   51     -4.01081    0.00131
   52     -3.10885    0.00000
   53     -2.83067    0.00000
   54     -2.67323    0.00000
   55     -2.47149    0.00000
   56     -2.41644    0.00000
   57     -2.13443    0.00000
   58     -1.83744    0.00000
   59     -1.15326    0.00000
   60     -0.77758    0.00000
   61     -0.33748    0.00000
   62      0.40568    0.00000
   63      0.53614    0.00000
   64      0.68833    0.00000
   65      1.17966    0.00000
   66      1.68715    0.00000
   67      1.92190    0.00000
   68      2.31552    0.00000
   69      2.46125    0.00000
   70      2.77416    0.00000
   71      3.18904    0.00000
   72      3.67914    0.00000
   73      4.35669    0.00000
   74      4.82701    0.00000
   75      5.20370    0.00000
   76      5.45727    0.00000
   77      5.88599    0.00000
   78      5.94444    0.00000
   79      6.20750    0.00000
   80      6.59585    0.00000
   81      7.37533    0.00000
   82      7.66756    0.00000
   83      8.14027    0.00000
   84      8.33634    0.00000
   85      8.64432    0.00000
   86      8.67592    0.00000
   87      8.88663    0.00000
   88      9.09221    0.00000
   89      9.13967    0.00000
   90      9.27327    0.00000
   91      9.30967    0.00000
   92      9.37069    0.00000
   93      9.41632    0.00000
   94      9.58282    0.00000
   95      9.75700    0.00000
   96      9.86708    0.00000
   97      9.93800    0.00000


Forces in eV/Ang:
  0 C    -0.14905    4.28266    0.34661
  1 C     3.02697   -4.34420   -0.66171
  2 C    -0.85822   -0.84427    0.17021
  3 C    -1.54350    0.28206   -0.69852
  4 C     0.32258   -0.14262   -0.25135
  5 C    -0.40560    0.05901   -0.08828
  6 C    -1.75811   -0.31829   -0.17880
  7 C    -1.21207   -0.41285    0.14573
  8 C    -2.91752    0.39778   -0.41193
  9 C    -1.08813   -0.64340   -0.15370
 10 C     0.50432   -0.32885    0.01627
 11 C    -0.55826   -1.30717    0.41597
 12 C    -1.15967   -0.38772   -0.33164
 13 C    -0.12932   -0.39772    0.00216
 14 C     1.41487    1.61986   -0.43009
 15 C    -0.41495    4.15887    0.82109
 16 C     0.25978    0.26396    1.19847
 17 C     0.27811   -0.65676   -0.04236
 18 C     1.15187    0.21952    0.14810
 19 C    -0.19916    0.14987    0.00279
 20 C    -0.49642   -0.19109   -0.08200
 21 C     3.07259   -0.68471    0.06994
 22 C    -0.52841   -0.01932   -0.34676
 23 C     3.23396   -0.67828    0.33918

System changes: positions 

Initializing position-dependent things.

Density initialized from wave functions
           .--------------------------------------.  
          /|                                      |  
         / |                                      |  
        /  |                                      |  
       /   |                                      |  
      /    |                                      |  
     /     |                                      |  
    /      |                                      |  
   /       |                                      |  
  /       C|                               C  C   |  
 *         | C  C   C  C  C         C   C         |  
 |         | C       C   C  C C  C                |  
 |         .--C----C-C--C-------------------------.  
 |        /   C     C                            /   
 |       /      C      C                        /    
 |      /                                      /     
 |     /                                      /      
 |    /                                      /       
 |   /                                      /        
 |  /                                      /         
 | /                                      /          
 |/                                      /           
 *--------------------------------------*            

Positions:
   0 C      5.573185    2.657585    5.388984
   1 C      3.411110    6.243904    5.658684
   2 C      7.815310    7.261812    5.148777
   3 C      8.824035    8.154959    4.910720
   4 C      6.570179    9.799917    5.178738
   5 C      7.772580   10.234211    4.971496
   6 C      5.585524    8.750999    5.334942
   7 C      6.273198    7.423617    5.322524
   8 C      4.086011    8.801631    5.542582
   9 C      5.742436    6.047816    5.416526
  10 C      8.144233    3.210813    5.337068
  11 C      8.105260    5.863582    5.189764
  12 C      6.857705    3.653262    5.404640
  13 C      6.857153    5.136769    5.351835
  14 C      4.615855    3.574543    5.507860
  15 C      4.222729    5.037621    5.472994
  16 C      9.487595    9.195847    4.430827
  17 C      1.167762    9.896024    5.364759
  18 C     13.219124   10.188245    4.946776
  19 C     10.741696    9.629984    4.509220
  20 C     14.525288   10.271231    5.150765
  21 C     15.792901   10.179993    5.296563
  22 C     11.976210    9.966241    4.712824
  23 C      2.437275    9.540400    5.322039

Unit cell:
           periodic     x           y           z      points  spacing
  1. axis:    yes   16.000000    0.000000    0.000000    80     0.2000
  2. axis:    yes    0.000000   16.000000    0.000000    80     0.2000
  3. axis:    yes    0.000000    0.000000   10.000000    48     0.2083

Effective grid spacing dv^(1/3) = 0.2027

                     log10-error:    total        iterations:
           time      wfs    density  energy       fermi  poisson
iter:   1  11:24:27          +inf  -170.620236    3      5      
iter:   2  11:24:28         -1.61  -170.323475    2      2      
iter:   3  11:24:28         -1.97  -170.270013    2      2      
iter:   4  11:24:29         -2.13  -170.241348    2      2      
iter:   5  11:24:29         -2.47  -170.234172    2      1      
iter:   6  11:24:30         -2.57  -170.235937    2      2      
iter:   7  11:24:30         -2.70  -170.235840    2      2      
iter:   8  11:24:31         -2.84  -170.235061    2      2      
iter:   9  11:24:31         -3.02  -170.235170    2      2      
iter:  10  11:24:32         -3.18  -170.232660    2      1      
iter:  11  11:24:32         -3.34  -170.232848    2      1      
iter:  12  11:24:33         -3.54  -170.234805    2      1      
iter:  13  11:24:34         -3.67  -170.234867    2      1      
iter:  14  11:24:34         -3.84  -170.235457    2      1      
iter:  15  11:24:35         -3.91  -170.235391    2      1      
iter:  16  11:24:35         -3.98  -170.234894    2      1      
iter:  17  11:24:36         -4.20  -170.235305    2      1      

Converged after 17 iterations.

Dipole moment: (15.765318, 0.318958, -0.061337) |e|*Ang

Energy contributions relative to reference atoms: (reference = -24663.074771)

Kinetic:        +32.400063
Potential:      -57.272652
External:        +0.000000
XC:            -148.060561
Entropy (-ST):   -0.361604
Local:           +2.878647
--------------------------
Free energy:   -170.416107
Extrapolated:  -170.235305

Fermi level: -4.73637

 Band  Eigenvalues  Occupancy
    0    -22.27023    2.00000
    1    -21.14445    2.00000
    2    -20.73308    2.00000
    3    -20.42561    2.00000
    4    -19.96169    2.00000
    5    -19.72440    2.00000
    6    -19.32797    2.00000
    7    -19.02053    2.00000
    8    -18.45030    2.00000
    9    -17.81199    2.00000
   10    -17.44745    2.00000
   11    -17.24571    2.00000
   12    -16.64657    2.00000
   13    -15.94740    2.00000
   14    -15.31290    2.00000
   15    -14.89785    2.00000
   16    -14.39695    2.00000
   17    -14.16533    2.00000
   18    -13.73284    2.00000
   19    -13.14900    2.00000
   20    -12.35460    2.00000
   21    -11.81784    2.00000
   22    -11.15514    2.00000
   23    -10.74904    2.00000
   24    -10.17901    2.00000
   25    -10.14775    2.00000
   26    -10.05208    2.00000
   27     -9.59898    2.00000
   28     -9.44754    2.00000
   29     -9.17580    2.00000
   30     -9.06139    2.00000
   31     -8.68236    2.00000
   32     -8.17596    2.00000
   33     -8.05593    2.00000
   34     -7.85954    2.00000
   35     -7.73996    2.00000
   36     -7.38894    2.00000
   37     -7.01125    2.00000
   38     -6.96700    2.00000
   39     -6.67203    2.00000
   40     -6.23021    2.00000
   41     -6.19791    2.00000
   42     -6.14828    2.00000
   43     -5.54041    1.99936
   44     -5.46318    1.99861
   45     -5.31252    1.99373
   46     -5.02212    1.89141
   47     -4.79690    1.29371
   48     -4.67480    0.70149
   49     -4.42501    0.08510
   50     -4.33500    0.03549
   51     -3.98812    0.00113
   52     -3.09024    0.00000
   53     -2.80684    0.00000
   54     -2.58446    0.00000
   55     -2.40963    0.00000
   56     -2.25221    0.00000
   57     -2.11874    0.00000
   58     -1.62719    0.00000
   59     -1.14697    0.00000
   60     -0.72702    0.00000
   61     -0.33154    0.00000
   62      0.45345    0.00000
   63      0.56322    0.00000
   64      0.82191    0.00000
   65      1.18510    0.00000
   66      1.66157    0.00000
   67      1.85085    0.00000
   68      2.45357    0.00000
   69      2.60621    0.00000
   70      2.71075    0.00000
   71      3.16788    0.00000
   72      3.95086    0.00000
   73      4.29109    0.00000
   74      4.77316    0.00000
   75      5.09085    0.00000
   76      5.33916    0.00000
   77      5.79613    0.00000
   78      5.89624    0.00000
   79      6.11759    0.00000
   80      6.57540    0.00000
   81      7.41617    0.00000
   82      7.78735    0.00000
   83      8.16287    0.00000
   84      8.31931    0.00000
   85      8.63161    0.00000
   86      8.65237    0.00000
   87      8.88331    0.00000
   88      9.08370    0.00000
   89      9.13326    0.00000
   90      9.27234    0.00000
   91      9.32843    0.00000
   92      9.36857    0.00000
   93      9.45833    0.00000
   94      9.58476    0.00000
   95      9.76768    0.00000
   96      9.88436    0.00000
   97      9.90904    0.00000


Forces in eV/Ang:
  0 C    -0.62335    4.40015    0.36933
  1 C     2.49364   -3.46429   -0.53570
  2 C    -1.11084   -0.80653    0.16868
  3 C    -1.38537    0.37483   -0.64702
  4 C     0.28810   -0.19967   -0.26710
  5 C    -0.60427   -0.06879   -0.02575
  6 C    -1.78847   -0.46634   -0.11090
  7 C    -1.10968   -0.27344    0.12119
  8 C    -2.95821    0.88334   -0.59735
  9 C    -1.04100   -0.58337   -0.15523
 10 C     0.75704   -0.38402   -0.00081
 11 C    -0.67583   -1.35996    0.42971
 12 C    -1.21349   -0.09026   -0.28377
 13 C    -0.01078   -0.33845   -0.03522
 14 C     1.51031    1.47581   -0.42188
 15 C     0.24161    2.84979    0.67334
 16 C     0.25888    0.26159    1.13140
 17 C    -0.12633   -0.56962   -0.10103
 18 C     1.30511    0.22495    0.16395
 19 C    -0.19012    0.12428    0.05339
 20 C    -0.52424   -0.22263   -0.09636
 21 C     3.52320   -0.78798    0.09443
 22 C    -0.57221   -0.03272   -0.34819
 23 C     3.42525   -0.90362    0.44840

System changes: positions 

Initializing position-dependent things.

Density initialized from wave functions
           .--------------------------------------.  
          /|                                      |  
         / |                                      |  
        /  |                                      |  
       /   |                                      |  
      /    |                                      |  
     /     |                                      |  
    /      |                                      |  
   /       |                                      |  
  /       C|                               C  C   |  
 *         | C  C   C  C  C         C   C         |  
 |         | C       C   C  C C  C                |  
 |         .--C----C-C--C-------------------------.  
 |        /    C    C                            /   
 |       /      C      C                        /    
 |      /                                      /     
 |     /                                      /      
 |    /                                      /       
 |   /                                      /        
 |  /                                      /         
 | /                                      /          
 |/                                      /           
 *--------------------------------------*            

Positions:
   0 C      5.586924    2.687605    5.391427
   1 C      3.434335    6.218971    5.654182
   2 C      7.810345    7.251656    5.151102
   3 C      8.803281    8.157566    4.901421
   4 C      6.570051    9.796374    5.176359
   5 C      7.775007   10.237380    4.969032
   6 C      5.566624    8.751247    5.331240
   7 C      6.258093    7.418171    5.324854
   8 C      4.047964    8.802133    5.539389
   9 C      5.732927    6.041147    5.415166
  10 C      8.141591    3.209900    5.337990
  11 C      8.102254    5.854562    5.193259
  12 C      6.857233    3.643078    5.399725
  13 C      6.849297    5.129515    5.352984
  14 C      4.619368    3.595312    5.505180
  15 C      4.223176    5.077214    5.478667
  16 C      9.484977    9.196096    4.446694
  17 C      1.190488    9.885155    5.365823
  18 C     13.220834   10.189003    4.946571
  19 C     10.740657    9.633299    4.509021
  20 C     14.532027   10.268802    5.151369
  21 C     15.804275   10.175788    5.295738
  22 C     11.978922    9.968011    4.710425
  23 C      2.473734    9.532122    5.324610

Unit cell:
           periodic     x           y           z      points  spacing
  1. axis:    yes   16.000000    0.000000    0.000000    80     0.2000
  2. axis:    yes    0.000000   16.000000    0.000000    80     0.2000
  3. axis:    yes    0.000000    0.000000   10.000000    48     0.2083

Effective grid spacing dv^(1/3) = 0.2027

                     log10-error:    total        iterations:
           time      wfs    density  energy       fermi  poisson
iter:   1  11:24:37          +inf  -171.566346    3      5      
iter:   2  11:24:38         -1.53  -171.159871    2      2      
iter:   3  11:24:38         -1.89  -171.086446    2      2      
iter:   4  11:24:39         -2.07  -171.052167    2      2      
iter:   5  11:24:39         -2.37  -171.046001    2      2      
iter:   6  11:24:40         -2.51  -171.043014    2      2      
iter:   7  11:24:41         -2.64  -171.041667    2      2      
iter:   8  11:24:41         -2.85  -171.041937    2      2      
iter:   9  11:24:42         -2.97  -171.041718    2      2      
iter:  10  11:24:42         -3.15  -171.038361    2      1      
iter:  11  11:24:43         -3.37  -171.039824    2      1      
iter:  12  11:24:43         -3.58  -171.042308    2      1      
iter:  13  11:24:44         -3.65  -171.041802    2      1      
iter:  14  11:24:44         -3.78  -171.042038    2      1      
iter:  15  11:24:45         -3.91  -171.042018    2      1      
iter:  16  11:24:45         -3.97  -171.042039    2      1      
iter:  17  11:24:46         -4.07  -171.042046    2      1      

Converged after 17 iterations.

Dipole moment: (15.169299, 0.326180, -0.066775) |e|*Ang

Energy contributions relative to reference atoms: (reference = -24663.074771)

Kinetic:        +30.714002
Potential:      -56.008392
External:        +0.000000
XC:            -148.454303
Entropy (-ST):   -0.348779
Local:           +2.881036
--------------------------
Free energy:   -171.216436
Extrapolated:  -171.042046

Fermi level: -4.72888

 Band  Eigenvalues  Occupancy
    0    -22.26366    2.00000
    1    -21.15656    2.00000
    2    -20.72212    2.00000
    3    -20.39593    2.00000
    4    -19.94197    2.00000
    5    -19.70784    2.00000
    6    -19.49088    2.00000
    7    -18.99643    2.00000
    8    -18.45280    2.00000
    9    -17.94420    2.00000
   10    -17.45718    2.00000
   11    -17.29531    2.00000
   12    -16.65776    2.00000
   13    -15.93065    2.00000
   14    -15.36188    2.00000
   15    -14.92690    2.00000
   16    -14.40424    2.00000
   17    -14.16496    2.00000
   18    -13.73589    2.00000
   19    -13.14278    2.00000
   20    -12.42580    2.00000
   21    -11.89704    2.00000
   22    -11.27978    2.00000
   23    -10.76326    2.00000
   24    -10.27220    2.00000
   25    -10.15174    2.00000
   26    -10.06941    2.00000
   27     -9.59063    2.00000
   28     -9.48990    2.00000
   29     -9.15684    2.00000
   30     -9.06145    2.00000
   31     -8.67301    2.00000
   32     -8.16853    2.00000
   33     -8.04690    2.00000
   34     -7.85233    2.00000
   35     -7.66330    2.00000
   36     -7.48575    2.00000
   37     -7.02063    2.00000
   38     -6.98216    2.00000
   39     -6.66371    2.00000
   40     -6.24469    2.00000
   41     -6.18924    2.00000
   42     -6.17290    2.00000
   43     -5.58368    1.99961
   44     -5.47345    1.99883
   45     -5.32530    1.99487
   46     -5.03863    1.91357
   47     -4.78987    1.29581
   48     -4.66421    0.68747
   49     -4.40657    0.07661
   50     -4.31822    0.03239
   51     -3.95017    0.00083
   52     -3.08314    0.00000
   53     -2.78492    0.00000
   54     -2.55978    0.00000
   55     -2.36347    0.00000
   56     -2.08785    0.00000
   57     -2.08539    0.00000
   58     -1.21415    0.00000
   59     -1.13829    0.00000
   60     -0.67836    0.00000
   61     -0.31556    0.00000
   62      0.50850    0.00000
   63      0.56469    0.00000
   64      1.00961    0.00000
   65      1.26620    0.00000
   66      1.61631    0.00000
   67      1.76647    0.00000
   68      2.51202    0.00000
   69      2.64828    0.00000
   70      2.80465    0.00000
   71      3.12044    0.00000
   72      4.10943    0.00000
   73      4.28074    0.00000
   74      4.74440    0.00000
   75      4.96457    0.00000
   76      5.22638    0.00000
   77      5.67613    0.00000
   78      5.84633    0.00000
   79      6.04857    0.00000
   80      6.58445    0.00000
   81      7.38336    0.00000
   82      7.89921    0.00000
   83      8.18857    0.00000
   84      8.28089    0.00000
   85      8.60196    0.00000
   86      8.61253    0.00000
   87      8.90124    0.00000
   88      9.07158    0.00000
   89      9.12843    0.00000
   90      9.26695    0.00000
   91      9.32684    0.00000
   92      9.34551    0.00000
   93      9.51110    0.00000
   94      9.61850    0.00000
   95      9.77083    0.00000
   96      9.86927    0.00000
   97      9.90450    0.00000


Forces in eV/Ang:
  0 C    -1.20975    4.42549    0.36208
  1 C     1.54631   -1.98997   -0.33383
  2 C    -1.34220   -0.69253    0.14800
  3 C    -1.27245    0.40924   -0.58292
  4 C     0.22697   -0.26799   -0.28405
  5 C    -0.82500   -0.23511    0.04999
  6 C    -1.67127   -0.65570   -0.01921
  7 C    -0.98915   -0.06967    0.07757
  8 C    -3.02926    1.45434   -0.81911
  9 C    -0.97687   -0.54883   -0.14367
 10 C     1.05741   -0.43465   -0.02151
 11 C    -0.79389   -1.35580    0.44531
 12 C    -1.25546    0.25819   -0.22087
 13 C     0.12973   -0.26691   -0.07085
 14 C     1.58344    1.26528   -0.38868
 15 C     1.25887    1.02575    0.41640
 16 C     0.28956    0.30498    1.00810
 17 C    -0.38054   -0.51136   -0.16496
 18 C     1.80510    0.26390    0.23518
 19 C    -0.07731    0.12351    0.13073
 20 C    -0.70370   -0.25166   -0.14150
 21 C     4.03402   -0.91662    0.11083
 22 C    -0.91609   -0.11251   -0.38905
 23 C     3.43356   -1.18191    0.59981

System changes: positions 

Initializing position-dependent things.

Density initialized from wave functions
           .--------------------------------------.  
[...]
External:        +0.000000
XC:            -178.146777
Entropy (-ST):   -0.160627
Local:           +3.032741
--------------------------
Free energy:   -183.340355
Extrapolated:  -183.260042

Fermi level: -4.43175

 Band  Eigenvalues  Occupancy
    0    -23.73441    2.00000
    1    -22.62113    2.00000
    2    -21.81512    2.00000
    3    -20.52583    2.00000
    4    -20.41023    2.00000
    5    -20.20879    2.00000
    6    -19.69879    2.00000
    7    -19.39240    2.00000
    8    -19.26940    2.00000
    9    -18.29255    2.00000
   10    -18.02446    2.00000
   11    -17.87154    2.00000
   12    -16.52115    2.00000
   13    -15.99364    2.00000
   14    -15.62998    2.00000
   15    -15.10455    2.00000
   16    -14.94075    2.00000
   17    -14.25241    2.00000
   18    -13.79404    2.00000
   19    -13.55609    2.00000
   20    -12.87198    2.00000
   21    -12.13943    2.00000
   22    -11.98108    2.00000
   23    -11.27790    2.00000
   24    -10.99160    2.00000
   25    -10.68875    2.00000
   26    -10.38979    2.00000
   27     -9.78568    2.00000
   28     -9.69885    2.00000
   29     -9.39221    2.00000
   30     -9.23708    2.00000
   31     -9.22144    2.00000
   32     -9.02898    2.00000
   33     -8.98549    2.00000
   34     -8.87064    2.00000
   35     -8.57394    2.00000
   36     -7.88644    2.00000
   37     -7.55917    2.00000
   38     -7.47980    2.00000
   39     -7.34939    2.00000
   40     -6.41034    2.00000
   41     -6.20388    2.00000
   42     -6.16536    2.00000
   43     -5.93540    2.00000
   44     -5.70530    1.99999
   45     -5.06623    1.99649
   46     -4.75470    1.92386
   47     -4.68144    1.84785
   48     -4.22849    0.23165
   49     -3.47948    0.00015
   50     -3.23233    0.00001
   51     -2.92592    0.00000
   52     -2.48160    0.00000
   53     -1.93565    0.00000
   54     -1.92268    0.00000
   55     -1.52668    0.00000
   56     -1.15995    0.00000
   57      0.40113    0.00000
   58      0.65662    0.00000
   59      0.93541    0.00000
   60      1.46860    0.00000
   61      1.92395    0.00000
   62      2.21279    0.00000
   63      2.62335    0.00000
   64      2.72396    0.00000
   65      2.88565    0.00000
   66      3.44095    0.00000
   67      4.07172    0.00000
   68      4.28254    0.00000
   69      4.50395    0.00000
   70      4.68594    0.00000
   71      5.29846    0.00000
   72      5.36754    0.00000
   73      5.71432    0.00000
   74      5.88087    0.00000
   75      6.16170    0.00000
   76      6.36392    0.00000
   77      6.82737    0.00000
   78      7.19108    0.00000
   79      7.37130    0.00000
   80      8.02825    0.00000
   81      8.29260    0.00000
   82      8.47098    0.00000
   83      8.69142    0.00000
   84      8.77912    0.00000
   85      8.96424    0.00000
   86      8.98073    0.00000
   87      9.08867    0.00000
   88      9.15224    0.00000
   89      9.34916    0.00000
   90      9.51519    0.00000
   91      9.56451    0.00000
   92      9.64280    0.00000
   93      9.72905    0.00000
   94      9.84656    0.00000
   95      9.90020    0.00000
   96      9.99383    0.00000
   97     10.16166    0.00000


Forces in eV/Ang:
  0 C    -0.17387    0.06987   -0.00617
  1 C     0.01401   -0.00873    0.01436
  2 C    -0.06777    0.03216   -0.03294
  3 C     0.06587    0.02164    0.05571
  4 C     0.01521    0.02154   -0.04059
  5 C    -0.05458   -0.01492   -0.00290
  6 C     0.00683   -0.02854    0.04352
  7 C    -0.03333   -0.01453    0.01403
  8 C     0.03400    0.01766   -0.02330
  9 C     0.03971   -0.03439   -0.00318
 10 C     0.00775    0.00271    0.03467
 11 C    -0.02420   -0.03835   -0.00567
 12 C    -0.02700    0.00758   -0.01791
 13 C     0.03960   -0.02301   -0.02232
 14 C     0.06737   -0.01338    0.03305
 15 C     0.09024   -0.01952   -0.06664
 16 C    -0.01379   -0.00600   -0.01888
 17 C    -0.06166    0.00019   -0.01671
 18 C    -0.00990   -0.02673    0.00673
 19 C     0.03980    0.02508   -0.02670
 20 C    -0.05524   -0.04218    0.01001
 21 C     0.11868   -0.02834   -0.01442
 22 C    -0.03102    0.02017   -0.00863
 23 C     0.03661    0.06085   -0.01325

System changes: positions 

Initializing position-dependent things.

Density initialized from wave functions
           .--------------------------------------.  
          /|                                      |  
         / |                                      |  
        /  |                                      |  
       /   |                                      |  
      /    |                                      |  
     /     |                                      |  
    /      |                                      |  
   /       |                                      |  
  /        |                                      |  
 *     C   C  C  C  C  C  CC  C  C   C  C  C      |  
 |         |         C  C                         |  
 |         C---C--C-C---C-------------------------.  
 |        /   C C   C                            /   
 |       /                                      /    
 |      /                                      /     
 |     /                                      /      
 |    /                                      /       
 |   /                                      /        
 |  /                                      /         
 | /                                      /          
 |/                                      /           
 *--------------------------------------*            

Positions:
   0 C      5.372829    3.609293    5.612735
   1 C      3.000651    5.010141    5.614938
   2 C      7.525511    7.558908    5.158693
   3 C      8.479146    8.666447    5.137772
   4 C      6.517594   10.084187    5.028315
   5 C      7.754147    9.886283    5.077929
   6 C      5.471165    9.126208    5.059379
   7 C      6.059954    7.803834    5.130127
   8 C      4.102830    9.300035    5.035247
   9 C      5.318640    6.525690    5.222431
  10 C      8.109119    4.764826    5.571776
  11 C      7.724123    6.130447    5.220365
  12 C      6.564569    4.249884    5.451883
  13 C      6.406604    5.617727    5.216113
  14 C      4.199013    4.264638    5.576815
  15 C      4.120678    5.821892    5.398860
  16 C      9.850881    8.564676    5.174161
  17 C      1.527794    9.390239    5.006329
  18 C     13.680180    9.008864    5.089466
  19 C     11.114230    8.632403    5.171212
  20 C     14.958905    9.200892    5.041523
  21 C     16.247244    9.343996    5.017049
  22 C     12.416025    8.793174    5.134994
  23 C      2.842383    9.369438    5.015237

Unit cell:
           periodic     x           y           z      points  spacing
  1. axis:    yes   16.000000    0.000000    0.000000    80     0.2000
  2. axis:    yes    0.000000   16.000000    0.000000    80     0.2000
  3. axis:    yes    0.000000    0.000000   10.000000    48     0.2083

Effective grid spacing dv^(1/3) = 0.2027

                     log10-error:    total        iterations:
           time      wfs    density  energy       fermi  poisson
iter:   1  11:40:14          +inf  -183.266237    2      5      
iter:   2  11:40:14         -2.91  -183.263315    2      1      
iter:   3  11:40:15         -3.09  -183.261133    2      1      
iter:   4  11:40:15         -3.26  -183.261345    2      1      
iter:   5  11:40:16         -3.40  -183.259069    2      1      
iter:   6  11:40:17         -3.35  -183.260671    2      1      
iter:   7  11:40:17         -3.83  -183.262478    2      1      
iter:   8  11:40:18         -3.49  -183.260946    2      1      
iter:   9  11:40:18         -4.20  -183.261077    2      1      

Converged after 9 iterations.

Dipole moment: (-15.938580, 0.147176, -0.109053) |e|*Ang

Energy contributions relative to reference atoms: (reference = -24663.074771)

Kinetic:       +116.588301
Potential:     -124.566643
External:        +0.000000
XC:            -178.235902
Entropy (-ST):   -0.159925
Local:           +3.033129
--------------------------
Free energy:   -183.341040
Extrapolated:  -183.261077

Fermi level: -4.43306

 Band  Eigenvalues  Occupancy
    0    -23.72986    2.00000
    1    -22.61920    2.00000
    2    -21.81672    2.00000
    3    -20.52870    2.00000
    4    -20.41389    2.00000
    5    -20.20844    2.00000
    6    -19.70096    2.00000
    7    -19.39645    2.00000
    8    -19.26910    2.00000
    9    -18.29049    2.00000
   10    -18.02534    2.00000
   11    -17.87622    2.00000
   12    -16.52210    2.00000
   13    -15.99756    2.00000
   14    -15.63279    2.00000
   15    -15.10527    2.00000
   16    -14.94682    2.00000
   17    -14.25400    2.00000
   18    -13.79844    2.00000
   19    -13.55904    2.00000
   20    -12.87408    2.00000
   21    -12.13653    2.00000
   22    -11.97683    2.00000
   23    -11.27702    2.00000
   24    -10.98921    2.00000
   25    -10.68574    2.00000
   26    -10.38322    2.00000
   27     -9.78627    2.00000
   28     -9.70026    2.00000
   29     -9.38556    2.00000
   30     -9.23922    2.00000
   31     -9.22205    2.00000
   32     -9.03233    2.00000
   33     -8.98842    2.00000
   34     -8.87232    2.00000
   35     -8.57566    2.00000
   36     -7.88645    2.00000
   37     -7.56046    2.00000
   38     -7.48280    2.00000
   39     -7.35150    2.00000
   40     -6.41157    2.00000
   41     -6.20262    2.00000
   42     -6.16457    2.00000
   43     -5.93480    2.00000
   44     -5.70389    1.99999
   45     -5.06535    1.99642
   46     -4.75674    1.92439
   47     -4.68350    1.84890
   48     -4.22907    0.23015
   49     -3.47292    0.00014
   50     -3.22555    0.00001
   51     -2.92086    0.00000
   52     -2.48597    0.00000
   53     -1.93517    0.00000
   54     -1.92087    0.00000
   55     -1.52569    0.00000
   56     -1.15698    0.00000
   57      0.40621    0.00000
   58      0.66289    0.00000
   59      0.91340    0.00000
   60      1.45811    0.00000
   61      1.93431    0.00000
   62      2.21790    0.00000
   63      2.63332    0.00000
   64      2.73334    0.00000
   65      2.89523    0.00000
   66      3.44522    0.00000
   67      4.07745    0.00000
   68      4.28267    0.00000
   69      4.50825    0.00000
   70      4.69278    0.00000
   71      5.31172    0.00000
   72      5.37078    0.00000
   73      5.71545    0.00000
   74      5.87967    0.00000
   75      6.17146    0.00000
   76      6.35855    0.00000
   77      6.82642    0.00000
   78      7.20358    0.00000
   79      7.36530    0.00000
   80      8.03539    0.00000
   81      8.29921    0.00000
   82      8.47222    0.00000
   83      8.68863    0.00000
   84      8.78126    0.00000
   85      8.96655    0.00000
   86      8.98173    0.00000
   87      9.09564    0.00000
   88      9.15249    0.00000
   89      9.35460    0.00000
   90      9.51553    0.00000
   91      9.56340    0.00000
   92      9.64237    0.00000
   93      9.72745    0.00000
   94      9.84773    0.00000
   95      9.90477    0.00000
   96      9.99773    0.00000
   97     10.16391    0.00000


Forces in eV/Ang:
  0 C    -0.15868    0.04455   -0.00900
  1 C     0.05212    0.02058    0.00297
  2 C    -0.06445    0.02122   -0.02971
  3 C     0.03115    0.03820    0.05527
  4 C    -0.00862    0.06493   -0.03211
  5 C    -0.01665   -0.04141   -0.00430
  6 C     0.02014   -0.02029    0.01563
  7 C    -0.03543   -0.02773    0.02182
  8 C     0.03519    0.02347   -0.00548
  9 C     0.03575   -0.05312   -0.00254
 10 C     0.02844   -0.01305    0.03687
 11 C    -0.00494   -0.04361    0.00082
 12 C    -0.04839    0.02921    0.00517
 13 C     0.04688   -0.01482   -0.02990
 14 C     0.08802   -0.00472    0.02127
 15 C     0.04031   -0.04401   -0.04569
 16 C     0.01354   -0.01492   -0.02726
 17 C    -0.06708    0.00727   -0.00916
 18 C    -0.04739   -0.03518    0.00242
 19 C    -0.00305    0.01990   -0.02103
 20 C    -0.04762   -0.03304    0.00558
 21 C     0.15285   -0.01672   -0.01613
 22 C    -0.01213    0.01219    0.00644
 23 C     0.01400    0.04501   -0.00784

System changes: positions 

Initializing position-dependent things.

Density initialized from wave functions
           .--------------------------------------.  
          /|                                      |  
         / |                                      |  
        /  |                                      |  
       /   |                                      |  
      /    |                                      |  
     /     |                                      |  
    /      |                                      |  
   /       |                                      |  
  /        |                                      |  
 *     C   C  C  C  C  C  CC  C  C   C  C  C      |  
 |         |         C  C                         |  
 |         C---C--C-C---C-------------------------.  
 |        /   C C   C                            /   
 |       /                                      /    
 |      /                                      /     
 |     /                                      /      
 |    /                                      /       
 |   /                                      /        
 |  /                                      /         
 | /                                      /          
 |/                                      /           
 *--------------------------------------*            

Positions:
   0 C      5.366899    3.612429    5.612102
   1 C      2.999266    5.017311    5.617874
   2 C      7.526826    7.556452    5.157457
   3 C      8.480361    8.665376    5.140070
   4 C      6.516816   10.081291    5.025128
   5 C      7.752627    9.882404    5.079183
   6 C      5.471449    9.122569    5.059769
   7 C      6.061487    7.801270    5.129565
   8 C      4.103935    9.298506    5.033012
   9 C      5.321386    6.524340    5.222207
  10 C      8.110553    4.759701    5.570399
  11 C      7.724994    6.126697    5.218898
  12 C      6.562318    4.246796    5.449792
  13 C      6.407689    5.615017    5.215144
  14 C      4.195841    4.268268    5.579075
  15 C      4.122150    5.824595    5.398295
  16 C      9.851952    8.569499    5.176290
  17 C      1.529536    9.385340    5.003415
  18 C     13.680479    9.010580    5.091573
  19 C     11.114315    8.645990    5.171781
  20 C     14.960211    9.196194    5.041715
  21 C     16.249663    9.336004    5.014442
  22 C     12.415870    8.803010    5.136421
  23 C      2.844032    9.369286    5.013262

Unit cell:
           periodic     x           y           z      points  spacing
  1. axis:    yes   16.000000    0.000000    0.000000    80     0.2000
  2. axis:    yes    0.000000   16.000000    0.000000    80     0.2000
  3. axis:    yes    0.000000    0.000000   10.000000    48     0.2083

Effective grid spacing dv^(1/3) = 0.2027

                     log10-error:    total        iterations:
           time      wfs    density  energy       fermi  poisson
iter:   1  11:40:20          +inf  -183.269935    3      5      
iter:   2  11:40:21         -2.76  -183.264644    2      1      
iter:   3  11:40:21         -3.01  -183.261676    2      1      
iter:   4  11:40:22         -3.26  -183.263007    2      1      
iter:   5  11:40:22         -3.34  -183.262173    2      1      
iter:   6  11:40:23         -3.57  -183.260635    2      1      
iter:   7  11:40:24         -3.48  -183.264721    2      1      
iter:   8  11:40:24         -3.20  -183.261996    2      1      
iter:   9  11:40:25         -3.74  -183.262447    2      1      
iter:  10  11:40:25         -4.23  -183.262877    2      1      

Converged after 10 iterations.

Dipole moment: (-15.866801, 0.146199, -0.109255) |e|*Ang

Energy contributions relative to reference atoms: (reference = -24663.074771)

Kinetic:       +117.162784
Potential:     -125.031559
External:        +0.000000
XC:            -178.348134
Entropy (-ST):   -0.159077
Local:           +3.033570
--------------------------
Free energy:   -183.342416
Extrapolated:  -183.262877

Fermi level: -4.43447

 Band  Eigenvalues  Occupancy
    0    -23.72829    2.00000
    1    -22.61858    2.00000
    2    -21.81740    2.00000
    3    -20.53265    2.00000
    4    -20.41442    2.00000
    5    -20.21016    2.00000
    6    -19.70320    2.00000
    7    -19.39762    2.00000
    8    -19.26999    2.00000
    9    -18.29045    2.00000
   10    -18.02623    2.00000
   11    -17.87895    2.00000
   12    -16.52457    2.00000
   13    -15.99904    2.00000
   14    -15.63865    2.00000
   15    -15.10540    2.00000
   16    -14.95678    2.00000
   17    -14.25642    2.00000
   18    -13.79891    2.00000
   19    -13.55947    2.00000
   20    -12.87646    2.00000
   21    -12.13416    2.00000
   22    -11.97593    2.00000
   23    -11.27454    2.00000
   24    -10.98964    2.00000
   25    -10.68692    2.00000
   26    -10.37891    2.00000
   27     -9.78824    2.00000
   28     -9.70137    2.00000
   29     -9.38199    2.00000
   30     -9.23959    2.00000
   31     -9.22133    2.00000
   32     -9.03368    2.00000
   33     -8.99019    2.00000
   34     -8.87460    2.00000
   35     -8.57809    2.00000
   36     -7.88971    2.00000
   37     -7.56116    2.00000
   38     -7.48308    2.00000
   39     -7.35185    2.00000
   40     -6.41101    2.00000
   41     -6.20057    2.00000
   42     -6.16516    2.00000
   43     -5.93512    2.00000
   44     -5.70648    1.99999
   45     -5.06500    1.99635
   46     -4.75790    1.92421
   47     -4.68648    1.85107
   48     -4.22954    0.22824
   49     -3.46581    0.00012
   50     -3.22409    0.00001
   51     -2.91452    0.00000
   52     -2.49162    0.00000
   53     -1.93316    0.00000
   54     -1.91692    0.00000
   55     -1.52579    0.00000
   56     -1.15216    0.00000
   57      0.40999    0.00000
   58      0.66608    0.00000
   59      0.89693    0.00000
   60      1.45627    0.00000
   61      1.94122    0.00000
   62      2.22217    0.00000
   63      2.64627    0.00000
   64      2.74379    0.00000
   65      2.90993    0.00000
   66      3.44983    0.00000
   67      4.07708    0.00000
   68      4.28596    0.00000
   69      4.51012    0.00000
   70      4.69977    0.00000
   71      5.32891    0.00000
   72      5.37771    0.00000
   73      5.72189    0.00000
   74      5.86623    0.00000
   75      6.17809    0.00000
   76      6.36194    0.00000
   77      6.83140    0.00000
   78      7.20726    0.00000
   79      7.36602    0.00000
   80      8.03915    0.00000
   81      8.30263    0.00000
   82      8.47154    0.00000
   83      8.68640    0.00000
   84      8.78394    0.00000
   85      8.96834    0.00000
   86      8.98117    0.00000
   87      9.10680    0.00000
   88      9.15269    0.00000
   89      9.36028    0.00000
   90      9.51484    0.00000
   91      9.56253    0.00000
   92      9.64239    0.00000
   93      9.72615    0.00000
   94      9.85027    0.00000
   95      9.91311    0.00000
   96     10.00362    0.00000
   97     10.16305    0.00000


Forces in eV/Ang:
  0 C    -0.05639    0.00087   -0.00633
  1 C     0.07139    0.03076    0.01151
  2 C    -0.04083    0.00144   -0.01411
  3 C    -0.01485    0.00712    0.04135
  4 C    -0.01558    0.07999   -0.01727
  5 C     0.00763   -0.01533    0.00105
  6 C     0.03823    0.00335   -0.00249
  7 C    -0.02514   -0.02095    0.02802
  8 C     0.03776    0.01140    0.00398
  9 C     0.01773   -0.04689   -0.01002
 10 C    -0.01894    0.02891    0.03076
 11 C     0.01940   -0.03837    0.00410
 12 C    -0.07443    0.03340    0.02281
 13 C     0.04050   -0.00900   -0.03277
 14 C     0.01428    0.01631    0.00925
 15 C    -0.01141   -0.06226   -0.02392
 16 C    -0.00450   -0.01283   -0.02596
 17 C    -0.05196    0.01672   -0.00351
 18 C     0.03263   -0.02317   -0.00522
 19 C    -0.00335    0.00327   -0.02168
 20 C    -0.00741   -0.01616    0.00460
 21 C     0.06441   -0.01926   -0.00353
 22 C    -0.03571    0.00656    0.01097
 23 C    -0.00702    0.03506   -0.00442

