
  ___ ___ ___ _ _ _  
 |   |   |_  | | | | 
 | | | | | . | | | | 
 |__ |  _|___|_____|  1.3.0b1
 |___|_|             

User:   esb@s65n32.grendel.cscaa.dk
Date:   Thu Nov  9 09:22:32 2017
Arch:   x86_64
Pid:    21526
Python: 2.7.13
gpaw:   /home/esb/DFT/gpaw_git/gpaw
_gpaw:  /home/esb/DFT/gpaw_git/build/bin.linux-x86_64-2.7/gpaw-python
ase:    /home/esb/DFT/ase_git/ase (version 3.15.0b1)
numpy:  /comm/swstack/core/python/2.7.13/lib/python2.7/site-packages/numpy (version 1.13.3)
scipy:  /comm/swstack/core/python/2.7.13/lib/python2.7/site-packages/scipy (version 0.19.1)
units:  Angstrom and eV
cores:  16
Extra parameters: {'blacs': True}

Input parameters:
  basis: dzp
  gpts: [80 80 48]
  kpts: [1 1 1]
  maxiter: 99
  mixer: {backend: pulay,
          beta: 0.05,
          method: separate,
          nmaxold: 5,
          weight: 75}
  mode: lcao
  nbands: -50
  occupations: {name: fermi-dirac,
                width: 0.1}
  poissonsolver: {eps: 1e-07,
                  name: fd,
                  nn: 3,
                  relax: GS}
  xc: PBE

System changes: positions, numbers, cell, pbc, initial_charges, initial_magmoms 

Initialize ...

C-setup:
  name: Carbon
  id: 4aa54d4b901d75f77cc0ea3eec22967b
  Z: 6
  valence: 4
  core: 2
  charge: 0.0
  file: /home/esb/DFT/gpaw-setups-0.8.7929/C.PBE.gz
  cutoffs: 0.64(comp), 1.14(filt), 1.14(core), lmax=2
  valence states:
                energy  radius
    2s(2.00)   -13.751   0.635
    2p(2.00)    -5.284   0.635
    *s          13.461   0.635
    *p          21.927   0.635
    *d           0.000   0.635

  LCAO basis set for C:
    Name: dzp
    File: /home/esb/DFT/gpaw-setups-0.8.7929/C.dzp.basis.gz
    Number of radial functions: 5
    Number of spherical harmonics: 13
      l=0, rc=5.5469 Bohr: 2s-sz confined orbital
      l=1, rc=6.6719 Bohr: 2p-sz confined orbital
      l=0, rc=3.0312 Bohr: 2s-dz split-valence wave
      l=1, rc=3.7500 Bohr: 2p-dz split-valence wave
      l=2, rc=6.6719 Bohr: d-type Gaussian polarization

Reference energy: -24663.074771

Spin-paired calculation

Occupation numbers:
  Fermi-Dirac: width=0.1000 eV

Convergence criteria:
  Maximum total energy change: 0.0005 eV / electron
  Maximum integral of absolute density change: 0.0001 electrons
  Maximum integral of absolute eigenstate change: 4e-08 eV^2
  Maximum number of iterations: 99

Symmetries present (total): 1

  ( 1  0  0)
  ( 0  1  0)
  ( 0  0  1)

1 k-point (Gamma)
1 k-point in the irreducible part of the Brillouin zone
       k-points in crystal coordinates                weights
   0:     0.00000000    0.00000000    0.00000000          1/1

Wave functions: LCAO
  Diagonalizer: Serial LAPACK
  Atomic Correction: dense with blas
  Datatype: float
  Eigensolver: None 

LCAO using direct dense diagonalizer 

Densities:
  Coarse grid: 80*80*48 grid
  Fine grid: 160*160*96 grid
  Total Charge: 0.000000 

Density mixing:
  Method: separate
  Backend: pulay
  Linear mixing parameter: 0.05
  Mixing with 5 old densities
  Damping of long wave oscillations: 75 

Hamiltonian:
  XC and Coulomb potentials evaluated on a 160*160*96 grid
  Using the PBE Exchange-Correlation functional
  Interpolation: tri-quintic (5. degree polynomial)
  Poisson solver: Gauss-Seidel solver with 6 multi-grid levels
    Coarsest grid: 5 x 5 x 3 points
    Stencil: 6*3+1=19 point O(h^6) finite-difference Laplacian
    Max iterations: 1000
    Tolerance: 1.000000e-07 

Memory estimate:
  Process memory now: 77.58 MiB
  Calculator: 15.59 MiB
    Density: 6.13 MiB
      Arrays: 3.81 MiB
      Localized functions: 0.86 MiB
      Mixer: 1.46 MiB
    Hamiltonian: 5.40 MiB
      Arrays: 2.49 MiB
      XC: 0.00 MiB
      Poisson: 2.85 MiB
      vbar: 0.07 MiB
    Wavefunctions: 4.05 MiB
      C [qnM]: 0.23 MiB
      S, T [2 x qmm]: 1.49 MiB
      P [aqMi]: 0.01 MiB
      TCI: 0.00 MiB
      BasisFunctions: 2.33 MiB
      Eigensolver: 0.00 MiB

Total number of cores used: 16
Domain decomposition: 2 x 4 x 2

Number of atoms: 24
Number of atomic orbitals: 312
Number of bands in calculation: 98
Bands to converge: occupied states only
Number of valence electrons: 96

... initialized

Initializing position-dependent things.

Density initialized from atomic densities
           .--------------------------------------.  
          /|                                      |  
         / |                                      |  
        /  |                                      |  
       /   |                                      |  
      /    |                                      |  
     /     |                                      |  
    /      |                                      |  
   /       |           C  C  C  C                 |  
  /        |           C         C                |  
 *         |  C C   C        C     C              |  
 |         |         C   C                        |  
 |         .---C---C-C---C-C----------------------.  
 |        /         C     C        C             /   
 |       /             C     C  C               /    
 |      /                                      /     
 |     /                                      /      
 |    /                                      /       
 |   /                                      /        
 |  /                                      /         
 | /                                      /          
 |/                                      /           
 *--------------------------------------*            

Positions:
   0 C      9.289009    3.933811    5.174407
   1 C      9.501709    5.328032    5.187972
   2 C      5.495636    8.689150    5.818119
   3 C      3.537909    7.528178    5.687544
   4 C      6.375922    9.789677    5.940044
   5 C      5.833599    6.079579    5.484298
   6 C      8.244528    3.229307    5.229574
   7 C      7.778894    7.476540    5.450777
   8 C      4.474201    5.498887    5.461761
   9 C      8.217251    6.019402    5.321390
  10 C      6.313855    7.469667    5.597377
  11 C      6.950910    3.769821    5.309245
  12 C      4.071908    8.709465    5.847802
  13 C      7.010492    5.237664    5.381104
  14 C      6.276311   10.908919    5.587054
  15 C      9.287865    9.365081    5.503145
  16 C      9.703293   11.628251    5.229182
  17 C     11.548975    9.833653    4.779883
  18 C     10.302319   10.308830    5.187805
  19 C     12.283197    6.357552    4.098067
  20 C     10.319499    4.834904    4.514063
  21 C      7.207872   11.749818    5.506202
  22 C      8.526434   12.057310    5.365932
  23 C     11.499863    5.322866    4.208707

Unit cell:
           periodic     x           y           z      points  spacing
  1. axis:    yes   16.000000    0.000000    0.000000    80     0.2000
  2. axis:    yes    0.000000   16.000000    0.000000    80     0.2000
  3. axis:    yes    0.000000    0.000000   10.000000    48     0.2083

Effective grid spacing dv^(1/3) = 0.2027

                     log10-error:    total        iterations:
           time      wfs    density  energy       fermi  poisson
iter:   1  09:22:34          +inf  -168.655752    3      6      
iter:   2  09:22:35         -0.86  -166.894135    4      3      
iter:   3  09:22:35         -0.90  -164.841467    3      3      
iter:   4  09:22:36         -0.98  -163.894149    28     3      
iter:   5  09:22:36         -1.11  -163.201463    4      2      
iter:   6  09:22:37         -1.17  -162.571328    35     3      
iter:   7  09:22:37         -1.46  -162.486448    3      3      
iter:   8  09:22:38         -1.56  -162.443287    3      3      
iter:   9  09:22:38         -1.72  -162.408991    4      3      
iter:  10  09:22:39         -1.91  -162.392911    3      2      
iter:  11  09:22:39         -2.03  -162.383448    4      2      
iter:  12  09:22:40         -2.20  -162.377659    4      2      
iter:  13  09:22:40         -2.48  -162.370444    3      2      
iter:  14  09:22:41         -2.57  -162.368409    3      2      
iter:  15  09:22:41         -2.72  -162.365799    3      2      
iter:  16  09:22:42         -2.98  -162.365137    3      2      
iter:  17  09:22:42         -3.16  -162.360573    3      1      
iter:  18  09:22:43         -3.30  -162.359447    3      1      
iter:  19  09:22:43         -3.55  -162.363687    2      1      
iter:  20  09:22:44         -3.65  -162.363969    2      1      
iter:  21  09:22:44         -3.73  -162.364741    2      1      
iter:  22  09:22:45         -3.81  -162.365852    2      1      
iter:  23  09:22:45         -3.89  -162.366599    2      1      
iter:  24  09:22:46         -4.04  -162.366457    2      1      

Converged after 24 iterations.

Dipole moment: (-0.046525, 0.447275, 0.234063) |e|*Ang

Energy contributions relative to reference atoms: (reference = -24663.074771)

Kinetic:       +132.392316
Potential:     -132.126412
External:        +0.000000
XC:            -165.390251
Entropy (-ST):   -0.381744
Local:           +2.948762
--------------------------
Free energy:   -162.557329
Extrapolated:  -162.366457

Fermi level: -4.92012

 Band  Eigenvalues  Occupancy
    0    -25.01556    2.00000
    1    -22.25860    2.00000
    2    -21.94098    2.00000
    3    -21.37440    2.00000
    4    -20.73427    2.00000
    5    -20.13921    2.00000
    6    -19.32818    2.00000
    7    -18.75603    2.00000
    8    -18.31490    2.00000
    9    -18.13566    2.00000
   10    -17.65813    2.00000
   11    -16.53877    2.00000
   12    -16.01138    2.00000
   13    -15.66397    2.00000
   14    -15.19307    2.00000
   15    -15.04283    2.00000
   16    -14.65722    2.00000
   17    -13.72924    2.00000
   18    -13.27462    2.00000
   19    -13.13708    2.00000
   20    -12.31272    2.00000
   21    -11.90891    2.00000
   22    -11.67741    2.00000
   23    -11.18876    2.00000
   24    -10.77077    2.00000
   25    -10.26068    2.00000
   26    -10.14653    2.00000
   27     -9.64771    2.00000
   28     -9.36236    2.00000
   29     -9.20667    2.00000
   30     -8.98253    2.00000
   31     -8.60521    2.00000
   32     -8.30221    2.00000
   33     -7.90737    2.00000
   34     -7.86773    2.00000
   35     -7.72748    2.00000
   36     -7.09379    2.00000
   37     -6.78637    2.00000
   38     -6.65792    2.00000
   39     -6.37880    2.00000
   40     -6.11207    1.99999
   41     -5.99452    1.99996
   42     -5.82284    1.99976
   43     -5.69100    1.99910
   44     -5.53531    1.99575
   45     -5.19419    1.87877
   46     -5.13974    1.79981
   47     -4.99742    1.36831
   48     -4.91088    0.95384
   49     -4.25846    0.00267
   50     -4.23010    0.00201
   51     -3.78835    0.00002
   52     -3.67103    0.00001
   53     -3.30631    0.00000
   54     -3.10490    0.00000
   55     -2.96597    0.00000
   56     -2.59677    0.00000
   57     -2.24706    0.00000
   58     -1.81920    0.00000
   59     -1.51536    0.00000
   60     -0.94270    0.00000
   61     -0.63058    0.00000
   62     -0.30438    0.00000
   63      0.13434    0.00000
   64      0.51399    0.00000
   65      1.36151    0.00000
   66      1.65827    0.00000
   67      2.37323    0.00000
   68      2.72306    0.00000
   69      3.15200    0.00000
   70      3.80142    0.00000
   71      4.27545    0.00000
   72      4.72876    0.00000
   73      5.14102    0.00000
   74      5.71061    0.00000
   75      6.49584    0.00000
   76      6.59702    0.00000
   77      6.98327    0.00000
   78      7.29643    0.00000
   79      7.56102    0.00000
   80      7.79144    0.00000
   81      8.02595    0.00000
   82      8.19215    0.00000
   83      8.45027    0.00000
   84      8.69186    0.00000
   85      8.78877    0.00000
   86      8.84246    0.00000
   87      9.04861    0.00000
   88      9.25250    0.00000
   89      9.44226    0.00000
   90      9.47935    0.00000
   91      9.57222    0.00000
   92      9.66370    0.00000
   93      9.68924    0.00000
   94      9.79421    0.00000
   95      9.86670    0.00000
   96     10.06214    0.00000
   97     10.23726    0.00000


Forces in eV/Ang:
  0 C     6.42424   -0.50029   -1.81098
  1 C   -18.02962    9.31066   10.41082
  2 C     2.14829   -1.47421    0.09246
  3 C     0.73132   -0.33085    0.05564
  4 C    -2.95962  -12.16708    2.75410
  5 C    -2.29976    0.03303    0.06898
  6 C    -7.77649    0.35273    0.76599
  7 C    -0.98960   -2.16787   -0.23348
  8 C     1.65083    2.78801    0.24603
  9 C     1.29471    2.73608    0.63316
 10 C     0.99807    0.38248    0.07150
 11 C     3.71356   -0.49825   -0.19474
 12 C     0.01115   -2.24040   -0.23151
 13 C    -1.26978   -1.99063   -0.05162
 14 C    -1.21565    9.92672   -2.17998
 15 C     0.12596   -1.48551    0.34673
 16 C     1.41081   -0.36986   -0.12042
 17 C    -0.85139   -0.90451    0.27252
 18 C     0.85174    0.62727   -0.45448
 19 C    -0.06079   -0.61189   -0.12246
 20 C    10.93722   -8.14103   -7.19761
 21 C     5.80128    5.12323   -1.21611
 22 C    -5.04308    0.28567    0.43938
 23 C     4.42780    1.24228   -2.30897

System changes: positions 

Initializing position-dependent things.

Density initialized from wave functions
           .--------------------------------------.  
          /|                                      |  
         / |                                      |  
        /  |                                      |  
       /   |                                      |  
      /    |                                      |  
     /     |                                      |  
    /      |                                      |  
   /       |           C  C  C  C                 |  
  /        |           C         C                |  
 *         |  C C   C        C     C              |  
 |         |         C   C                        |  
 |         .---C---C-C---C-C----------------------.  
 |        /         C     C        C             /   
 |       /             C     C  C               /    
 |      /                                      /     
 |     /                                      /      
 |    /                                      /       
 |   /                                      /        
 |  /                                      /         
 | /                                      /          
 |/                                      /           
 *--------------------------------------*            

Positions:
   0 C      9.300277    3.932934    5.171231
   1 C      9.470087    5.344361    5.206231
   2 C      5.499403    8.686564    5.818281
   3 C      3.539192    7.527597    5.687641
   4 C      6.370731    9.768337    5.944874
   5 C      5.829565    6.079637    5.484418
   6 C      8.230889    3.229926    5.230917
   7 C      7.777159    7.472738    5.450368
   8 C      4.477097    5.503776    5.462193
   9 C      8.219522    6.024201    5.322501
  10 C      6.315605    7.470338    5.597502
  11 C      6.957423    3.768947    5.308903
  12 C      4.071928    8.705536    5.847396
  13 C      7.008265    5.234173    5.381013
  14 C      6.274179   10.926329    5.583230
  15 C      9.288086    9.362476    5.503754
  16 C      9.705768   11.627602    5.228971
  17 C     11.547482    9.832067    4.780361
  18 C     10.303813   10.309930    5.187008
  19 C     12.283090    6.356479    4.097853
  20 C     10.338682    4.820626    4.501439
  21 C      7.218047   11.758803    5.504069
  22 C      8.517589   12.057811    5.366703
  23 C     11.507629    5.325045    4.204658

Unit cell:
           periodic     x           y           z      points  spacing
  1. axis:    yes   16.000000    0.000000    0.000000    80     0.2000
  2. axis:    yes    0.000000   16.000000    0.000000    80     0.2000
  3. axis:    yes    0.000000    0.000000   10.000000    48     0.2083

Effective grid spacing dv^(1/3) = 0.2027

                     log10-error:    total        iterations:
           time      wfs    density  energy       fermi  poisson
iter:   1  09:22:47          +inf  -164.343696    3      5      
iter:   2  09:22:48         -1.94  -164.309705    3      2      
iter:   3  09:22:48         -2.10  -164.285465    3      2      
iter:   4  09:22:49         -2.28  -164.278238    3      2      
iter:   5  09:22:50         -2.39  -164.273113    3      2      
iter:   6  09:22:50         -2.62  -164.271357    2      2      
iter:   7  09:22:51         -2.82  -164.270187    3      2      
iter:   8  09:22:51         -3.03  -164.269874    2      2      
iter:   9  09:22:52         -3.21  -164.270625    3      1      
iter:  10  09:22:52         -3.45  -164.269866    2      1      
iter:  11  09:22:53         -3.53  -164.269476    2      1      
iter:  12  09:22:53         -3.63  -164.269566    2      1      
iter:  13  09:22:53         -3.69  -164.269148    2      1      
iter:  14  09:22:54         -3.93  -164.269126    2      1      
iter:  15  09:22:54         -4.08  -164.269723    2      1      

Converged after 15 iterations.

Dipole moment: (-0.039883, 0.442377, 0.224045) |e|*Ang

Energy contributions relative to reference atoms: (reference = -24663.074771)

Kinetic:       +122.730096
Potential:     -125.537671
External:        +0.000000
XC:            -164.132684
Entropy (-ST):   -0.374519
Local:           +2.857795
--------------------------
Free energy:   -164.456982
Extrapolated:  -164.269723

Fermi level: -4.95295

 Band  Eigenvalues  Occupancy
    0    -24.56483    2.00000
    1    -22.21987    2.00000
    2    -21.84953    2.00000
    3    -21.35894    2.00000
    4    -20.69461    2.00000
    5    -20.13119    2.00000
    6    -19.30017    2.00000
    7    -18.81502    2.00000
    8    -18.34002    2.00000
    9    -18.16510    2.00000
   10    -17.62843    2.00000
   11    -16.52680    2.00000
   12    -16.09230    2.00000
   13    -15.68114    2.00000
   14    -15.23175    2.00000
   15    -15.06655    2.00000
   16    -14.64697    2.00000
   17    -13.73521    2.00000
   18    -13.28809    2.00000
   19    -13.14744    2.00000
   20    -12.17334    2.00000
   21    -11.89290    2.00000
   22    -11.48468    2.00000
   23    -10.98871    2.00000
   24    -10.77167    2.00000
   25    -10.20042    2.00000
   26    -10.12749    2.00000
   27     -9.64637    2.00000
   28     -9.34202    2.00000
   29     -9.16097    2.00000
   30     -9.00947    2.00000
   31     -8.61051    2.00000
   32     -8.30633    2.00000
   33     -7.90366    2.00000
   34     -7.85342    2.00000
   35     -7.68171    2.00000
   36     -7.06083    2.00000
   37     -6.79572    2.00000
   38     -6.72387    2.00000
   39     -6.39163    2.00000
   40     -6.15187    1.99999
   41     -6.01682    1.99995
   42     -5.83563    1.99971
   43     -5.71791    1.99905
   44     -5.55394    1.99510
   45     -5.23544    1.88801
   46     -5.16516    1.78606
   47     -5.04738    1.43993
   48     -4.93062    0.88881
   49     -4.28187    0.00243
   50     -4.18810    0.00095
   51     -3.75284    0.00001
   52     -3.66286    0.00000
   53     -3.31570    0.00000
   54     -3.10935    0.00000
   55     -2.95642    0.00000
   56     -2.64452    0.00000
   57     -2.33738    0.00000
   58     -1.88439    0.00000
   59     -1.47953    0.00000
   60     -0.92310    0.00000
   61     -0.63596    0.00000
   62     -0.28296    0.00000
   63      0.09613    0.00000
   64      0.53862    0.00000
   65      1.30071    0.00000
   66      1.63479    0.00000
   67      2.52716    0.00000
   68      2.76246    0.00000
   69      3.22064    0.00000
   70      3.77678    0.00000
   71      4.22532    0.00000
   72      4.73861    0.00000
   73      5.21887    0.00000
   74      5.81633    0.00000
   75      6.53730    0.00000
   76      6.63426    0.00000
   77      7.05205    0.00000
   78      7.32614    0.00000
   79      7.61783    0.00000
   80      7.87214    0.00000
   81      8.20249    0.00000
   82      8.29651    0.00000
   83      8.49713    0.00000
   84      8.69329    0.00000
   85      8.80613    0.00000
   86      8.89960    0.00000
   87      9.05441    0.00000
   88      9.23415    0.00000
   89      9.44581    0.00000
   90      9.47892    0.00000
   91      9.57332    0.00000
   92      9.66069    0.00000
   93      9.67129    0.00000
   94      9.78387    0.00000
   95      9.86527    0.00000
   96     10.08678    0.00000
   97     10.23340    0.00000


Forces in eV/Ang:
  0 C     5.91863   -0.15856   -1.89031
  1 C   -11.77568    5.46998    5.94477
  2 C     1.55891   -1.76569    0.05834
  3 C     0.66693   -0.52634    0.03728
  4 C    -2.59694   -7.30672    1.51576
  5 C    -2.00830    0.04257    0.02699
  6 C    -6.85052    0.62489    0.56689
  7 C    -1.12720   -1.90620   -0.22260
  8 C     1.48710    2.74960    0.24965
  9 C     0.47458    2.68791    0.75156
 10 C     1.03784    0.20014    0.05453
 11 C     3.71424   -0.30347   -0.09385
 12 C     0.11656   -2.11447   -0.22457
 13 C    -1.50056   -1.79426   -0.02191
 14 C    -0.87045    6.03275   -0.97718
 15 C     0.19025   -1.43025    0.34806
 16 C     0.74751   -0.07790   -0.06821
 17 C    -0.78035   -0.91757    0.23732
 18 C     0.69686    0.60270   -0.39443
 19 C     0.30914   -0.15738   -0.17988
 20 C     5.19586   -5.65230   -2.75930
 21 C     4.61943    4.44471   -1.07010
 22 C    -3.36358    0.19494    0.28670
 23 C     4.06322    0.99873   -2.17986

System changes: positions 

Initializing position-dependent things.

Density initialized from wave functions
           .--------------------------------------.  
          /|                                      |  
         / |                                      |  
        /  |                                      |  
       /   |                                      |  
      /    |                                      |  
     /     |                                      |  
    /      |                                      |  
   /       |           C  C  C  C                 |  
  /        |           C         C                |  
 *         |  C C   C        C     C              |  
 |         |         C   C                        |  
 |         .---C---C-C---C-C----------------------.  
 |        /         C     C        C             /   
 |       /             C     C  C               /    
 |      /                                      /     
 |     /                                      /      
 |    /                                      /       
 |   /                                      /        
 |  /                                      /         
 | /                                      /          
 |/                                      /           
 *--------------------------------------*            

Positions:
   0 C      9.336458    3.934299    5.157963
   1 C      9.435429    5.353806    5.214419
   2 C      5.505688    8.672625    5.818430
   3 C      3.543216    7.522669    5.687761
   4 C      6.355858    9.753801    5.946253
   5 C      5.818141    6.079991    5.484301
   6 C      8.191435    3.236062    5.233311
   7 C      7.768604    7.461788    5.448949
   8 C      4.485926    5.521982    5.463896
   9 C      8.216878    6.041923    5.328394
  10 C      6.322863    7.470386    5.597748
  11 C      6.982390    3.768293    5.308990
  12 C      4.073461    8.692221    5.845936
  13 C      6.996539    5.223511    5.381077
  14 C      6.270784   10.939177    5.585218
  15 C      9.289822    9.353256    5.506102
  16 C      9.706074   11.629155    5.228884
  17 C     11.542743    9.825808    4.781706
  18 C     10.307395   10.313806    5.184784
  19 C     12.287799    6.358654    4.096235
  20 C     10.332765    4.800340    4.514463
  21 C      7.240686   11.783848    5.497916
  22 C      8.506930   12.058476    5.367544
  23 C     11.532343    5.330024    4.190926

Unit cell:
           periodic     x           y           z      points  spacing
  1. axis:    yes   16.000000    0.000000    0.000000    80     0.2000
  2. axis:    yes    0.000000   16.000000    0.000000    80     0.2000
  3. axis:    yes    0.000000    0.000000   10.000000    48     0.2083

Effective grid spacing dv^(1/3) = 0.2027

                     log10-error:    total        iterations:
           time      wfs    density  energy       fermi  poisson
iter:   1  09:22:56          +inf  -166.207240    3      5      
iter:   2  09:22:57         -1.74  -166.063253    2      2      
iter:   3  09:22:57         -1.92  -165.985063    3      2      
iter:   4  09:22:58         -2.10  -165.996179    3      2      
iter:   5  09:22:58         -2.14  -165.979493    2      2      
iter:   6  09:22:59         -2.25  -165.960979    3      2      
iter:   7  09:22:59         -2.37  -165.967620    2      2      
iter:   8  09:23:00         -2.53  -165.958366    2      2      
iter:   9  09:23:00         -2.62  -165.960942    2      2      
iter:  10  09:23:01         -3.00  -165.960609    2      2      
iter:  11  09:23:01         -3.26  -165.960899    2      1      
iter:  12  09:23:02         -3.34  -165.961439    2      1      
iter:  13  09:23:02         -3.50  -165.960977    2      1      
iter:  14  09:23:03         -3.68  -165.960914    2      1      
iter:  15  09:23:03         -3.83  -165.961124    2      1      
iter:  16  09:23:04         -3.96  -165.961208    2      1      
iter:  17  09:23:04         -4.12  -165.961169    2      1      

Converged after 17 iterations.

Dipole moment: (-0.092731, 0.419521, 0.241407) |e|*Ang

Energy contributions relative to reference atoms: (reference = -24663.074771)

Kinetic:       +117.972229
Potential:     -122.574764
External:        +0.000000
XC:            -164.055157
Entropy (-ST):   -0.364584
Local:           +2.878815
--------------------------
Free energy:   -166.143462
Extrapolated:  -165.961169

Fermi level: -4.97530

 Band  Eigenvalues  Occupancy
    0    -24.60008    2.00000
    1    -22.26204    2.00000
    2    -21.77183    2.00000
    3    -21.32856    2.00000
    4    -20.68657    2.00000
    5    -20.14154    2.00000
    6    -19.31662    2.00000
    7    -18.81159    2.00000
    8    -18.33844    2.00000
    9    -18.20286    2.00000
   10    -17.60170    2.00000
   11    -16.55783    2.00000
   12    -16.21904    2.00000
   13    -15.66446    2.00000
   14    -15.33205    2.00000
   15    -15.04129    2.00000
   16    -14.54142    2.00000
   17    -13.78495    2.00000
   18    -13.33861    2.00000
   19    -13.22372    2.00000
   20    -12.12616    2.00000
   21    -11.97295    2.00000
   22    -11.43155    2.00000
   23    -10.97174    2.00000
   24    -10.79159    2.00000
   25    -10.22467    2.00000
   26    -10.12756    2.00000
   27     -9.67998    2.00000
   28     -9.36040    2.00000
   29     -9.12226    2.00000
   30     -9.03475    2.00000
   31     -8.61852    2.00000
   32     -8.36373    2.00000
   33     -7.93257    2.00000
   34     -7.88073    2.00000
   35     -7.62354    2.00000
   36     -7.06877    2.00000
   37     -6.79114    2.00000
   38     -6.72290    2.00000
   39     -6.42370    2.00000
   40     -6.25936    1.99999
   41     -6.04773    1.99996
   42     -5.89406    1.99980
   43     -5.72959    1.99894
   44     -5.57392    1.99499
   45     -5.27007    1.90031
   46     -5.16968    1.74954
   47     -5.09600    1.53954
   48     -4.93782    0.81476
   49     -4.28443    0.00200
   50     -4.03413    0.00016
   51     -3.73871    0.00001
   52     -3.59552    0.00000
   53     -3.32021    0.00000
   54     -3.11761    0.00000
   55     -2.92806    0.00000
   56     -2.72142    0.00000
   57     -2.36122    0.00000
   58     -1.89130    0.00000
   59     -1.38646    0.00000
   60     -0.82383    0.00000
   61     -0.49701    0.00000
   62     -0.19432    0.00000
   63      0.20188    0.00000
   64      0.57925    0.00000
   65      1.23057    0.00000
   66      1.61830    0.00000
   67      2.58392    0.00000
   68      2.82992    0.00000
   69      3.35153    0.00000
   70      3.80681    0.00000
   71      4.12234    0.00000
   72      4.86426    0.00000
   73      5.32838    0.00000
   74      6.03729    0.00000
   75      6.59029    0.00000
   76      6.72326    0.00000
   77      7.04161    0.00000
   78      7.39530    0.00000
   79      7.66172    0.00000
   80      7.93315    0.00000
   81      8.29541    0.00000
   82      8.40699    0.00000
   83      8.56694    0.00000
   84      8.63100    0.00000
   85      8.80836    0.00000
   86      8.94170    0.00000
   87      9.10628    0.00000
   88      9.23014    0.00000
   89      9.31568    0.00000
   90      9.49961    0.00000
   91      9.60167    0.00000
   92      9.64193    0.00000
   93      9.70964    0.00000
   94      9.81026    0.00000
   95      9.85838    0.00000
   96     10.10627    0.00000
   97     10.17044    0.00000


Forces in eV/Ang:
  0 C     2.92933   -1.24612   -1.47308
  1 C    -8.98779    4.09634    4.20340
  2 C     0.90607   -1.73135    0.04988
  3 C     0.52412   -1.01884   -0.00418
  4 C    -2.12322   -4.10371    0.76769
  5 C    -1.21656    0.12411    0.00153
  6 C    -2.56460    0.85253    0.14394
  7 C    -1.02241   -1.34631   -0.16912
  8 C     0.85150    2.53932    0.23681
  9 C    -0.44691    1.95870    0.77770
 10 C     0.82018   -0.07693    0.00611
 11 C     2.25430    0.56055    0.06858
 12 C     0.38081   -1.77247   -0.18126
 13 C    -1.50691   -1.06088    0.05867
 14 C     0.48341    4.64590   -0.36124
 15 C     0.44612   -1.20683    0.30794
 16 C     0.61562   -0.01557   -0.08969
 17 C    -0.64126   -0.96854    0.16523
 18 C     0.26841    0.64249   -0.25973
 19 C     0.71994    0.45749   -0.21442
 20 C     5.94762   -3.89806   -2.00075
 21 C     1.35713    2.55366   -0.64896
 22 C    -1.20835    0.36819    0.07968
 23 C     1.20400   -0.45223   -1.40833

System changes: positions 

Initializing position-dependent things.

Density initialized from wave functions
           .--------------------------------------.  
          /|                                      |  
         / |                                      |  
        /  |                                      |  
       /   |                                      |  
      /    |                                      |  
     /     |                                      |  
    /      |                                      |  
   /       |           C  C  C  C                 |  
  /        |           C         C                |  
 *         |  C C   C        C     C              |  
 |         |         C   C                        |  
 |         .---C---C-C---C-C----------------------.  
 |        /         C     C        C             /   
 |       /             C     C  C               /    
 |      /                                      /     
 |     /                                      /      
 |    /                                      /       
 |   /                                      /        
 |  /                                      /         
 | /                                      /          
 |/                                      /           
 *--------------------------------------*            

Positions:
   0 C      9.357252    3.923904    5.144099
   1 C      9.397403    5.364224    5.221160
   2 C      5.509423    8.654500    5.818653
   3 C      3.547518    7.511313    5.687554
   4 C      6.339023    9.752199    5.944138
   5 C      5.809604    6.081298    5.484001
   6 C      8.178264    3.246121    5.232852
   7 C      7.758225    7.451597    5.447501
   8 C      4.492095    5.545199    5.466118
   9 C      8.206125    6.059122    5.336492
  10 C      6.330567    7.468131    5.597639
  11 C      7.001934    3.775749    5.310490
  12 C      4.078010    8.676897    5.844337
  13 C      6.980884    5.215713    5.381912
  14 C      6.279057   10.954344    5.590746
  15 C      9.294689    9.342604    5.508944
  16 C      9.707124   11.631081    5.228384
  17 C     11.537390    9.816627    4.782932
  18 C     10.308396   10.319673    5.182912
  19 C     12.297481    6.366678    4.093804
  20 C     10.349575    4.782870    4.527077
  21 C      7.241881   11.801075    5.493295
  22 C      8.509408   12.061466    5.367025
  23 C     11.538140    5.322642    4.179462

Unit cell:
           periodic     x           y           z      points  spacing
  1. axis:    yes   16.000000    0.000000    0.000000    80     0.2000
  2. axis:    yes    0.000000   16.000000    0.000000    80     0.2000
  3. axis:    yes    0.000000    0.000000   10.000000    48     0.2083

Effective grid spacing dv^(1/3) = 0.2027

                     log10-error:    total        iterations:
           time      wfs    density  energy       fermi  poisson
iter:   1  09:23:06          +inf  -167.209035    3      5      
iter:   2  09:23:06         -1.81  -167.076436    3      2      
iter:   3  09:23:07         -2.02  -167.006117    3      2      
iter:   4  09:23:07         -2.20  -167.006137    3      1      
iter:   5  09:23:08         -2.30  -167.005572    3      2      
iter:   6  09:23:09         -2.44  -166.996363    3      2      
iter:   7  09:23:09         -2.61  -166.998498    2      2      
iter:   8  09:23:10         -2.77  -166.998853    3      2      
iter:   9  09:23:10         -2.94  -166.997658    3      2      
iter:  10  09:23:11         -3.22  -166.997836    2      1      
iter:  11  09:23:11         -3.31  -166.998407    2      1      
iter:  12  09:23:12         -3.52  -166.997834    2      1      
iter:  13  09:23:12         -3.61  -166.997727    2      1      
iter:  14  09:23:12         -3.82  -166.998076    2      1      
iter:  15  09:23:13         -3.93  -166.998127    2      1      
iter:  16  09:23:13         -4.11  -166.998061    2      1      

Converged after 16 iterations.

Dipole moment: (-0.114275, 0.413709, 0.240814) |e|*Ang

Energy contributions relative to reference atoms: (reference = -24663.074771)

Kinetic:       +116.363806
Potential:     -121.805305
External:        +0.000000
XC:            -164.258634
Entropy (-ST):   -0.360294
Local:           +2.882218
--------------------------
Free energy:   -167.178208
Extrapolated:  -166.998061

Fermi level: -4.98242

 Band  Eigenvalues  Occupancy
    0    -24.32765    2.00000
    1    -22.32315    2.00000
    2    -21.72852    2.00000
    3    -21.29623    2.00000
    4    -20.70021    2.00000
    5    -20.18085    2.00000
    6    -19.32147    2.00000
    7    -18.89098    2.00000
    8    -18.32753    2.00000
    9    -18.25760    2.00000
   10    -17.62625    2.00000
   11    -16.56250    2.00000
   12    -16.27399    2.00000
   13    -15.62265    2.00000
   14    -15.34645    2.00000
   15    -15.08415    2.00000
   16    -14.51295    2.00000
   17    -13.86016    2.00000
   18    -13.38906    2.00000
   19    -13.27866    2.00000
   20    -12.07227    2.00000
   21    -12.03259    2.00000
   22    -11.27126    2.00000
   23    -11.09468    2.00000
   24    -10.68657    2.00000
   25    -10.28394    2.00000
   26    -10.11678    2.00000
   27     -9.69086    2.00000
   28     -9.37249    2.00000
   29     -9.10207    2.00000
   30     -9.04694    2.00000
   31     -8.63707    2.00000
   32     -8.39858    2.00000
   33     -7.98513    2.00000
   34     -7.91686    2.00000
   35     -7.59610    2.00000
   36     -7.09329    2.00000
   37     -6.78569    2.00000
   38     -6.71996    2.00000
   39     -6.45729    2.00000
   40     -6.29837    2.00000
   41     -6.07900    1.99997
   42     -5.90658    1.99981
   43     -5.72089    1.99876
   44     -5.56474    1.99410
   45     -5.26894    1.89219
   46     -5.18580    1.76859
   47     -5.10775    1.55572
   48     -4.93965    0.78934
   49     -4.26120    0.00147
   50     -3.91529    0.00005
   51     -3.73021    0.00001
   52     -3.50068    0.00000
   53     -3.29611    0.00000
   54     -3.09970    0.00000
   55     -2.92578    0.00000
   56     -2.65887    0.00000
   57     -2.28476    0.00000
   58     -1.89446    0.00000
   59     -1.34680    0.00000
   60     -0.79722    0.00000
   61     -0.40309    0.00000
   62     -0.08029    0.00000
   63      0.10985    0.00000
   64      0.59845    0.00000
   65      1.24859    0.00000
   66      1.62950    0.00000
   67      2.60160    0.00000
   68      2.87973    0.00000
   69      3.44983    0.00000
   70      3.87288    0.00000
   71      4.03762    0.00000
   72      4.99694    0.00000
   73      5.37428    0.00000
   74      6.31038    0.00000
   75      6.59940    0.00000
   76      6.75582    0.00000
   77      7.07891    0.00000
   78      7.42384    0.00000
   79      7.63434    0.00000
   80      7.98687    0.00000
   81      8.28734    0.00000
   82      8.41632    0.00000
   83      8.52510    0.00000
   84      8.74417    0.00000
   85      8.87051    0.00000
   86      9.00465    0.00000
   87      9.16546    0.00000
   88      9.25574    0.00000
   89      9.26973    0.00000
   90      9.52124    0.00000
   91      9.62055    0.00000
   92      9.64644    0.00000
   93      9.72037    0.00000
   94      9.80762    0.00000
   95      9.88518    0.00000
   96     10.10876    0.00000
   97     10.17644    0.00000


Forces in eV/Ang:
  0 C     1.86442   -0.69973   -1.05457
  1 C    -5.50153    1.85947    2.15619
  2 C     0.81503   -1.06083    0.06895
  3 C     0.52188   -1.24476   -0.02319
  4 C    -2.05298   -3.03472    0.43761
  5 C    -0.67381    0.23856   -0.00034
  6 C    -0.52864    0.29826   -0.14176
  7 C    -0.83882   -0.76208   -0.12729
  8 C     0.18599    2.32816    0.21833
  9 C    -0.87241    1.14190    0.66856
 10 C     0.52943   -0.19913    0.00089
 11 C     0.83324    1.05885    0.18503
 12 C     0.34548   -1.68027   -0.15003
 13 C    -1.37452   -0.67889    0.12334
 14 C     0.30113    3.29526   -0.01667
 15 C     0.70028   -1.01446    0.22753
 16 C     0.58823   -0.00753   -0.09955
 17 C    -0.66326   -0.99157    0.17809
 18 C     0.09785    0.50322   -0.18538
 19 C     0.23070   -0.21037   -0.16311
 20 C     3.73827   -2.21805   -0.42542
 21 C     1.26544    2.46483   -0.61623
 22 C    -1.01079    0.41556    0.06758
 23 C     1.48623    0.16508   -1.26155

System changes: positions 

Initializing position-dependent things.

Density initialized from wave functions
           .--------------------------------------.  
          /|                                      |  
         / |                                      |  
        /  |                                      |  
       /   |                                      |  
      /    |                                      |  
     /     |                                      |  
    /      |                                      |  
   /       |           C  C  C  C                 |  
  /        |          C          C                |  
 *         |  C C   C         C    C              |  
 |         |         C   C                        |  
 |         .---C---C-C---C-C----------------------.  
 |        /         C     C        C             /   
 |       /             C     C  C               /    
 |      /                                      /     
 |     /                                      /      
 |    /                                      /       
 |   /                                      /        
 |  /                                      /         
 | /                                      /          
 |/                                      /           
 *--------------------------------------*            

Positions:
   0 C      9.379694    3.914325    5.127542
   1 C      9.357426    5.365094    5.222196
   2 C      5.517588    8.636139    5.819511
   3 C      3.555173    7.489728    5.687012
   4 C      6.309588    9.740986    5.941739
   5 C      5.802011    6.085267    5.483684
   6 C      8.181545    3.252637    5.228697
   7 C      7.744248    7.442192    5.445640
   8 C      4.492953    5.581374    5.469567
   9 C      8.185655    6.075683    5.347821
  10 C      6.338831    7.463411    5.597486
  11 C      7.012916    3.794905    5.314316
  12 C      4.084430    8.651619    5.842075
  13 C      6.957681    5.207259    5.384173
  14 C      6.287442   10.977931    5.599421
  15 C      9.306563    9.327285    5.512465
  16 C      9.711771   11.633006    5.227139
  17 C     11.527532    9.800823    4.785437
  18 C     10.308372   10.327424    5.180565
  19 C     12.303811    6.366741    4.090830
  20 C     10.369418    4.767307    4.551944
  21 C      7.250480   11.833416    5.485002
  22 C      8.507119   12.067611    5.366841
  23 C     11.556349    5.322415    4.161281

Unit cell:
           periodic     x           y           z      points  spacing
  1. axis:    yes   16.000000    0.000000    0.000000    80     0.2000
  2. axis:    yes    0.000000   16.000000    0.000000    80     0.2000
  3. axis:    yes    0.000000    0.000000   10.000000    48     0.2083

Effective grid spacing dv^(1/3) = 0.2027

                     log10-error:    total        iterations:
           time      wfs    density  energy       fermi  poisson
iter:   1  09:23:15          +inf  -168.131513    3      5      
iter:   2  09:23:16         -1.74  -167.971842    3      2      
iter:   3  09:23:16         -2.00  -167.925463    3      2      
iter:   4  09:23:17         -2.18  -167.909452    3      2      
iter:   5  09:23:17         -2.34  -167.905167    2      2      
iter:   6  09:23:18         -2.41  -167.900965    2      2      
iter:   7  09:23:18         -2.59  -167.900449    3      2      
iter:   8  09:23:19         -2.80  -167.900274    3      2      
iter:   9  09:23:19         -2.97  -167.898469    2      1      
iter:  10  09:23:20         -3.09  -167.900101    2      2      
iter:  11  09:23:20         -3.34  -167.899611    2      1      
iter:  12  09:23:21         -3.50  -167.899307    2      1      
iter:  13  09:23:21         -3.61  -167.900455    2      1      
iter:  14  09:23:22         -3.73  -167.900807    2      1      
iter:  15  09:23:22         -3.86  -167.900682    2      1      
iter:  16  09:23:23         -4.06  -167.900371    2      1      

Converged after 16 iterations.

Dipole moment: (-0.141416, 0.396112, 0.244698) |e|*Ang

Energy contributions relative to reference atoms: (reference = -24663.074771)

Kinetic:       +115.161807
Potential:     -121.144539
External:        +0.000000
XC:            -164.629506
Entropy (-ST):   -0.352505
Local:           +2.888119
--------------------------
Free energy:   -168.076624
Extrapolated:  -167.900371

Fermi level: -4.99994

 Band  Eigenvalues  Occupancy
    0    -24.17697    2.00000
    1    -22.43911    2.00000
    2    -21.65890    2.00000
    3    -21.27800    2.00000
    4    -20.66816    2.00000
    5    -20.20595    2.00000
    6    -19.32009    2.00000
    7    -18.93843    2.00000
    8    -18.33478    2.00000
    9    -18.29106    2.00000
   10    -17.66907    2.00000
   11    -16.62919    2.00000
   12    -16.36137    2.00000
   13    -15.56651    2.00000
   14    -15.31894    2.00000
   15    -15.13698    2.00000
   16    -14.47678    2.00000
   17    -13.92988    2.00000
   18    -13.44918    2.00000
   19    -13.32578    2.00000
   20    -12.15381    2.00000
   21    -12.02846    2.00000
   22    -11.23548    2.00000
   23    -11.15574    2.00000
   24    -10.62929    2.00000
   25    -10.37050    2.00000
   26    -10.09998    2.00000
   27     -9.71075    2.00000
   28     -9.36232    2.00000
   29     -9.08037    2.00000
   30     -9.06016    2.00000
   31     -8.67578    2.00000
   32     -8.41821    2.00000
   33     -8.10166    2.00000
   34     -7.92758    2.00000
   35     -7.52214    2.00000
   36     -7.11534    2.00000
   37     -6.75888    2.00000
   38     -6.69459    2.00000
   39     -6.46411    2.00000
   40     -6.31109    2.00000
   41     -6.11118    1.99997
   42     -5.92992    1.99982
   43     -5.74162    1.99880
   44     -5.54034    1.99104
   45     -5.30321    1.90806
   46     -5.20165    1.76516
   47     -5.13304    1.58202
   48     -4.94975    0.75420
   49     -4.22966    0.00090
   50     -3.87939    0.00003
   51     -3.74986    0.00001
   52     -3.45703    0.00000
   53     -3.27232    0.00000
   54     -3.05492    0.00000
   55     -2.94096    0.00000
   56     -2.53289    0.00000
   57     -2.20246    0.00000
   58     -1.88405    0.00000
   59     -1.27455    0.00000
   60     -0.77853    0.00000
   61     -0.32929    0.00000
   62      0.07125    0.00000
   63      0.18611    0.00000
   64      0.63318    0.00000
   65      1.24448    0.00000
   66      1.65378    0.00000
   67      2.65501    0.00000
   68      2.94577    0.00000
   69      3.49764    0.00000
   70      3.94076    0.00000
   71      4.02971    0.00000
   72      5.05676    0.00000
   73      5.41774    0.00000
   74      6.47475    0.00000
   75      6.64146    0.00000
   76      6.67561    0.00000
   77      7.22406    0.00000
   78      7.47480    0.00000
   79      7.63543    0.00000
   80      8.07193    0.00000
   81      8.28693    0.00000
   82      8.44377    0.00000
   83      8.54051    0.00000
   84      8.80864    0.00000
   85      8.94813    0.00000
   86      9.06374    0.00000
   87      9.16437    0.00000
   88      9.25912    0.00000
   89      9.32724    0.00000
   90      9.51748    0.00000
   91      9.62000    0.00000
   92      9.67438    0.00000
   93      9.74667    0.00000
   94      9.84285    0.00000
   95      9.94078    0.00000
   96     10.12102    0.00000
   97     10.19121    0.00000


Forces in eV/Ang:
  0 C     0.80578   -0.52883   -0.61790
  1 C    -3.03750    0.79093    0.90990
  2 C     0.19189   -0.80096    0.02411
  3 C     0.62136   -1.50816   -0.04968
  4 C    -1.42121   -0.12552   -0.17040
  5 C    -0.35052    0.35651    0.01471
  6 C    -0.24709    0.20036   -0.22809
  7 C    -0.47324   -0.19741   -0.09489
  8 C    -0.60950    2.23654    0.21908
  9 C    -0.63099    0.08927    0.43706
 10 C     0.14802   -0.20192    0.02515
 11 C     0.82542    0.45360    0.14497
 12 C     0.25801   -1.65503   -0.13700
 13 C    -1.07249   -0.11233    0.17845
 14 C     0.47208    1.21752    0.53370
 15 C     0.93915   -0.80848    0.10505
 16 C     0.07312    0.25719   -0.05885
 17 C    -0.67150   -1.04883    0.20429
 18 C    -0.04628    0.35116   -0.08974
 19 C     0.47621    0.14885   -0.19844
 20 C     2.97354   -0.60746    0.09710
 21 C    -0.20513    1.59487   -0.34206
 22 C     0.52821    0.41614   -0.09002
 23 C     0.38481   -0.52932   -0.77787

System changes: positions 

Initializing position-dependent things.

Density initialized from wave functions
           .--------------------------------------.  
          /|                                      |  
         / |                                      |  
        /  |                                      |  
       /   |                                      |  
      /    |                                      |  
     /     |                                      |  
    /      |                                      |  
   /       |           C  C  C  C                 |  
  /        |          C          C                |  
 *         |    C   C         C    C              |  
 |         |  C      C  C                         |  
 |         .---C---C-C---C-C----------------------.  
 |        /          C    C        C             /   
 |       /             C     C   C              /    
 |      /                                      /     
 |     /                                      /      
 |    /                                      /       
 |   /                                      /        
 |  /                                      /         
 | /                                      /          
 |/                                      /           
 *--------------------------------------*            

Positions:
   0 C      9.397657    3.907030    5.114387
   1 C      9.322080    5.365655    5.223256
   2 C      5.521649    8.620169    5.820016
   3 C      3.565281    7.464064    5.686206
   4 C      6.283200    9.745422    5.936348
   5 C      5.795596    6.090969    5.483691
   6 C      8.178957    3.257217    5.224292
   7 C      7.733698    7.437309    5.443882
   8 C      4.485373    5.620464    5.473379
   9 C      8.170040    6.081961    5.356975
  10 C      6.343349    7.459169    5.597755
  11 C      7.027069    3.806478    5.317478
  12 C      4.089615    8.623166    5.839660
  13 C      6.936639    5.203264    5.387140
  14 C      6.295327   10.991350    5.611344
  15 C      9.322046    9.312496    5.514854
  16 C      9.712614   11.637470    5.226161
  17 C     11.516119    9.782838    4.788757
  18 C     10.307710   10.334014    5.178784
  19 C     12.311881    6.368666    4.087361
  20 C     10.396400    4.760425    4.572046
  21 C      7.250823   11.863473    5.478131
  22 C      8.515134   12.074351    5.365482
  23 C     11.568892    5.316987    4.145600

Unit cell:
           periodic     x           y           z      points  spacing
  1. axis:    yes   16.000000    0.000000    0.000000    80     0.2000
  2. axis:    yes    0.000000   16.000000    0.000000    80     0.2000
  3. axis:    yes    0.000000    0.000000   10.000000    48     0.2083

Effective grid spacing dv^(1/3) = 0.2027

                     log10-error:    total        iterations:
           time      wfs    density  energy       fermi  poisson
iter:   1  09:23:24          +inf  -168.741509    3      5      
iter:   2  09:23:25         -1.76  -168.563952    3      2      
iter:   3  09:23:25         -2.07  -168.529596    3      2      
iter:   4  09:23:26         -2.21  -168.514867    3      2      
iter:   5  09:23:27         -2.38  -168.509680    3      2      
iter:   6  09:23:27         -2.49  -168.507053    3      2      
iter:   7  09:23:28         -2.67  -168.506091    3      2      
iter:   8  09:23:28         -2.93  -168.506524    3      2      
iter:   9  09:23:29         -3.09  -168.504176    2      1      
iter:  10  09:23:29         -3.28  -168.504823    2      1      
iter:  11  09:23:30         -3.43  -168.506314    2      1      
iter:  12  09:23:30         -3.55  -168.506524    2      1      
iter:  13  09:23:31         -3.71  -168.507053    2      1      
iter:  14  09:23:31         -3.80  -168.506789    2      1      
iter:  15  09:23:32         -3.88  -168.506297    2      1      
iter:  16  09:23:32         -4.05  -168.506233    2      1      

Converged after 16 iterations.

Dipole moment: (-0.200344, 0.407014, 0.249705) |e|*Ang

Energy contributions relative to reference atoms: (reference = -24663.074771)

Kinetic:       +114.599933
Potential:     -120.819312
External:        +0.000000
XC:            -165.013118
Entropy (-ST):   -0.338955
Local:           +2.895741
--------------------------
Free energy:   -168.675711
Extrapolated:  -168.506233

Fermi level: -4.99555

 Band  Eigenvalues  Occupancy
    0    -23.93683    2.00000
    1    -22.50408    2.00000
    2    -21.61056    2.00000
    3    -21.26284    2.00000
    4    -20.63474    2.00000
    5    -20.20391    2.00000
    6    -19.36666    2.00000
    7    -18.96406    2.00000
    8    -18.38646    2.00000
    9    -18.29266    2.00000
   10    -17.69595    2.00000
   11    -16.64965    2.00000
   12    -16.39960    2.00000
   13    -15.50843    2.00000
   14    -15.26294    2.00000
   15    -15.15362    2.00000
   16    -14.45894    2.00000
   17    -13.99105    2.00000
   18    -13.50460    2.00000
   19    -13.36763    2.00000
   20    -12.24224    2.00000
   21    -11.98962    2.00000
   22    -11.29825    2.00000
   23    -11.04145    2.00000
   24    -10.57416    2.00000
   25    -10.42971    2.00000
   26    -10.09190    2.00000
   27     -9.70274    2.00000
   28     -9.34859    2.00000
   29     -9.07195    2.00000
   30     -9.04330    2.00000
   31     -8.70953    2.00000
   32     -8.41298    2.00000
   33     -8.20848    2.00000
   34     -7.92500    2.00000
   35     -7.49220    2.00000
   36     -7.16433    2.00000
   37     -6.75997    2.00000
   38     -6.66624    2.00000
   39     -6.45970    2.00000
   40     -6.34898    2.00000
   41     -6.14894    1.99998
   42     -5.92568    1.99982
   43     -5.74350    1.99887
   44     -5.51294    1.98874
   45     -5.31604    1.92204
   46     -5.20520    1.78113
   47     -5.13706    1.60915
   48     -4.93357    0.69969
   49     -4.17686    0.00056
   50     -3.85266    0.00002
   51     -3.75706    0.00001
   52     -3.38935    0.00000
   53     -3.22351    0.00000
   54     -2.97958    0.00000
   55     -2.92937    0.00000
   56     -2.43030    0.00000
   57     -2.06522    0.00000
   58     -1.84521    0.00000
   59     -1.27559    0.00000
   60     -0.75871    0.00000
   61     -0.26195    0.00000
   62      0.00698    0.00000
   63      0.46165    0.00000
   64      0.65138    0.00000
   65      1.28098    0.00000
   66      1.67354    0.00000
   67      2.65989    0.00000
   68      2.99131    0.00000
   69      3.57392    0.00000
   70      3.95127    0.00000
   71      4.07165    0.00000
   72      5.03394    0.00000
   73      5.43855    0.00000
   74      6.36537    0.00000
   75      6.58703    0.00000
   76      6.84138    0.00000
   77      7.28703    0.00000
   78      7.49648    0.00000
   79      7.72733    0.00000
   80      8.04290    0.00000
   81      8.27496    0.00000
   82      8.48681    0.00000
   83      8.55899    0.00000
   84      8.86231    0.00000
   85      9.01689    0.00000
   86      9.09608    0.00000
   87      9.15584    0.00000
   88      9.27198    0.00000
   89      9.34174    0.00000
   90      9.51487    0.00000
   91      9.62276    0.00000
   92      9.68620    0.00000
   93      9.74147    0.00000
   94      9.88536    0.00000
   95     10.02937    0.00000
   96     10.12901    0.00000
   97     10.21209    0.00000


Forces in eV/Ang:
  0 C     0.04587   -0.18874   -0.32342
  1 C    -0.66644   -0.38416    0.00773
  2 C     0.08221   -0.20236    0.03055
  3 C     0.78707   -1.86212   -0.09727
  4 C    -1.20634    0.32941   -0.27481
  5 C    -0.24854    0.34536    0.02630
  6 C     0.72566   -0.08147   -0.36005
  7 C    -0.18222    0.08369   -0.10428
  8 C    -1.18018    2.27164    0.23570
  9 C    -0.77221   -0.35661    0.33721
 10 C    -0.08356   -0.02888    0.06439
 11 C     0.12087    0.39084    0.15551
 12 C     0.14003   -1.58390   -0.13765
 13 C    -0.76535    0.13596    0.21083
 14 C     0.70650    0.99394    0.54521
 15 C     1.12266   -0.68423   -0.01563
 16 C     0.34693    0.13287   -0.09530
 17 C    -0.72071   -1.10342    0.21515
 18 C    -0.16328    0.32929   -0.02162
 19 C     0.43058    0.06112   -0.21478
 20 C     1.54836    0.23702    0.66226
 21 C    -0.45437    1.10699   -0.20758
 22 C     0.09436    0.48898   -0.04759
 23 C     0.30023   -0.45324   -0.53392

System changes: positions 

Initializing position-dependent things.

Density initialized from wave functions
           .--------------------------------------.  
          /|                                      |  
         / |                                      |  
        /  |                                      |  
       /   |                                      |  
      /    |                                      |  
     /     |                                      |  
    /      |                                      |  
   /       |           C  C  C  C                 |  
  /        |          C          C                |  
 *         |    C   C         C    C              |  
 |         |  C      C  C                         |  
 |         .---C---C-C---C-C----------------------.  
 |        /          C    C        C             /   
 |       /             C     C   C              /    
 |      /                                      /     
 |     /                                      /      
 |    /                                      /       
 |   /                                      /        
 |  /                                      /         
 | /                                      /          
 |/                                      /           
 *--------------------------------------*            

Positions:
   0 C      9.409344    3.902835    5.104576
   1 C      9.300624    5.362091    5.223562
   2 C      5.525059    8.610790    5.820550
   3 C      3.576836    7.436557    5.684987
   4 C      6.260110    9.747272    5.932114
   5 C      5.789254    6.096103    5.483895
   6 C      8.181056    3.259012    5.219522
   7 C      7.726850    7.434525    5.442032
   8 C      4.473134    5.658352    5.477205
   9 C      8.155924    6.084182    5.364479
  10 C      6.345439    7.457516    5.598489
  11 C      7.035848    3.815047    5.320190
  12 C      4.093062    8.596512    5.837294
  13 C      6.920206    5.201342    5.390162
  14 C      6.304849   11.008091    5.620813
  15 C      9.338253    9.299448    5.515905
  16 C      9.716948   11.640140    5.224826
  17 C     11.504659    9.765222    4.792085
  18 C     10.306367   10.340193    5.177635
  19 C     12.319428    6.370132    4.083870
  20 C     10.417117    4.757337    4.588927
  21 C      7.250285   11.887875    5.472838
  22 C      8.515902   12.081505    5.364828
  23 C     11.580119    5.311951    4.132962

Unit cell:
           periodic     x           y           z      points  spacing
  1. axis:    yes   16.000000    0.000000    0.000000    80     0.2000
  2. axis:    yes    0.000000   16.000000    0.000000    80     0.2000
  3. axis:    yes    0.000000    0.000000   10.000000    48     0.2083

Effective grid spacing dv^(1/3) = 0.2027

                     log10-error:    total        iterations:
           time      wfs    density  energy       fermi  poisson
iter:   1  09:23:34          +inf  -169.166381    3      5      
iter:   2  09:23:34         -1.78  -168.994057    3      2      
iter:   3  09:23:35         -2.18  -168.974874    3      2      
iter:   4  09:23:35         -2.30  -168.961104    3      2      
iter:   5  09:23:36         -2.49  -168.957958    3      2      
iter:   6  09:23:36         -2.59  -168.955987    2      2      
iter:   7  09:23:37         -2.77  -168.954844    3      2      
iter:   8  09:23:37         -3.10  -168.954390    2      1      
iter:   9  09:23:38         -3.20  -168.953918    2      1      
iter:  10  09:23:38         -3.35  -168.953880    2      1      
iter:  11  09:23:39         -3.51  -168.954589    2      1      
iter:  12  09:23:39         -3.66  -168.955262    2      1      
iter:  13  09:23:40         -3.76  -168.955236    2      1      
iter:  14  09:23:40         -3.88  -168.955209    2      1      
iter:  15  09:23:41         -4.01  -168.955409    2      1      

Converged after 15 iterations.

Dipole moment: (-0.265831, 0.410462, 0.255897) |e|*Ang

Energy contributions relative to reference atoms: (reference = -24663.074771)

Kinetic:       +113.121574
Potential:     -119.676327
External:        +0.000000
XC:            -165.136265
Entropy (-ST):   -0.320322
Local:           +2.895770
--------------------------
Free energy:   -169.115571
Extrapolated:  -168.955409

Fermi level: -4.98715

 Band  Eigenvalues  Occupancy
    0    -23.79545    2.00000
    1    -22.54238    2.00000
    2    -21.56937    2.00000
    3    -21.25202    2.00000
    4    -20.61005    2.00000
    5    -20.19170    2.00000
    6    -19.38685    2.00000
    7    -18.94148    2.00000
    8    -18.41046    2.00000
    9    -18.28548    2.00000
   10    -17.70722    2.00000
   11    -16.66711    2.00000
   12    -16.41333    2.00000
   13    -15.46674    2.00000
   14    -15.21165    2.00000
   15    -15.14465    2.00000
   16    -14.44376    2.00000
   17    -14.02284    2.00000
   18    -13.53613    2.00000
   19    -13.39199    2.00000
   20    -12.31011    2.00000
   21    -11.97776    2.00000
   22    -11.33076    2.00000
   23    -10.96853    2.00000
   24    -10.53812    2.00000
   25    -10.45941    2.00000
   26    -10.08229    2.00000
   27     -9.68636    2.00000
   28     -9.33034    2.00000
   29     -9.11011    2.00000
   30     -9.02337    2.00000
   31     -8.77404    2.00000
   32     -8.40583    2.00000
   33     -8.27733    2.00000
   34     -7.91022    2.00000
   35     -7.44413    2.00000
   36     -7.18915    2.00000
   37     -6.73823    2.00000
   38     -6.62801    2.00000
   39     -6.45619    2.00000
   40     -6.37473    2.00000
   41     -6.17126    1.99999
   42     -5.91644    1.99982
   43     -5.73947    1.99892
   44     -5.47943    1.98555
   45     -5.33569    1.94054
   46     -5.20469    1.79605
   47     -5.14172    1.64859
   48     -4.90949    0.63014
   49     -4.12926    0.00038
   50     -3.84953    0.00002
   51     -3.75872    0.00001
   52     -3.37286    0.00000
   53     -3.18750    0.00000
   54     -2.95655    0.00000
   55     -2.82170    0.00000
   56     -2.36181    0.00000
   57     -1.97550    0.00000
   58     -1.83364    0.00000
   59     -1.25099    0.00000
   60     -0.74646    0.00000
   61     -0.22463    0.00000
   62     -0.04869    0.00000
   63      0.64325    0.00000
   64      0.81213    0.00000
   65      1.30223    0.00000
   66      1.69101    0.00000
   67      2.63104    0.00000
   68      3.02202    0.00000
   69      3.62939    0.00000
   70      3.97504    0.00000
   71      4.12472    0.00000
   72      4.95780    0.00000
   73      5.42753    0.00000
   74      6.30096    0.00000
   75      6.54728    0.00000
   76      6.95348    0.00000
   77      7.32444    0.00000
   78      7.46103    0.00000
   79      7.80547    0.00000
   80      7.99608    0.00000
   81      8.30407    0.00000
   82      8.53238    0.00000
   83      8.57654    0.00000
   84      8.88622    0.00000
   85      9.05584    0.00000
   86      9.09597    0.00000
   87      9.16966    0.00000
   88      9.29425    0.00000
   89      9.33092    0.00000
   90      9.53012    0.00000
   91      9.62764    0.00000
   92      9.69281    0.00000
   93      9.75481    0.00000
   94      9.92150    0.00000
   95     10.07227    0.00000
   96     10.14802    0.00000
   97     10.23767    0.00000


Forces in eV/Ang:
  0 C    -0.36180   -0.00106   -0.15820
  1 C     0.49966   -0.78295   -0.38318
  2 C    -0.13937    0.12978    0.04035
  3 C     1.00600   -2.14061   -0.13487
  4 C    -0.90915    1.36787   -0.45269
  5 C    -0.24610    0.29603    0.02886
  6 C     0.95890   -0.14015   -0.39445
  7 C    -0.02555    0.19758   -0.10371
  8 C    -1.56639    2.46286    0.27321
  9 C    -0.58285   -0.68690    0.21376
 10 C    -0.16127    0.08072    0.08217
 11 C    -0.09559    0.18671    0.14896
 12 C    -0.05314   -1.65066   -0.12241
 13 C    -0.53941    0.25997    0.22670
 14 C     0.48078    0.03958    0.69048
 15 C     1.23370   -0.59639   -0.10505
 16 C    -0.10071    0.35737   -0.04003
 17 C    -0.78122   -1.17308    0.24617
 18 C    -0.14340    0.25426    0.00718
 19 C     0.37519   -0.03052   -0.22297
 20 C     0.82539    0.67906    0.79075
 21 C    -0.60712    0.89351   -0.14559
 22 C     0.62776    0.39241   -0.11135
 23 C     0.22890   -0.37696   -0.34466

System changes: positions 

Initializing position-dependent things.

Density initialized from wave functions
           .--------------------------------------.  
          /|                                      |  
         / |                                      |  
        /  |                                      |  
       /   |                                      |  
      /    |                                      |  
     /     |                                      |  
    /      |                                      |  
   /       |           C  C  C  C                 |  
  /        |          C          C                |  
 *         |    C   C         C    C              |  
 |         |  C      C  C                         |  
 |         .---C---C-C---C-C----------------------.  
 |        /          C    C        C             /   
 |       /             C     C   C              /    
 |      /                                      /     
 |     /                                      /      
 |    /                                      /       
 |   /                                      /        
 |  /                                      /         
 | /                                      /          
 |/                                      /           
 *--------------------------------------*            

Positions:
   0 C      9.418063    3.900214    5.096597
   1 C      9.283943    5.359422    5.225068
   2 C      5.527041    8.604930    5.821180
   3 C      3.589618    7.408789    5.683544
   4 C      6.240671    9.752843    5.927934
   5 C      5.782732    6.100318    5.484133
   6 C      8.183206    3.260175    5.215095
   7 C      7.721736    7.432236    5.440272
   8 C      4.459017    5.695574    5.481118
   9 C      8.145240    6.084146    5.370401
  10 C      6.346969    7.457174    5.599341
  11 C      7.042684    3.821077    5.322549
  12 C      4.094453    8.570893    5.835206
  13 C      6.906932    5.200050    5.393042
  14 C      6.311203   11.019379    5.629639
  15 C      9.354084    9.287865    5.516160
  16 C      9.717594   11.644355    5.224042
  17 C     11.493376    9.748226    4.795487
  18 C     10.305593   10.345395    5.176695
  19 C     12.325671    6.370297    4.080590
  20 C     10.435136    4.755104    4.601670
  21 C      7.250348   11.909825    5.468170
  22 C      8.519305   12.087304    5.363841
  23 C     11.590928    5.308428    4.122455

Unit cell:
           periodic     x           y           z      points  spacing
  1. axis:    yes   16.000000    0.000000    0.000000    80     0.2000
  2. axis:    yes    0.000000   16.000000    0.000000    80     0.2000
  3. axis:    yes    0.000000    0.000000   10.000000    48     0.2083

Effective grid spacing dv^(1/3) = 0.2027

                     log10-error:    total        iterations:
           time      wfs    density  energy       fermi  poisson
iter:   1  09:23:43          +inf  -169.564418    4      5      
iter:   2  09:23:43         -1.78  -169.386299    3      2      
iter:   3  09:23:44         -2.23  -169.371830    3      2      
iter:   4  09:23:44         -2.34  -169.356404    3      2      
iter:   5  09:23:45         -2.54  -169.353294    3      2      
iter:   6  09:23:45         -2.71  -169.352614    2      2      
iter:   7  09:23:46         -2.81  -169.351207    3      2      
iter:   8  09:23:46         -3.16  -169.350765    2      1      
iter:   9  09:23:47         -3.26  -169.350367    2      1      
iter:  10  09:23:47         -3.45  -169.350880    2      1      
iter:  11  09:23:48         -3.57  -169.350907    2      1      
iter:  12  09:23:48         -3.73  -169.351530    2      1      
iter:  13  09:23:49         -3.81  -169.351807    2      1      
iter:  14  09:23:49         -3.91  -169.351461    2      1      
iter:  15  09:23:50         -4.08  -169.351797    2      1      

Converged after 15 iterations.

Dipole moment: (-0.349429, 0.420302, 0.263918) |e|*Ang

Energy contributions relative to reference atoms: (reference = -24663.074771)

Kinetic:       +111.625335
Potential:     -118.482428
External:        +0.000000
XC:            -165.245089
Entropy (-ST):   -0.298846
Local:           +2.899808
--------------------------
Free energy:   -169.501220
Extrapolated:  -169.351797

Fermi level: -4.96828

 Band  Eigenvalues  Occupancy
    0    -23.66289    2.00000
    1    -22.55298    2.00000
    2    -21.53460    2.00000
    3    -21.23902    2.00000
    4    -20.58066    2.00000
    5    -20.16688    2.00000
    6    -19.42042    2.00000
    7    -18.92565    2.00000
    8    -18.43459    2.00000
    9    -18.27277    2.00000
   10    -17.71372    2.00000
   11    -16.68763    2.00000
   12    -16.42193    2.00000
   13    -15.42906    2.00000
   14    -15.20048    2.00000
   15    -15.06656    2.00000
   16    -14.42530    2.00000
   17    -14.03641    2.00000
   18    -13.55546    2.00000
   19    -13.40869    2.00000
   20    -12.36033    2.00000
   21    -11.98012    2.00000
   22    -11.35162    2.00000
   23    -10.90260    2.00000
   24    -10.51774    2.00000
   25    -10.45181    2.00000
   26    -10.06798    2.00000
   27     -9.66544    2.00000
   28     -9.32107    2.00000
   29     -9.23013    2.00000
   30     -8.99727    2.00000
   31     -8.80355    2.00000
   32     -8.38669    2.00000
   33     -8.29302    2.00000
   34     -7.89015    2.00000
   35     -7.41331    2.00000
   36     -7.22096    2.00000
   37     -6.73004    2.00000
   38     -6.60698    2.00000
   39     -6.49738    2.00000
   40     -6.36090    2.00000
   41     -6.19711    1.99999
   42     -5.90258    1.99982
   43     -5.72271    1.99894
   44     -5.44385    1.98294
   45     -5.35066    1.95724
   46     -5.19354    1.80975
   47     -5.13915    1.69333
   48     -4.87325    0.55764
   49     -4.08821    0.00030
   50     -3.84999    0.00003
   51     -3.75390    0.00001
   52     -3.38114    0.00000
   53     -3.14788    0.00000
   54     -2.94199    0.00000
   55     -2.68664    0.00000
   56     -2.30738    0.00000
   57     -1.88754    0.00000
   58     -1.79696    0.00000
   59     -1.24241    0.00000
   60     -0.72576    0.00000
   61     -0.19332    0.00000
   62     -0.07845    0.00000
   63      0.63039    0.00000
   64      1.20885    0.00000
   65      1.32980    0.00000
   66      1.70758    0.00000
   67      2.60901    0.00000
   68      3.05039    0.00000
   69      3.68021    0.00000
   70      3.99763    0.00000
   71      4.16496    0.00000
   72      4.87145    0.00000
   73      5.41075    0.00000
   74      6.25800    0.00000
   75      6.49288    0.00000
   76      7.02613    0.00000
   77      7.33741    0.00000
   78      7.41866    0.00000
   79      7.82560    0.00000
   80      7.99927    0.00000
   81      8.33916    0.00000
   82      8.56981    0.00000
   83      8.58865    0.00000
   84      8.90575    0.00000
   85      9.05141    0.00000
   86      9.12573    0.00000
   87      9.18631    0.00000
   88      9.29371    0.00000
   89      9.31172    0.00000
   90      9.53957    0.00000
   91      9.63512    0.00000
   92      9.70916    0.00000
   93      9.77066    0.00000
   94      9.94906    0.00000
   95     10.09494    0.00000
   96     10.14369    0.00000
   97     10.26365    0.00000


Forces in eV/Ang:
  0 C    -0.63122    0.18821   -0.04030
  1 C     1.43353   -1.11731   -0.65738
  2 C    -0.26207    0.43533    0.06190
  3 C     1.27714   -2.43640   -0.15703
  4 C    -0.76104    1.74756   -0.49526
  5 C    -0.26137    0.22645    0.02826
  6 C     1.11377   -0.17969   -0.42272
  7 C     0.09139    0.23444   -0.09089
  8 C    -1.86263    2.70642    0.32366
  9 C    -0.51616   -0.84325    0.14752
 10 C    -0.20476    0.18536    0.09484
 11 C    -0.25907    0.04598    0.14864
 12 C    -0.13347   -1.68194   -0.13988
 13 C    -0.41341    0.31437    0.24586
 14 C     0.52972   -0.16727    0.68769
 15 C     1.33970   -0.51581   -0.22134
 16 C    -0.03758    0.29322   -0.03570
 17 C    -0.81639   -1.22432    0.27307
 18 C    -0.17319    0.29015    0.03496
 19 C     0.41178    0.00572   -0.23550
 20 C     0.24662    0.95273    0.84979
 21 C    -0.82974    0.58983   -0.05590
 22 C     0.54260    0.41818   -0.11096
 23 C     0.05643   -0.44102   -0.17782

System changes: positions 

Initializing position-dependent things.

Density initialized from wave functions
           .--------------------------------------.  
          /|                                      |  
         / |                                      |  
        /  |                                      |  
       /   |                                      |  
      /    |                                      |  
     /     |                                      |  
    /      |                                      |  
   /       |           C  C  C  C                 |  
  /        |          C          C                |  
 *         |    C   C         C    C              |  
 |         |  C      C  C                         |  
 |         .---C---C-C---C-C----------------------.  
 |        /          C    C  C     C             /   
 |       /             C         C              /    
 |      /                                      /     
 |     /                                      /      
 |    /                                      /       
 |   /                                      /        
 |  /                                      /         
 | /                                      /          
 |/                                      /           
 *--------------------------------------*            

Positions:
   0 C      9.425479    3.898784    5.089593
   1 C      9.270915    5.356675    5.226719
   2 C      5.528420    8.601149    5.821946
   3 C      3.603593    7.380799    5.682081
   4 C      6.222958    9.758239    5.924304
   5 C      5.776175    6.103748    5.484354
   6 C      8.184874    3.261198    5.210924
   7 C      7.717506    7.429872    5.438709
   8 C      4.444244    5.732523    5.485178
   9 C      8.135904    6.083680    5.375630
  10 C      6.348352    7.457565    5.600210
  11 C      7.048745    3.825724    5.324724
  12 C      4.095343    8.546431    5.833068
  13 C      6.895041    5.198815    5.395855
  14 C      6.317523   11.030724    5.637390
  15 C      9.369575    9.277369    5.515633
  16 C      9.719183   11.647574    5.223296
  17 C     11.482516    9.731892    4.798887
  18 C     10.304769   10.350717    5.175925
  19 C     12.331887    6.370828    4.077424
  20 C     10.450673    4.753238    4.612344
  21 C      7.249463   11.928898    5.464276
  22 C      8.520929   12.093037    5.363008
  23 C     11.600113    5.304553    4.113444

Unit cell:
           periodic     x           y           z      points  spacing
  1. axis:    yes   16.000000    0.000000    0.000000    80     0.2000
  2. axis:    yes    0.000000   16.000000    0.000000    80     0.2000
  3. axis:    yes    0.000000    0.000000   10.000000    48     0.2083

Effective grid spacing dv^(1/3) = 0.2027

                     log10-error:    total        iterations:
           time      wfs    density  energy       fermi  poisson
iter:   1  09:23:51          +inf  -169.980010    4      5      
iter:   2  09:23:52         -1.75  -169.770335    3      2      
iter:   3  09:23:52         -2.24  -169.755931    3      2      
iter:   4  09:23:53         -2.35  -169.738952    3      2      
iter:   5  09:23:53         -2.55  -169.735476    2      2      
iter:   6  09:23:54         -2.72  -169.734317    2      2      
iter:   7  09:23:54         -2.85  -169.733350    3      2      
iter:   8  09:23:55         -3.09  -169.730854    2      1      
iter:   9  09:23:55         -3.27  -169.731300    2      1      
iter:  10  09:23:56         -3.51  -169.733155    2      1      
iter:  11  09:23:56         -3.61  -169.732619    2      1      
iter:  12  09:23:57         -3.78  -169.733244    2      1      
iter:  13  09:23:57         -3.94  -169.733417    2      1      
iter:  14  09:23:58         -4.04  -169.733098    2      1      

Converged after 14 iterations.

Dipole moment: (-0.443869, 0.430117, 0.272727) |e|*Ang

Energy contributions relative to reference atoms: (reference = -24663.074771)

Kinetic:       +109.982975
Potential:     -117.157897
External:        +0.000000
XC:            -165.325831
Entropy (-ST):   -0.274856
Local:           +2.905083
--------------------------
Free energy:   -169.870526
Extrapolated:  -169.733098

Fermi level: -4.94205

 Band  Eigenvalues  Occupancy
    0    -23.55219    2.00000
    1    -22.55215    2.00000
    2    -21.50255    2.00000
    3    -21.22715    2.00000
    4    -20.55894    2.00000
    5    -20.13964    2.00000
    6    -19.45483    2.00000
    7    -18.90097    2.00000
    8    -18.45311    2.00000
    9    -18.25207    2.00000
   10    -17.71262    2.00000
   11    -16.70452    2.00000
   12    -16.42375    2.00000
   13    -15.39619    2.00000
   14    -15.20193    2.00000
   15    -14.96641    2.00000
   16    -14.40635    2.00000
   17    -14.04208    2.00000
   18    -13.57281    2.00000
   19    -13.41838    2.00000
   20    -12.40366    2.00000
   21    -11.99892    2.00000
   22    -11.36712    2.00000
   23    -10.84538    2.00000
   24    -10.51196    2.00000
   25    -10.42190    2.00000
   26    -10.05183    2.00000
   27     -9.64260    2.00000
   28     -9.44590    2.00000
   29     -9.28774    2.00000
   30     -8.96941    2.00000
   31     -8.78584    2.00000
   32     -8.36854    2.00000
   33     -8.27966    2.00000
   34     -7.86887    2.00000
   35     -7.38456    2.00000
   36     -7.24997    2.00000
   37     -6.71827    2.00000
   38     -6.64355    2.00000
   39     -6.50823    2.00000
   40     -6.32930    2.00000
   41     -6.21817    1.99999
   42     -5.88240    1.99984
   43     -5.69793    1.99896
   44     -5.40594    1.98085
   45     -5.36107    1.97017
   46     -5.17835    1.82792
   47     -5.13106    1.73753
   48     -4.82799    0.48441
   49     -4.05794    0.00029
   50     -3.85116    0.00004
   51     -3.73096    0.00001
   52     -3.40872    0.00000
   53     -3.10583    0.00000
   54     -2.91826    0.00000
   55     -2.54030    0.00000
   56     -2.26324    0.00000
   57     -1.82079    0.00000
   58     -1.76404    0.00000
   59     -1.22880    0.00000
   60     -0.70695    0.00000
   61     -0.16814    0.00000
   62     -0.10283    0.00000
   63      0.61556    0.00000
   64      1.33438    0.00000
   65      1.65915    0.00000
   66      1.76217    0.00000
   67      2.58242    0.00000
   68      3.07609    0.00000
   69      3.72805    0.00000
   70      4.02856    0.00000
   71      4.20015    0.00000
   72      4.78215    0.00000
   73      5.39386    0.00000
   74      6.22878    0.00000
   75      6.44259    0.00000
   76      7.07329    0.00000
   77      7.33048    0.00000
   78      7.38477    0.00000
   79      7.81111    0.00000
   80      8.04517    0.00000
   81      8.36765    0.00000
   82      8.58667    0.00000
   83      8.61042    0.00000
   84      8.92319    0.00000
   85      9.03364    0.00000
   86      9.16366    0.00000
   87      9.20184    0.00000
   88      9.26567    0.00000
   89      9.32583    0.00000
   90      9.55694    0.00000
   91      9.64790    0.00000
   92      9.72810    0.00000
   93      9.78910    0.00000
   94      9.97092    0.00000
   95     10.10107    0.00000
   96     10.14388    0.00000
   97     10.28348    0.00000


Forces in eV/Ang:
  0 C    -0.85510    0.32219    0.05011
  1 C     2.10653   -1.34140   -0.84565
  2 C    -0.37063    0.66100    0.07679
  3 C     1.55497   -2.70625   -0.20657
  4 C    -0.60592    2.15375   -0.55724
  5 C    -0.30196    0.14524    0.03151
  6 C     1.29256   -0.23058   -0.45076
  7 C     0.17867    0.27266   -0.06013
  8 C    -2.05684    2.96428    0.36713
  9 C    -0.43238   -0.98575    0.08568
 10 C    -0.22892    0.26089    0.10006
 11 C    -0.41982   -0.04052    0.14073
 12 C    -0.23209   -1.71321   -0.13549
 13 C    -0.25477    0.35531    0.24429
 14 C     0.48304   -0.49786    0.71228
 15 C     1.42304   -0.48111   -0.31601
 16 C    -0.17049    0.33605   -0.00620
 17 C    -0.91288   -1.26025    0.32676
 18 C    -0.14129    0.29491    0.04659
 19 C     0.40611   -0.04276   -0.24711
 20 C    -0.15967    1.16639    0.90459
 21 C    -0.92865    0.38417   -0.00085
 22 C     0.66198    0.39558   -0.13294
 23 C    -0.01326   -0.40586   -0.06490

System changes: positions 

Initializing position-dependent things.

Density initialized from wave functions
           .--------------------------------------.  
          /|                                      |  
         / |                                      |  
        /  |                                      |  
       /   |                                      |  
      /    |                                      |  
     /     |                                      |  
    /      |                                      |  
   /       |           C  C  C  C                 |  
[...]

Kinetic:       +106.041654
Potential:     -115.511771
External:        +0.000000
XC:            -174.379188
Entropy (-ST):   -0.205493
Local:           +3.015206
--------------------------
Free energy:   -181.039591
Extrapolated:  -180.936845

Fermi level: -4.60240

 Band  Eigenvalues  Occupancy
    0    -23.55678    2.00000
    1    -22.52271    2.00000
    2    -21.70150    2.00000
    3    -21.32346    2.00000
    4    -20.62599    2.00000
    5    -20.41671    2.00000
    6    -19.98232    2.00000
    7    -19.06731    2.00000
    8    -18.85800    2.00000
    9    -18.30418    2.00000
   10    -17.89914    2.00000
   11    -17.38278    2.00000
   12    -17.03936    2.00000
   13    -16.32104    2.00000
   14    -15.79412    2.00000
   15    -15.06089    2.00000
   16    -14.95958    2.00000
   17    -14.51991    2.00000
   18    -13.92996    2.00000
   19    -13.60184    2.00000
   20    -13.27008    2.00000
   21    -12.19615    2.00000
   22    -11.35529    2.00000
   23    -11.14504    2.00000
   24    -10.83061    2.00000
   25    -10.68622    2.00000
   26    -10.43518    2.00000
   27    -10.22225    2.00000
   28    -10.05128    2.00000
   29     -9.97792    2.00000
   30     -9.82601    2.00000
   31     -9.32599    2.00000
   32     -8.66246    2.00000
   33     -8.50119    2.00000
   34     -8.42816    2.00000
   35     -8.34163    2.00000
   36     -7.71231    2.00000
   37     -7.57233    2.00000
   38     -6.85182    2.00000
   39     -6.76363    2.00000
   40     -6.45994    2.00000
   41     -6.31485    2.00000
   42     -6.16154    2.00000
   43     -5.64709    1.99994
   44     -5.56872    1.99987
   45     -5.24957    1.99691
   46     -4.95000    1.93999
   47     -4.78010    1.71064
   48     -4.44818    0.35242
   49     -3.68222    0.00020
   50     -3.46636    0.00002
   51     -3.22818    0.00000
   52     -2.92031    0.00000
   53     -2.51490    0.00000
   54     -2.16548    0.00000
   55     -1.95275    0.00000
   56     -1.02401    0.00000
   57     -0.73182    0.00000
   58     -0.34231    0.00000
   59     -0.17070    0.00000
   60     -0.05659    0.00000
   61      0.16969    0.00000
   62      0.79015    0.00000
   63      2.25868    0.00000
   64      2.54846    0.00000
   65      3.05008    0.00000
   66      3.49311    0.00000
   67      3.65237    0.00000
   68      4.14545    0.00000
   69      4.22608    0.00000
   70      4.37746    0.00000
   71      4.69796    0.00000
   72      5.11164    0.00000
   73      5.77808    0.00000
   74      6.23311    0.00000
   75      6.64158    0.00000
   76      6.88803    0.00000
   77      7.00539    0.00000
   78      7.29812    0.00000
   79      7.67890    0.00000
   80      7.76641    0.00000
   81      8.18080    0.00000
   82      8.43723    0.00000
   83      8.46227    0.00000
   84      8.59376    0.00000
   85      8.76908    0.00000
   86      8.87410    0.00000
   87      9.13059    0.00000
   88      9.18271    0.00000
   89      9.19515    0.00000
   90      9.42719    0.00000
   91      9.62613    0.00000
   92      9.70162    0.00000
   93      9.77403    0.00000
   94      9.80320    0.00000
   95      9.94295    0.00000
   96     10.14725    0.00000
   97     10.17340    0.00000


Forces in eV/Ang:
  0 C     0.06176   -0.04282   -0.03349
  1 C    -0.15295    0.04336    0.07237
  2 C     0.05894   -0.07088   -0.01004
  3 C    -0.09939    0.16180    0.03556
  4 C    -0.02817   -0.13982    0.02956
  5 C     0.02886    0.04030    0.01963
  6 C    -0.06803    0.04106    0.00749
  7 C    -0.04829   -0.09060    0.01597
  8 C     0.11351   -0.09535   -0.03949
  9 C    -0.00263    0.01245   -0.03807
 10 C     0.00991   -0.01224   -0.00006
 11 C     0.03963    0.07033   -0.02015
 12 C     0.02549    0.02733    0.01547
 13 C    -0.00467   -0.01293   -0.00912
 14 C    -0.02251    0.05804   -0.00991
 15 C     0.01393   -0.01154   -0.02452
 16 C     0.03363    0.01219   -0.00878
 17 C    -0.04780    0.01774   -0.00204
 18 C    -0.01730   -0.01384   -0.00070
 19 C    -0.10631   -0.01103    0.02915
 20 C     0.11645   -0.08210   -0.00184
 21 C     0.07498    0.04027    0.01173
 22 C    -0.04638    0.01376    0.02897
 23 C     0.09017    0.01629   -0.00346

System changes: positions 

Initializing position-dependent things.

Density initialized from wave functions
           .--------------------------------------.  
          /|                                      |  
         / |                                      |  
        /  |                                      |  
       /   |                                      |  
      /    |                                      |  
     /     |                                      |  
    /      |                                      |  
   /       |           C  C   C C                 |  
  /        |          C          C                |  
 *         |   CC   C       C  C                  |  
 |         |    C  C  C  C                        |  
 |         .----------C--C------------------------.  
 |        /          C      C C                  /   
 |       /             C   C     C  C           /    
 |      /                                      /     
 |     /                                      /      
 |    /                                      /       
 |   /                                      /        
 |  /                                      /         
 | /                                      /          
 |/                                      /           
 *--------------------------------------*            

Positions:
   0 C      9.576981    3.968982    4.963020
   1 C      9.492786    5.419955    5.026292
   2 C      5.543150    8.716530    5.722659
   3 C      4.025894    7.143949    5.972680
   4 C      5.933237   10.060844    5.630178
   5 C      5.967828    6.224018    5.694879
   6 C      8.366944    3.362939    5.201184
   7 C      7.934097    7.504421    5.400363
   8 C      4.582428    5.944899    5.918951
   9 C      8.299449    6.087401    5.294611
  10 C      6.483093    7.586603    5.609555
  11 C      7.232450    3.899143    5.447262
  12 C      4.123957    8.450866    5.927665
  13 C      7.074595    5.296303    5.506938
  14 C      6.333500   11.257003    5.552290
  15 C      8.873061    8.521517    5.341405
  16 C      9.583029   11.849731    5.293522
  17 C      9.676604    9.490559    5.288557
  18 C     10.219578   10.742159    5.257669
  19 C     13.280528    4.894693    3.955893
  20 C     10.731220    4.757650    4.681535
  21 C      7.316136   12.155251    5.441219
  22 C      8.496912   12.653879    5.344532
  23 C     12.039647    4.842313    4.320727

Unit cell:
           periodic     x           y           z      points  spacing
  1. axis:    yes   16.000000    0.000000    0.000000    80     0.2000
  2. axis:    yes    0.000000   16.000000    0.000000    80     0.2000
  3. axis:    yes    0.000000    0.000000   10.000000    48     0.2083

Effective grid spacing dv^(1/3) = 0.2027

                     log10-error:    total        iterations:
           time      wfs    density  energy       fermi  poisson
iter:   1  09:38:10          +inf  -180.935845    2      5      
iter:   2  09:38:11         -2.82  -180.935215    2      1      
iter:   3  09:38:11         -2.88  -180.934457    2      1      
iter:   4  09:38:12         -3.11  -180.934884    2      1      
iter:   5  09:38:12         -3.26  -180.933752    2      1      
iter:   6  09:38:13         -3.51  -180.935391    2      1      
iter:   7  09:38:13         -3.55  -180.937450    2      1      
iter:   8  09:38:14         -3.83  -180.936839    2      1      
iter:   9  09:38:14         -3.89  -180.936458    2      1      
iter:  10  09:38:15         -4.02  -180.936826    2      1      

Converged after 10 iterations.

Dipole moment: (-0.918760, 1.048283, 0.292626) |e|*Ang

Energy contributions relative to reference atoms: (reference = -24663.074771)

Kinetic:       +106.644409
Potential:     -115.948752
External:        +0.000000
XC:            -174.548816
Entropy (-ST):   -0.208732
Local:           +3.020698
--------------------------
Free energy:   -181.041192
Extrapolated:  -180.936826

Fermi level: -4.60113

 Band  Eigenvalues  Occupancy
    0    -23.55666    2.00000
    1    -22.53097    2.00000
    2    -21.69372    2.00000
    3    -21.32259    2.00000
    4    -20.61633    2.00000
    5    -20.41657    2.00000
    6    -19.97897    2.00000
    7    -19.06263    2.00000
    8    -18.85793    2.00000
    9    -18.30693    2.00000
   10    -17.90140    2.00000
   11    -17.38761    2.00000
   12    -17.03431    2.00000
   13    -16.32199    2.00000
   14    -15.79463    2.00000
   15    -15.06540    2.00000
   16    -14.96513    2.00000
   17    -14.52280    2.00000
   18    -13.92767    2.00000
   19    -13.60551    2.00000
   20    -13.28885    2.00000
   21    -12.20526    2.00000
   22    -11.35592    2.00000
   23    -11.14390    2.00000
   24    -10.83353    2.00000
   25    -10.68588    2.00000
   26    -10.44130    2.00000
   27    -10.21919    2.00000
   28    -10.05415    2.00000
   29     -9.97588    2.00000
   30     -9.82618    2.00000
   31     -9.32304    2.00000
   32     -8.65809    2.00000
   33     -8.50379    2.00000
   34     -8.42037    2.00000
   35     -8.34041    2.00000
   36     -7.71233    2.00000
   37     -7.57341    2.00000
   38     -6.84955    2.00000
   39     -6.76576    2.00000
   40     -6.46105    2.00000
   41     -6.31590    2.00000
   42     -6.15587    2.00000
   43     -5.64544    1.99994
   44     -5.56756    1.99987
   45     -5.24892    1.99693
   46     -4.94645    1.93865
   47     -4.77569    1.70279
   48     -4.45003    0.36158
   49     -3.68407    0.00021
   50     -3.46392    0.00002
   51     -3.21322    0.00000
   52     -2.91936    0.00000
   53     -2.54825    0.00000
   54     -2.15824    0.00000
   55     -1.96638    0.00000
   56     -1.02360    0.00000
   57     -0.71231    0.00000
   58     -0.32108    0.00000
   59     -0.16949    0.00000
   60     -0.04362    0.00000
   61      0.17313    0.00000
   62      0.79943    0.00000
   63      2.26331    0.00000
   64      2.55622    0.00000
   65      3.05072    0.00000
   66      3.50465    0.00000
   67      3.66825    0.00000
   68      4.17010    0.00000
   69      4.24477    0.00000
   70      4.39843    0.00000
   71      4.69612    0.00000
   72      5.13454    0.00000
   73      5.79434    0.00000
   74      6.24687    0.00000
   75      6.68083    0.00000
   76      6.91244    0.00000
   77      7.01507    0.00000
   78      7.31060    0.00000
   79      7.69771    0.00000
   80      7.76927    0.00000
   81      8.19530    0.00000
   82      8.44585    0.00000
   83      8.46355    0.00000
   84      8.60998    0.00000
   85      8.78548    0.00000
   86      8.89083    0.00000
   87      9.13199    0.00000
   88      9.18677    0.00000
   89      9.19757    0.00000
   90      9.42519    0.00000
   91      9.62804    0.00000
   92      9.71482    0.00000
   93      9.79275    0.00000
   94      9.81717    0.00000
   95      9.94382    0.00000
   96     10.16104    0.00000
   97     10.17736    0.00000


Forces in eV/Ang:
  0 C     0.02403   -0.04162   -0.03401
  1 C    -0.09570    0.03881    0.05519
  2 C     0.02456   -0.04444   -0.00952
  3 C    -0.07572    0.12340   -0.00180
  4 C    -0.01450   -0.09520    0.00156
  5 C     0.02994    0.02720    0.02973
  6 C    -0.04448   -0.00470    0.00948
  7 C    -0.02354   -0.05870   -0.02189
  8 C     0.06662   -0.06348   -0.03428
  9 C     0.00475    0.01504    0.00145
 10 C     0.00453    0.00460    0.01155
 11 C    -0.00788    0.02512   -0.01193
 12 C    -0.02833    0.07256    0.01954
 13 C     0.00513   -0.01333   -0.01541
 14 C    -0.01873    0.06119    0.00091
 15 C     0.04195   -0.00904   -0.05155
 16 C     0.00799   -0.02371   -0.02830
 17 C    -0.01044    0.00297    0.01424
 18 C    -0.00418   -0.00676   -0.02328
 19 C    -0.04953   -0.00074    0.01806
 20 C     0.07307   -0.07403   -0.01780
 21 C     0.05314   -0.02106    0.02552
 22 C    -0.02445    0.04865    0.03696
 23 C     0.09223    0.02677   -0.01968

System changes: positions 

Initializing position-dependent things.

Density initialized from wave functions
           .--------------------------------------.  
          /|                                      |  
         / |                                      |  
        /  |                                      |  
       /   |                                      |  
      /    |                                      |  
     /     |                                      |  
    /      |                                      |  
   /       |           C  C   C C                 |  
  /        |          C          C                |  
 *         |   CC   C       C  C                  |  
 |         |    C  C  C  C                        |  
 |         .----------C--C------------------------.  
 |        /          C      C C                  /   
 |       /             C   C     C  C           /    
 |      /                                      /     
 |     /                                      /      
 |    /                                      /       
 |   /                                      /        
 |  /                                      /         
 | /                                      /          
 |/                                      /           
 *--------------------------------------*            

Positions:
   0 C      9.576515    3.967644    4.963178
   1 C      9.491567    5.419397    5.030101
   2 C      5.543904    8.714103    5.722714
   3 C      4.024550    7.145252    5.971754
   4 C      5.932908   10.058290    5.632902
   5 C      5.967590    6.224040    5.694337
   6 C      8.365044    3.365716    5.199722
   7 C      7.933877    7.503039    5.402040
   8 C      4.582266    5.946560    5.915150
   9 C      8.298571    6.086991    5.296567
  10 C      6.483215    7.585398    5.610253
  11 C      7.229189    3.900178    5.444787
  12 C      4.123443    8.451992    5.924661
  13 C      7.073334    5.296509    5.505956
  14 C      6.334663   11.254187    5.554535
  15 C      8.872877    8.520441    5.339637
  16 C      9.583912   11.847302    5.291765
  17 C      9.676246    9.489716    5.288418
  18 C     10.221956   10.740274    5.254606
  19 C     13.275693    4.907376    3.952433
  20 C     10.730187    4.758786    4.685328
  21 C      7.318400   12.150590    5.441767
  22 C      8.498237   12.652452    5.344949
  23 C     12.037506    4.848713    4.322488

Unit cell:
           periodic     x           y           z      points  spacing
  1. axis:    yes   16.000000    0.000000    0.000000    80     0.2000
  2. axis:    yes    0.000000   16.000000    0.000000    80     0.2000
  3. axis:    yes    0.000000    0.000000   10.000000    48     0.2083

Effective grid spacing dv^(1/3) = 0.2027

                     log10-error:    total        iterations:
           time      wfs    density  energy       fermi  poisson
iter:   1  09:38:16          +inf  -180.938511    2      4      
iter:   2  09:38:17         -3.03  -180.938361    2      1      
iter:   3  09:38:17         -3.12  -180.937238    2      1      
iter:   4  09:38:18         -3.40  -180.937305    2      1      
iter:   5  09:38:18         -3.52  -180.937289    2      1      
iter:   6  09:38:19         -3.75  -180.937295    2      1      
iter:   7  09:38:19         -3.89  -180.937668    2      1      
iter:   8  09:38:20         -4.09  -180.937722    2      1      

Converged after 8 iterations.

Dipole moment: (-0.917698, 1.040198, 0.296483) |e|*Ang

Energy contributions relative to reference atoms: (reference = -24663.074771)

Kinetic:       +107.058816
Potential:     -116.269082
External:        +0.000000
XC:            -174.646084
Entropy (-ST):   -0.208388
Local:           +3.022821
--------------------------
Free energy:   -181.041916
Extrapolated:  -180.937722

Fermi level: -4.60008

 Band  Eigenvalues  Occupancy
    0    -23.56250    2.00000
    1    -22.54032    2.00000
    2    -21.69540    2.00000
    3    -21.32912    2.00000
    4    -20.61692    2.00000
    5    -20.41819    2.00000
    6    -19.98153    2.00000
    7    -19.06360    2.00000
    8    -18.85818    2.00000
    9    -18.31183    2.00000
   10    -17.90899    2.00000
   11    -17.38691    2.00000
   12    -17.03466    2.00000
   13    -16.32670    2.00000
   14    -15.80208    2.00000
   15    -15.06752    2.00000
   16    -14.96707    2.00000
   17    -14.52559    2.00000
   18    -13.92949    2.00000
   19    -13.60797    2.00000
   20    -13.28215    2.00000
   21    -12.20886    2.00000
   22    -11.35986    2.00000
   23    -11.14542    2.00000
   24    -10.83950    2.00000
   25    -10.69434    2.00000
   26    -10.44295    2.00000
   27    -10.22200    2.00000
   28    -10.05693    2.00000
   29     -9.97599    2.00000
   30     -9.82859    2.00000
   31     -9.32306    2.00000
   32     -8.65594    2.00000
   33     -8.50589    2.00000
   34     -8.42009    2.00000
   35     -8.34086    2.00000
   36     -7.71335    2.00000
   37     -7.57385    2.00000
   38     -6.84939    2.00000
   39     -6.76607    2.00000
   40     -6.46361    2.00000
   41     -6.31726    2.00000
   42     -6.15161    2.00000
   43     -5.64903    1.99994
   44     -5.56649    1.99987
   45     -5.25464    1.99713
   46     -4.94577    1.93887
   47     -4.77473    1.70301
   48     -4.44877    0.36094
   49     -3.68372    0.00021
   50     -3.46357    0.00002
   51     -3.20469    0.00000
   52     -2.92088    0.00000
   53     -2.54869    0.00000
   54     -2.16134    0.00000
   55     -1.97166    0.00000
   56     -1.02169    0.00000
   57     -0.70837    0.00000
   58     -0.31187    0.00000
   59     -0.16634    0.00000
   60     -0.04065    0.00000
   61      0.17216    0.00000
   62      0.79992    0.00000
   63      2.26410    0.00000
   64      2.54735    0.00000
   65      3.05149    0.00000
   66      3.51114    0.00000
   67      3.67467    0.00000
   68      4.16850    0.00000
   69      4.24492    0.00000
   70      4.40163    0.00000
   71      4.71183    0.00000
   72      5.13195    0.00000
   73      5.80601    0.00000
   74      6.24943    0.00000
   75      6.67357    0.00000
   76      6.91529    0.00000
   77      7.02967    0.00000
   78      7.30507    0.00000
   79      7.70907    0.00000
   80      7.76380    0.00000
   81      8.20339    0.00000
   82      8.44446    0.00000
   83      8.46345    0.00000
   84      8.61050    0.00000
   85      8.78952    0.00000
   86      8.89617    0.00000
   87      9.13370    0.00000
   88      9.18657    0.00000
   89      9.19803    0.00000
   90      9.43185    0.00000
   91      9.62659    0.00000
   92      9.71575    0.00000
   93      9.79626    0.00000
   94      9.81793    0.00000
   95      9.94426    0.00000
   96     10.16015    0.00000
   97     10.17667    0.00000


Forces in eV/Ang:
  0 C     0.02711   -0.02377   -0.02212
  1 C    -0.07021    0.03343    0.04450
  2 C     0.00727   -0.00518   -0.00259
  3 C    -0.05597    0.07041   -0.01657
  4 C     0.00694   -0.06858   -0.00640
  5 C     0.01433    0.02294    0.02277
  6 C    -0.05458   -0.02660    0.01186
  7 C    -0.00367   -0.01839   -0.02707
  8 C     0.02267   -0.05047   -0.02192
  9 C     0.01317    0.00089    0.00454
 10 C     0.00674    0.01653    0.01346
 11 C     0.01768   -0.02520   -0.01500
 12 C    -0.02846    0.05298    0.02983
 13 C     0.00301   -0.00683   -0.01042
 14 C    -0.02111    0.04933    0.00149
 15 C     0.02923   -0.00951   -0.02969
 16 C    -0.00468   -0.01620   -0.02479
 17 C    -0.00867   -0.00852   -0.00147
 18 C    -0.01175    0.00021   -0.01452
 19 C    -0.02720    0.02219   -0.01270
 20 C     0.06162   -0.05440   -0.01587
 21 C     0.05631   -0.00901    0.03085
 22 C    -0.02168    0.01477    0.03243
 23 C     0.05568    0.01401    0.00723

