
  ___ ___ ___ _ _ _  
 |   |   |_  | | | | 
 | | | | | . | | | | 
 |__ |  _|___|_____|  1.3.0b1
 |___|_|             

User:   esb@s65n32.grendel.cscaa.dk
Date:   Thu Nov  9 12:18:44 2017
Arch:   x86_64
Pid:    24941
Python: 2.7.13
gpaw:   /home/esb/DFT/gpaw_git/gpaw
_gpaw:  /home/esb/DFT/gpaw_git/build/bin.linux-x86_64-2.7/gpaw-python
ase:    /home/esb/DFT/ase_git/ase (version 3.15.0b1)
numpy:  /comm/swstack/core/python/2.7.13/lib/python2.7/site-packages/numpy (version 1.13.3)
scipy:  /comm/swstack/core/python/2.7.13/lib/python2.7/site-packages/scipy (version 0.19.1)
units:  Angstrom and eV
cores:  16
Extra parameters: {'blacs': True}

Input parameters:
  basis: dzp
  gpts: [80 80 48]
  kpts: [1 1 1]
  maxiter: 99
  mixer: {backend: pulay,
          beta: 0.05,
          method: separate,
          nmaxold: 5,
          weight: 75}
  mode: lcao
  nbands: -50
  occupations: {name: fermi-dirac,
                width: 0.1}
  poissonsolver: {eps: 1e-07,
                  name: fd,
                  nn: 3,
                  relax: GS}
  xc: PBE

System changes: positions, numbers, cell, pbc, initial_charges, initial_magmoms 

Initialize ...

C-setup:
  name: Carbon
  id: 4aa54d4b901d75f77cc0ea3eec22967b
  Z: 6
  valence: 4
  core: 2
  charge: 0.0
  file: /home/esb/DFT/gpaw-setups-0.8.7929/C.PBE.gz
  cutoffs: 0.64(comp), 1.14(filt), 1.14(core), lmax=2
  valence states:
                energy  radius
    2s(2.00)   -13.751   0.635
    2p(2.00)    -5.284   0.635
    *s          13.461   0.635
    *p          21.927   0.635
    *d           0.000   0.635

  LCAO basis set for C:
    Name: dzp
    File: /home/esb/DFT/gpaw-setups-0.8.7929/C.dzp.basis.gz
    Number of radial functions: 5
    Number of spherical harmonics: 13
      l=0, rc=5.5469 Bohr: 2s-sz confined orbital
      l=1, rc=6.6719 Bohr: 2p-sz confined orbital
      l=0, rc=3.0312 Bohr: 2s-dz split-valence wave
      l=1, rc=3.7500 Bohr: 2p-dz split-valence wave
      l=2, rc=6.6719 Bohr: d-type Gaussian polarization

Reference energy: -24663.074771

Spin-paired calculation

Occupation numbers:
  Fermi-Dirac: width=0.1000 eV

Convergence criteria:
  Maximum total energy change: 0.0005 eV / electron
  Maximum integral of absolute density change: 0.0001 electrons
  Maximum integral of absolute eigenstate change: 4e-08 eV^2
  Maximum number of iterations: 99

Symmetries present (total): 1

  ( 1  0  0)
  ( 0  1  0)
  ( 0  0  1)

1 k-point (Gamma)
1 k-point in the irreducible part of the Brillouin zone
       k-points in crystal coordinates                weights
   0:     0.00000000    0.00000000    0.00000000          1/1

Wave functions: LCAO
  Diagonalizer: Serial LAPACK
  Atomic Correction: dense with blas
  Datatype: float
  Eigensolver: None 

LCAO using direct dense diagonalizer 

Densities:
  Coarse grid: 80*80*48 grid
  Fine grid: 160*160*96 grid
  Total Charge: 0.000000 

Density mixing:
  Method: separate
  Backend: pulay
  Linear mixing parameter: 0.05
  Mixing with 5 old densities
  Damping of long wave oscillations: 75 

Hamiltonian:
  XC and Coulomb potentials evaluated on a 160*160*96 grid
  Using the PBE Exchange-Correlation functional
  Interpolation: tri-quintic (5. degree polynomial)
  Poisson solver: Gauss-Seidel solver with 6 multi-grid levels
    Coarsest grid: 5 x 5 x 3 points
    Stencil: 6*3+1=19 point O(h^6) finite-difference Laplacian
    Max iterations: 1000
    Tolerance: 1.000000e-07 

Memory estimate:
  Process memory now: 77.58 MiB
  Calculator: 15.59 MiB
    Density: 6.13 MiB
      Arrays: 3.81 MiB
      Localized functions: 0.86 MiB
      Mixer: 1.46 MiB
    Hamiltonian: 5.40 MiB
      Arrays: 2.49 MiB
      XC: 0.00 MiB
      Poisson: 2.85 MiB
      vbar: 0.07 MiB
    Wavefunctions: 4.05 MiB
      C [qnM]: 0.23 MiB
      S, T [2 x qmm]: 1.49 MiB
      P [aqMi]: 0.01 MiB
      TCI: 0.00 MiB
      BasisFunctions: 2.33 MiB
      Eigensolver: 0.00 MiB

Total number of cores used: 16
Domain decomposition: 2 x 4 x 2

Number of atoms: 24
Number of atomic orbitals: 312
Number of bands in calculation: 98
Bands to converge: occupied states only
Number of valence electrons: 96

... initialized

Initializing position-dependent things.

Density initialized from atomic densities
           .--------------------------------------.  
          /|                                      |  
         / |                                      |  
        /  |                                      |  
       /   |                                      |  
      /    |                                      |  
     /     |                                      |  
    /      |                                      |  
   /       |       C  C C                         |  
  /        |                                      |  
 *         |  C  C  C   C C   C  C                |  
 |         | C       C         CC                 |  
 |         .---C---C-C---C--C---------------------.  
 |        /    C    C  C  C                      /   
 |       /       C                              /    
 |      /                                      /     
 |     /                                      /      
 |    /                                      /       
 |   /                                      /        
 |  /                                      /         
 | /                                      /          
 |/                                      /           
 *--------------------------------------*            

Positions:
   0 C      9.644548    4.963294    5.710608
   1 C      8.387290    5.767807    5.739398
   2 C      9.325852    3.600795    5.620624
   3 C      6.076450   10.028271    6.405105
   4 C      7.202682    9.440296    6.355272
   5 C      7.347650    8.020837    6.139902
   6 C      8.499610    7.221027    5.905503
   7 C     10.861554    5.678438    5.808082
   8 C     11.060165    6.944995    5.620661
   9 C     10.976895    8.380292    5.419584
  10 C      9.790447    7.794679    5.739512
  11 C      4.701446   10.032858    6.419206
  12 C      5.476498    8.663424    5.469577
  13 C      5.734965    6.061961    5.476717
  14 C      6.143599    7.460102    5.647753
  15 C      6.913151    5.270855    5.515602
  16 C      3.395840    6.555813    5.470555
  17 C      4.543724    4.118332    5.250547
  18 C      4.391481    5.522692    5.375846
  19 C      5.607596    3.415962    5.249252
  20 C      3.303562    7.801998    5.647414
  21 C      6.956709    3.831346    5.385978
  22 C      8.304040    3.323138    5.459763
  23 C      4.068121    8.990518    5.680862

Unit cell:
           periodic     x           y           z      points  spacing
  1. axis:    yes   16.000000    0.000000    0.000000    80     0.2000
  2. axis:    yes    0.000000   16.000000    0.000000    80     0.2000
  3. axis:    yes    0.000000    0.000000   10.000000    48     0.2083

Effective grid spacing dv^(1/3) = 0.2027

                     log10-error:    total        iterations:
           time      wfs    density  energy       fermi  poisson
iter:   1  12:18:45          +inf  -183.237068    2      6      
iter:   2  12:18:46         -0.90  -182.379596    4      3      
iter:   3  12:18:47         -0.93  -178.788909    31     4      
iter:   4  12:18:47         -1.24  -178.563616    32     3      
iter:   5  12:18:48         -1.48  -178.522571    4      3      
iter:   6  12:18:49         -1.63  -178.467881    2      3      
iter:   7  12:18:49         -1.80  -178.445260    3      3      
iter:   8  12:18:50         -2.00  -178.423106    3      2      
iter:   9  12:18:51         -2.24  -178.413666    3      2      
iter:  10  12:18:51         -2.47  -178.408135    2      2      
iter:  11  12:18:52         -2.56  -178.408378    2      2      
iter:  12  12:18:53         -2.67  -178.411025    2      2      
iter:  13  12:18:53         -2.80  -178.409473    2      2      
iter:  14  12:18:54         -2.92  -178.416036    2      1      
iter:  15  12:18:54         -3.08  -178.410578    2      1      
iter:  16  12:18:55         -3.15  -178.412332    2      1      
iter:  17  12:18:56         -3.24  -178.410595    2      1      
iter:  18  12:18:56         -3.30  -178.403055    2      1      
iter:  19  12:18:57         -3.37  -178.404389    2      1      
iter:  20  12:18:57         -3.44  -178.409746    2      1      
iter:  21  12:18:58         -3.61  -178.406994    2      1      
iter:  22  12:18:59         -3.83  -178.408540    2      1      
iter:  23  12:18:59         -3.96  -178.408690    2      1      
iter:  24  12:19:00         -4.09  -178.407497    2      1      

Converged after 24 iterations.

Dipole moment: (-0.186306, -0.422138, -0.077191) |e|*Ang

Energy contributions relative to reference atoms: (reference = -24663.074771)

Kinetic:       +143.213567
Potential:     -139.765882
External:        +0.000000
XC:            -184.788601
Entropy (-ST):   -0.114474
Local:           +2.990656
--------------------------
Free energy:   -178.464734
Extrapolated:  -178.407497

Fermi level: -3.70207

 Band  Eigenvalues  Occupancy
    0    -23.46866    2.00000
    1    -23.10390    2.00000
    2    -22.49600    2.00000
    3    -21.64930    2.00000
    4    -21.20624    2.00000
    5    -20.23598    2.00000
    6    -19.65134    2.00000
    7    -19.40034    2.00000
    8    -18.88632    2.00000
    9    -18.48409    2.00000
   10    -18.15379    2.00000
   11    -16.86250    2.00000
   12    -16.28401    2.00000
   13    -15.68688    2.00000
   14    -15.58670    2.00000
   15    -15.45539    2.00000
   16    -14.14975    2.00000
   17    -13.58059    2.00000
   18    -13.03513    2.00000
   19    -12.79592    2.00000
   20    -12.75130    2.00000
   21    -12.33199    2.00000
   22    -12.00402    2.00000
   23    -11.25657    2.00000
   24    -11.01377    2.00000
   25    -10.80932    2.00000
   26    -10.69942    2.00000
   27    -10.45918    2.00000
   28    -10.16952    2.00000
   29     -9.90315    2.00000
   30     -9.83433    2.00000
   31     -9.33574    2.00000
   32     -9.17346    2.00000
   33     -9.05968    2.00000
   34     -8.72941    2.00000
   35     -8.24726    2.00000
   36     -7.83206    2.00000
   37     -7.20078    2.00000
   38     -7.16309    2.00000
   39     -6.87488    2.00000
   40     -6.65407    2.00000
   41     -6.52972    2.00000
   42     -6.31305    2.00000
   43     -6.11112    2.00000
   44     -5.74652    2.00000
   45     -5.56158    2.00000
   46     -4.18989    1.98489
   47     -3.96620    1.86695
   48     -3.44336    0.13995
   49     -3.09423    0.00457
   50     -3.06668    0.00347
   51     -2.75818    0.00016
   52     -2.32156    0.00000
   53     -2.03052    0.00000
   54     -1.80008    0.00000
   55     -1.66769    0.00000
   56     -1.64520    0.00000
   57     -0.84270    0.00000
   58     -0.17498    0.00000
   59      0.45068    0.00000
   60      0.93408    0.00000
   61      1.49450    0.00000
   62      2.00704    0.00000
   63      2.30036    0.00000
   64      2.97323    0.00000
   65      3.28158    0.00000
   66      3.36304    0.00000
   67      4.10509    0.00000
   68      4.52619    0.00000
   69      4.79474    0.00000
   70      5.28306    0.00000
   71      5.34813    0.00000
   72      5.49988    0.00000
   73      5.93130    0.00000
   74      6.00696    0.00000
   75      6.79417    0.00000
   76      7.11906    0.00000
   77      7.45744    0.00000
   78      8.08094    0.00000
   79      8.19894    0.00000
   80      8.62943    0.00000
   81      8.65455    0.00000
   82      8.86233    0.00000
   83      9.00636    0.00000
   84      9.02686    0.00000
   85      9.09137    0.00000
   86      9.32223    0.00000
   87      9.37110    0.00000
   88      9.40681    0.00000
   89      9.47970    0.00000
   90      9.58444    0.00000
   91      9.88367    0.00000
   92      9.94828    0.00000
   93      9.97514    0.00000
   94     10.10925    0.00000
   95     10.19983    0.00000
   96     10.25167    0.00000
   97     10.47682    0.00000


Forces in eV/Ang:
  0 C    -0.12590    2.38067    0.23146
  1 C    -1.24234    1.40659   -0.87848
  2 C    23.26275    6.13415    3.50583
  3 C    -2.56733   -1.62155   -2.61977
  4 C     4.02984   -0.79703    1.54839
  5 C     3.03081   -0.58345   -0.67443
  6 C     0.70097    0.26567    0.71282
  7 C     0.07879   -0.55827    0.17496
  8 C    -0.03413    0.25120   -0.04828
  9 C     0.16186   -0.04779   -0.14452
 10 C    -0.31988   -0.12908    0.48664
 11 C    -2.39152    1.40624    1.43882
 12 C    -3.94013   -0.25200   -0.83287
 13 C     1.84563    1.35156    0.21622
 14 C    -1.68679    1.09720    0.49646
 15 C     4.60230   -1.11055    0.58875
 16 C    -0.42840   -0.54922   -0.04860
 17 C     0.00250   -0.04605    0.04154
 18 C     0.10631    0.37866   -0.04288
 19 C     0.02862    0.03432    0.02746
 20 C     0.05320    0.33906   -0.16846
 21 C    -0.90806   -0.88928   -0.19254
 22 C   -26.16999   -8.31596   -3.90180
 23 C     1.88801   -0.16283    0.05380

System changes: positions 

Initializing position-dependent things.

Density initialized from wave functions
           .--------------------------------------.  
          /|                                      |  
         / |                                      |  
        /  |                                      |  
       /   |                                      |  
      /    |                                      |  
     /     |                                      |  
    /      |                                      |  
   /       |       C  C C                         |  
  /        |                                      |  
 *         |  C  C  C   C C   C  C                |  
 |         | C       C         CC                 |  
 |         .---C---C-C---C--C---------------------.  
 |        /    C    C  C  C                      /   
 |       /       C                              /    
 |      /                                      /     
 |     /                                      /      
 |    /                                      /       
 |   /                                      /        
 |  /                                      /         
 | /                                      /          
 |/                                      /           
 *--------------------------------------*            

Positions:
   0 C      9.644367    4.966727    5.710942
   1 C      8.385498    5.769835    5.738131
   2 C      9.359401    3.609642    5.625680
   3 C      6.072748   10.025932    6.401327
   4 C      7.208494    9.439147    6.357505
   5 C      7.352021    8.019995    6.138929
   6 C      8.500621    7.221410    5.906531
   7 C     10.861667    5.677633    5.808334
   8 C     11.060115    6.945358    5.620591
   9 C     10.977128    8.380223    5.419375
  10 C      9.789986    7.794493    5.740214
  11 C      4.697997   10.034886    6.421281
  12 C      5.470816    8.663061    5.468376
  13 C      5.737627    6.063910    5.477029
  14 C      6.141167    7.461684    5.648469
  15 C      6.919788    5.269253    5.516451
  16 C      3.395222    6.555021    5.470485
  17 C      4.543728    4.118266    5.250607
  18 C      4.391635    5.523238    5.375784
  19 C      5.607637    3.416012    5.249292
  20 C      3.303639    7.802487    5.647171
  21 C      6.955399    3.830063    5.385700
  22 C      8.266297    3.311144    5.454136
  23 C      4.070844    8.990283    5.680940

Unit cell:
           periodic     x           y           z      points  spacing
  1. axis:    yes   16.000000    0.000000    0.000000    80     0.2000
  2. axis:    yes    0.000000   16.000000    0.000000    80     0.2000
  3. axis:    yes    0.000000    0.000000   10.000000    48     0.2083

Effective grid spacing dv^(1/3) = 0.2027

                     log10-error:    total        iterations:
           time      wfs    density  energy       fermi  poisson
iter:   1  12:19:02          +inf  -180.005947    3      5      
iter:   2  12:19:03         -2.19  -179.993519    2      2      
iter:   3  12:19:03         -2.35  -179.985749    2      2      
iter:   4  12:19:04         -2.46  -179.976362    3      2      
iter:   5  12:19:05         -2.68  -179.972600    3      2      
iter:   6  12:19:05         -2.90  -179.971064    2      2      
iter:   7  12:19:06         -3.06  -179.969824    2      2      
iter:   8  12:19:07         -3.30  -179.968657    2      1      
iter:   9  12:19:07         -3.38  -179.965594    2      1      
iter:  10  12:19:08         -3.63  -179.966197    2      1      
iter:  11  12:19:08         -3.87  -179.968374    2      1      
iter:  12  12:19:09         -3.93  -179.968721    2      1      
iter:  13  12:19:10         -4.07  -179.968500    2      1      

Converged after 13 iterations.

Dipole moment: (-0.207936, -0.414559, -0.081842) |e|*Ang

Energy contributions relative to reference atoms: (reference = -24663.074771)

Kinetic:       +132.857277
Potential:     -132.552865
External:        +0.000000
XC:            -183.169170
Entropy (-ST):   -0.124459
Local:           +2.958487
--------------------------
Free energy:   -180.030730
Extrapolated:  -179.968500

Fermi level: -3.72551

 Band  Eigenvalues  Occupancy
    0    -23.46920    2.00000
    1    -23.10363    2.00000
    2    -22.48625    2.00000
    3    -21.56556    2.00000
    4    -21.21974    2.00000
    5    -20.26461    2.00000
    6    -19.58519    2.00000
    7    -19.41167    2.00000
    8    -18.89305    2.00000
    9    -18.46636    2.00000
   10    -18.12897    2.00000
   11    -16.90044    2.00000
   12    -16.26131    2.00000
   13    -15.70229    2.00000
   14    -15.60002    2.00000
   15    -15.45903    2.00000
   16    -14.21717    2.00000
   17    -13.61423    2.00000
   18    -13.03819    2.00000
   19    -12.82560    2.00000
   20    -12.72331    2.00000
   21    -12.35538    2.00000
   22    -11.97205    2.00000
   23    -11.26511    2.00000
   24    -11.03403    2.00000
   25    -10.80706    2.00000
   26    -10.71563    2.00000
   27    -10.46876    2.00000
   28    -10.14688    2.00000
   29     -9.90984    2.00000
   30     -9.84432    2.00000
   31     -9.32922    2.00000
   32     -9.15215    2.00000
   33     -9.01452    2.00000
   34     -8.73697    2.00000
   35     -8.26069    2.00000
   36     -7.84839    2.00000
   37     -7.18057    2.00000
   38     -6.92497    2.00000
   39     -6.82837    2.00000
   40     -6.62677    2.00000
   41     -6.53223    2.00000
   42     -6.31889    2.00000
   43     -6.09358    2.00000
   44     -5.74631    2.00000
   45     -5.54730    2.00000
   46     -4.22665    1.98676
   47     -3.97378    1.84584
   48     -3.47946    0.15734
   49     -3.14297    0.00589
   50     -3.10456    0.00401
   51     -2.78088    0.00016
   52     -2.36292    0.00000
   53     -2.11678    0.00000
   54     -2.00308    0.00000
   55     -1.77454    0.00000
   56     -1.67585    0.00000
   57     -0.88650    0.00000
   58     -0.18279    0.00000
   59      0.37087    0.00000
   60      0.91648    0.00000
   61      1.48485    0.00000
   62      1.94534    0.00000
   63      2.25644    0.00000
   64      2.97718    0.00000
   65      3.17639    0.00000
   66      3.40796    0.00000
   67      4.11426    0.00000
   68      4.48258    0.00000
   69      4.81647    0.00000
   70      5.23115    0.00000
   71      5.28101    0.00000
   72      5.67218    0.00000
   73      5.97632    0.00000
   74      6.02431    0.00000
   75      6.82111    0.00000
   76      7.16180    0.00000
   77      7.46143    0.00000
   78      8.09009    0.00000
   79      8.23630    0.00000
   80      8.61206    0.00000
   81      8.64510    0.00000
   82      8.86718    0.00000
   83      9.01883    0.00000
   84      9.04165    0.00000
   85      9.09291    0.00000
   86      9.32630    0.00000
   87      9.34468    0.00000
   88      9.43951    0.00000
   89      9.47952    0.00000
   90      9.60743    0.00000
   91      9.89381    0.00000
   92      9.95464    0.00000
   93      9.99023    0.00000
   94     10.10115    0.00000
   95     10.19788    0.00000
   96     10.26866    0.00000
   97     10.46912    0.00000


Forces in eV/Ang:
  0 C    -0.14511    2.48877    0.19410
  1 C    -1.35295    1.34119   -0.86186
  2 C    10.27914    1.94750    1.47543
  3 C    -2.07929   -1.83122   -2.60397
  4 C     3.52917   -0.53855    1.54228
  5 C     2.67832   -0.47297   -0.71442
  6 C     0.71226    0.21067    0.68207
  7 C     0.20401   -0.25077    0.17460
  8 C    -0.02634    0.14316   -0.03806
  9 C     0.11553   -0.05459   -0.12756
 10 C    -0.21516   -0.08696    0.46604
 11 C    -2.30608    1.41640    1.44094
 12 C    -3.62699   -0.20384   -0.75158
 13 C     1.79125    1.23274    0.20585
 14 C    -1.46335    1.01755    0.51172
 15 C     4.46131   -0.73717    0.60343
 16 C    -0.40861   -0.43447   -0.04179
 17 C     0.06773   -0.08965    0.04798
 18 C     0.18590    0.41359   -0.03174
 19 C    -0.29168    0.06513   -0.00630
 20 C     0.03163    0.23239   -0.17439
 21 C    -1.45721   -0.85623   -0.21310
 22 C   -12.29593   -4.78941   -1.84059
 23 C     1.65606   -0.18554    0.03010

System changes: positions 

Initializing position-dependent things.

Density initialized from wave functions
           .--------------------------------------.  
          /|                                      |  
         / |                                      |  
        /  |                                      |  
       /   |                                      |  
      /    |                                      |  
     /     |                                      |  
    /      |                                      |  
   /       |       C  C  C                        |  
  /        |                                      |  
 *         |  C  C  C   C C   C  C                |  
 |         | C       C         CC                 |  
 |         .---C---C-C---C--C---------------------.  
 |        /    C    C  C  C                      /   
 |       /       C                              /    
 |      /                                      /     
 |     /                                      /      
 |    /                                      /       
 |   /                                      /        
 |  /                                      /         
 | /                                      /          
 |/                                      /           
 *--------------------------------------*            

Positions:
   0 C      9.642937    4.989864    5.712460
   1 C      8.372596    5.781530    5.730457
   2 C      9.370854    3.600998    5.626280
   3 C      6.057039   10.008093    6.377926
   4 C      7.237208    9.435905    6.371385
   5 C      7.373984    8.016419    6.132231
   6 C      8.507119    7.222967    5.912494
   7 C     10.864293    5.677296    5.809908
   8 C     11.059926    6.945973    5.620312
   9 C     10.977880    8.379688    5.418330
  10 C      9.788700    7.793972    5.744291
  11 C      4.677720   10.047732    6.434299
  12 C      5.440044    8.661523    5.462102
  13 C      5.753452    6.074291    5.478822
  14 C      6.129360    7.470368    5.653183
  15 C      6.959167    5.264939    5.521989
  16 C      3.391658    6.551819    5.470151
  17 C      4.544747    4.117183    5.251080
  18 C      4.393811    5.527189    5.375567
  19 C      5.602999    3.416792    5.249023
  20 C      3.303789    7.803916    5.645561
  21 C      6.938809    3.822543    5.383648
  22 C      8.242220    3.290007    5.450434
  23 C      4.084337    8.988467    5.681063

Unit cell:
           periodic     x           y           z      points  spacing
  1. axis:    yes   16.000000    0.000000    0.000000    80     0.2000
  2. axis:    yes    0.000000   16.000000    0.000000    80     0.2000
  3. axis:    yes    0.000000    0.000000   10.000000    48     0.2083

Effective grid spacing dv^(1/3) = 0.2027

                     log10-error:    total        iterations:
           time      wfs    density  energy       fermi  poisson
iter:   1  12:19:12          +inf  -181.279309    3      5      
iter:   2  12:19:13         -1.90  -181.219166    3      2      
iter:   3  12:19:13         -2.00  -181.143771    3      2      
iter:   4  12:19:14         -2.28  -181.132250    3      2      
iter:   5  12:19:14         -2.44  -181.129453    3      2      
iter:   6  12:19:15         -2.63  -181.129134    2      2      
iter:   7  12:19:16         -2.80  -181.127112    2      2      
iter:   8  12:19:16         -3.01  -181.126793    2      2      
iter:   9  12:19:17         -3.24  -181.127403    2      1      
iter:  10  12:19:18         -3.36  -181.127239    2      1      
iter:  11  12:19:18         -3.60  -181.126451    2      1      
iter:  12  12:19:19         -3.71  -181.126722    2      1      
iter:  13  12:19:19         -3.79  -181.126062    2      1      
iter:  14  12:19:20         -4.00  -181.126157    2      1      
iter:  15  12:19:21         -4.21  -181.126537    2      1      

Converged after 15 iterations.

Dipole moment: (-0.263148, -0.423198, -0.102197) |e|*Ang

Energy contributions relative to reference atoms: (reference = -24663.074771)

Kinetic:       +125.549960
Potential:     -127.746046
External:        +0.000000
XC:            -181.848181
Entropy (-ST):   -0.124934
Local:           +2.980197
--------------------------
Free energy:   -181.189004
Extrapolated:  -181.126537

Fermi level: -3.76323

 Band  Eigenvalues  Occupancy
    0    -23.44630    2.00000
    1    -23.13276    2.00000
    2    -22.43870    2.00000
    3    -21.39746    2.00000
    4    -21.24645    2.00000
    5    -20.26027    2.00000
    6    -19.54153    2.00000
    7    -19.40384    2.00000
    8    -18.92696    2.00000
    9    -18.44353    2.00000
   10    -18.05255    2.00000
   11    -16.93702    2.00000
   12    -16.18913    2.00000
   13    -15.74695    2.00000
   14    -15.64806    2.00000
   15    -15.42797    2.00000
   16    -14.22383    2.00000
   17    -13.61069    2.00000
   18    -13.04707    2.00000
   19    -12.79506    2.00000
   20    -12.67178    2.00000
   21    -12.41769    2.00000
   22    -11.86863    2.00000
   23    -11.22929    2.00000
   24    -10.92989    2.00000
   25    -10.81243    2.00000
   26    -10.76860    2.00000
   27    -10.49558    2.00000
   28    -10.13002    2.00000
   29     -9.92900    2.00000
   30     -9.84259    2.00000
   31     -9.28672    2.00000
   32     -9.28468    2.00000
   33     -8.91903    2.00000
   34     -8.74746    2.00000
   35     -8.34091    2.00000
   36     -7.85022    2.00000
   37     -7.15498    2.00000
   38     -6.84844    2.00000
   39     -6.76438    2.00000
   40     -6.64356    2.00000
   41     -6.60002    2.00000
   42     -6.35124    2.00000
   43     -6.05931    2.00000
   44     -5.77241    2.00000
   45     -5.53709    2.00000
   46     -4.39674    1.99646
   47     -4.00029    1.82911
   48     -3.52178    0.16414
   49     -3.19199    0.00659
   50     -3.12867    0.00350
   51     -2.83980    0.00020
   52     -2.46154    0.00000
   53     -2.27512    0.00000
   54     -2.06328    0.00000
   55     -1.83805    0.00000
   56     -1.73823    0.00000
   57     -0.80678    0.00000
   58     -0.14678    0.00000
   59      0.35590    0.00000
   60      0.88394    0.00000
   61      1.47281    0.00000
   62      1.94629    0.00000
   63      2.22708    0.00000
   64      2.96961    0.00000
   65      3.09284    0.00000
   66      3.63598    0.00000
   67      4.17100    0.00000
   68      4.50558    0.00000
   69      4.85209    0.00000
   70      5.21415    0.00000
   71      5.24917    0.00000
   72      5.75847    0.00000
   73      5.99338    0.00000
   74      6.05327    0.00000
   75      6.82005    0.00000
   76      6.97263    0.00000
   77      7.37431    0.00000
   78      7.99028    0.00000
   79      8.24379    0.00000
   80      8.53762    0.00000
   81      8.69361    0.00000
   82      8.85121    0.00000
   83      9.04771    0.00000
   84      9.06628    0.00000
   85      9.10427    0.00000
   86      9.25052    0.00000
   87      9.33625    0.00000
   88      9.45373    0.00000
   89      9.47929    0.00000
   90      9.64112    0.00000
   91      9.90087    0.00000
   92      9.93547    0.00000
   93     10.00689    0.00000
   94     10.12394    0.00000
   95     10.22171    0.00000
   96     10.29722    0.00000
   97     10.46190    0.00000


Forces in eV/Ang:
  0 C    -0.61873    0.84125    0.01640
  1 C    -0.60564    0.79311   -0.73421
  2 C     5.87036    1.73904    0.85727
  3 C    -0.40428   -2.51395   -2.48446
  4 C     1.52901    0.27990    1.39925
  5 C     1.01000    0.16967   -0.77235
  6 C     0.71046    0.01986    0.51816
  7 C     0.29961   -0.15026    0.20334
  8 C    -0.03095    0.32235   -0.04331
  9 C     0.03523   -0.11087   -0.10157
 10 C     0.19498   -0.00086    0.38901
 11 C    -1.78301    1.35761    1.35613
 12 C    -1.83661   -0.29218   -0.48259
 13 C     1.69121    0.59752    0.20674
 14 C    -0.56008    0.85927    0.50843
 15 C     2.75817   -0.19508    0.42891
 16 C    -0.30129    0.04519   -0.02113
 17 C    -0.21109    0.36749    0.08464
 18 C     0.58998    0.29488   -0.00228
 19 C    -0.44642   -0.14882   -0.06123
 20 C    -0.02990   -0.19134   -0.18872
 21 C    -0.56603   -0.71730   -0.09009
 22 C    -7.41178   -3.26413   -1.10080
 23 C     0.19572   -0.11731    0.07528

System changes: positions 

Initializing position-dependent things.

Density initialized from wave functions
           .--------------------------------------.  
          /|                                      |  
         / |                                      |  
        /  |                                      |  
       /   |                                      |  
      /    |                                      |  
     /     |                                      |  
    /      |                                      |  
   /       |       C  C  C                        |  
  /        |                                      |  
 *         |  C  C  C   C C   C  C                |  
 |         | C       C         CC                 |  
 |         .---C---C-C---C--C---------------------.  
 |        /    C    C  C  C                      /   
 |       /       C                              /    
 |      /                                      /     
 |     /                                      /      
 |    /                                      /       
 |   /                                      /        
 |  /                                      /         
 | /                                      /          
 |/                                      /           
 *--------------------------------------*            

Positions:
   0 C      9.635647    4.998345    5.712340
   1 C      8.366005    5.789581    5.722516
   2 C      9.375816    3.601844    5.626440
   3 C      6.056001    9.978869    6.350634
   4 C      7.250366    9.440761    6.386709
   5 C      7.382310    8.019276    6.123477
   6 C      8.515018    7.222798    5.917958
   7 C     10.868223    5.677051    5.812176
   8 C     11.059615    6.949205    5.619873
   9 C     10.978005    8.378389    5.417302
  10 C      9.791630    7.794212    5.748440
  11 C      4.658797   10.062733    6.449227
  12 C      5.422508    8.658435    5.457333
  13 C      5.771825    6.079881    5.481062
  14 C      6.124847    7.479394    5.658865
  15 C      6.987704    5.264830    5.526656
  16 C      3.388499    6.553191    5.469963
  17 C      4.542481    4.121411    5.252072
  18 C      4.400992    5.530507    5.375614
  19 C      5.596552    3.415115    5.248157
  20 C      3.303317    7.801007    5.643438
  21 C      6.930861    3.814869    5.382659
  22 C      8.224469    3.270465    5.447812
  23 C      4.084351    8.987125    5.681827

Unit cell:
           periodic     x           y           z      points  spacing
  1. axis:    yes   16.000000    0.000000    0.000000    80     0.2000
  2. axis:    yes    0.000000   16.000000    0.000000    80     0.2000
  3. axis:    yes    0.000000    0.000000   10.000000    48     0.2083

Effective grid spacing dv^(1/3) = 0.2027

                     log10-error:    total        iterations:
           time      wfs    density  energy       fermi  poisson
iter:   1  12:19:23          +inf  -181.814182    2      5      
iter:   2  12:19:23         -2.05  -181.782150    2      2      
iter:   3  12:19:24         -2.18  -181.754790    3      2      
iter:   4  12:19:25         -2.44  -181.749649    3      2      
iter:   5  12:19:25         -2.65  -181.748282    2      2      
iter:   6  12:19:26         -2.77  -181.748751    2      1      
iter:   7  12:19:27         -2.84  -181.748269    2      2      
iter:   8  12:19:27         -3.09  -181.748463    2      1      
iter:   9  12:19:28         -3.18  -181.747552    2      2      
iter:  10  12:19:28         -3.58  -181.747187    2      1      
iter:  11  12:19:29         -3.65  -181.747204    2      1      
iter:  12  12:19:30         -3.84  -181.747722    2      1      
iter:  13  12:19:30         -3.98  -181.747269    2      1      
iter:  14  12:19:31         -4.13  -181.747429    2      1      

Converged after 14 iterations.

Dipole moment: (-0.271417, -0.440921, -0.117576) |e|*Ang

Energy contributions relative to reference atoms: (reference = -24663.074771)

Kinetic:       +122.142185
Potential:     -125.652618
External:        +0.000000
XC:            -181.157043
Entropy (-ST):   -0.127684
Local:           +2.983890
--------------------------
Free energy:   -181.811271
Extrapolated:  -181.747429

Fermi level: -3.80598

 Band  Eigenvalues  Occupancy
    0    -23.42461    2.00000
    1    -23.17562    2.00000
    2    -22.41713    2.00000
    3    -21.32997    2.00000
    4    -21.23646    2.00000
    5    -20.25430    2.00000
    6    -19.53053    2.00000
    7    -19.39993    2.00000
    8    -18.93619    2.00000
    9    -18.39320    2.00000
   10    -18.02726    2.00000
   11    -16.99027    2.00000
   12    -16.16460    2.00000
   13    -15.76094    2.00000
   14    -15.65192    2.00000
   15    -15.39769    2.00000
   16    -14.25240    2.00000
   17    -13.56325    2.00000
   18    -13.01905    2.00000
   19    -12.78898    2.00000
   20    -12.60245    2.00000
   21    -12.41880    2.00000
   22    -11.78271    2.00000
   23    -11.19050    2.00000
   24    -10.91575    2.00000
   25    -10.85170    2.00000
   26    -10.78952    2.00000
   27    -10.50177    2.00000
   28    -10.13225    2.00000
   29     -9.95056    2.00000
   30     -9.83251    2.00000
   31     -9.36716    2.00000
   32     -9.28551    2.00000
   33     -8.87929    2.00000
   34     -8.74707    2.00000
   35     -8.38010    2.00000
   36     -7.84855    2.00000
   37     -7.15421    2.00000
   38     -6.85909    2.00000
   39     -6.68254    2.00000
   40     -6.65686    2.00000
   41     -6.61694    2.00000
   42     -6.37401    2.00000
   43     -6.03781    2.00000
   44     -5.78994    2.00000
   45     -5.52497    2.00000
   46     -4.54710    1.99879
   47     -4.03631    1.81831
   48     -3.57025    0.17298
   49     -3.24412    0.00723
   50     -3.13815    0.00251
   51     -2.86466    0.00016
   52     -2.55208    0.00001
   53     -2.40171    0.00000
   54     -2.09119    0.00000
   55     -1.87778    0.00000
   56     -1.74212    0.00000
   57     -0.74507    0.00000
   58     -0.07084    0.00000
   59      0.38490    0.00000
   60      0.89196    0.00000
   61      1.44760    0.00000
   62      1.94942    0.00000
   63      2.22258    0.00000
   64      2.98503    0.00000
   65      3.05102    0.00000
   66      3.75629    0.00000
   67      4.18909    0.00000
   68      4.52535    0.00000
   69      4.86567    0.00000
   70      5.22625    0.00000
   71      5.27211    0.00000
   72      5.79499    0.00000
   73      6.00295    0.00000
   74      6.06513    0.00000
   75      6.74689    0.00000
   76      6.86814    0.00000
   77      7.33018    0.00000
   78      7.90122    0.00000
   79      8.24217    0.00000
   80      8.53187    0.00000
   81      8.69303    0.00000
   82      8.83013    0.00000
   83      9.03250    0.00000
   84      9.06122    0.00000
   85      9.11086    0.00000
   86      9.19191    0.00000
   87      9.31610    0.00000
   88      9.42100    0.00000
   89      9.50874    0.00000
   90      9.65494    0.00000
   91      9.87605    0.00000
   92      9.93082    0.00000
   93     10.01670    0.00000
   94     10.12381    0.00000
   95     10.20719    0.00000
   96     10.31953    0.00000
   97     10.45248    0.00000


Forces in eV/Ang:
  0 C    -0.34561    0.47342   -0.04655
  1 C    -0.06581    0.53875   -0.55893
  2 C     3.14206    1.19753    0.46147
  3 C    -1.01904   -2.08224   -2.29709
  4 C     1.38730    0.03569    1.22600
  5 C     0.67058    0.40024   -0.65739
  6 C     0.38605    0.15265    0.42338
  7 C     0.10576   -0.09465    0.16621
  8 C     0.01695    0.09371   -0.02033
  9 C     0.12508    0.02762   -0.13119
 10 C     0.19836   -0.00774    0.38481
 11 C    -1.12199    0.96976    1.04778
 12 C    -1.05185   -0.10885   -0.23649
 13 C     1.38784    0.34579    0.18077
 14 C    -0.11358    0.48604    0.36913
 15 C     1.57734   -0.17264    0.24573
 16 C    -0.05135   -0.27979   -0.07103
 17 C    -0.14679    0.40089    0.09550
 18 C     0.69221    0.45115    0.03813
 19 C    -0.48438   -0.09385   -0.06978
 20 C    -0.09872    0.02017   -0.12672
 21 C    -0.35736   -0.56258   -0.01547
 22 C    -4.39563   -2.36551   -0.66885
 23 C    -0.33029    0.16542    0.24647

System changes: positions 

Initializing position-dependent things.

Density initialized from wave functions
           .--------------------------------------.  
          /|                                      |  
         / |                                      |  
        /  |                                      |  
       /   |                                      |  
      /    |                                      |  
     /     |                                      |  
    /      |                                      |  
   /       |       C  C  C                        |  
  /        |                                      |  
 *         |  C  C  C   C C   C  C                |  
 |         | C       C         CC                 |  
 |         .---C---C-C---C--C---------------------.  
 |        /    C    C  C  C                      /   
 |       /       C                              /    
 |      /                                      /     
 |     /                                      /      
 |    /                                      /       
 |   /                                      /        
 |  /                                      /         
 | /                                      /          
 |/                                      /           
 *--------------------------------------*            

Positions:
   0 C      9.631300    5.003940    5.711597
   1 C      8.365237    5.795807    5.715772
   2 C      9.375733    3.604500    5.626087
   3 C      6.045094    9.952608    6.322502
   4 C      7.265458    9.442070    6.401688
   5 C      7.389030    8.024748    6.115295
   6 C      8.519702    7.224511    5.923010
   7 C     10.869845    5.676801    5.814216
   8 C     11.059859    6.950030    5.619658
   9 C     10.979419    8.378737    5.415734
  10 C      9.794474    7.794257    5.753095
  11 C      4.645568   10.074562    6.462011
  12 C      5.411152    8.657264    5.454797
  13 C      5.788630    6.083560    5.483249
  14 C      6.124450    7.484995    5.663408
  15 C      7.005917    5.263911    5.529621
  16 C      3.388026    6.550100    5.469099
  17 C      4.540807    4.126348    5.253278
  18 C      4.409870    5.536173    5.376134
  19 C      5.589633    3.414009    5.247186
  20 C      3.302005    7.800907    5.641877
  21 C      6.925202    3.808123    5.382465
  22 C      8.211860    3.252015    5.445743
  23 C      4.079095    8.989198    5.684856

Unit cell:
           periodic     x           y           z      points  spacing
  1. axis:    yes   16.000000    0.000000    0.000000    80     0.2000
  2. axis:    yes    0.000000   16.000000    0.000000    80     0.2000
  3. axis:    yes    0.000000    0.000000   10.000000    48     0.2083

Effective grid spacing dv^(1/3) = 0.2027

                     log10-error:    total        iterations:
           time      wfs    density  energy       fermi  poisson
iter:   1  12:19:33          +inf  -182.167194    2      5      
iter:   2  12:19:34         -2.22  -182.148333    2      2      
iter:   3  12:19:34         -2.35  -182.136373    2      2      
iter:   4  12:19:35         -2.50  -182.132544    3      2      
iter:   5  12:19:36         -2.74  -182.131198    2      2      
iter:   6  12:19:36         -2.89  -182.131587    2      2      
iter:   7  12:19:37         -3.03  -182.131258    2      2      
iter:   8  12:19:38         -3.31  -182.131621    2      1      
iter:   9  12:19:38         -3.41  -182.131870    2      1      
iter:  10  12:19:39         -3.72  -182.130753    2      1      
iter:  11  12:19:39         -3.81  -182.130538    2      1      
iter:  12  12:19:40         -3.95  -182.130905    2      1      
iter:  13  12:19:41         -4.05  -182.130790    2      1      

Converged after 13 iterations.

Dipole moment: (-0.261877, -0.461544, -0.128674) |e|*Ang

Energy contributions relative to reference atoms: (reference = -24663.074771)

Kinetic:       +119.435725
Potential:     -123.920179
External:        +0.000000
XC:            -180.543820
Entropy (-ST):   -0.134519
Local:           +2.964743
--------------------------
Free energy:   -182.198049
Extrapolated:  -182.130790

Fermi level: -3.84991

 Band  Eigenvalues  Occupancy
    0    -23.41820    2.00000
    1    -23.19309    2.00000
    2    -22.40127    2.00000
    3    -21.30819    2.00000
    4    -21.21739    2.00000
    5    -20.23912    2.00000
    6    -19.51272    2.00000
    7    -19.39532    2.00000
    8    -18.94796    2.00000
    9    -18.35878    2.00000
   10    -17.95799    2.00000
   11    -17.03459    2.00000
   12    -16.15739    2.00000
   13    -15.76302    2.00000
   14    -15.63954    2.00000
   15    -15.36818    2.00000
   16    -14.25863    2.00000
   17    -13.52114    2.00000
   18    -13.00435    2.00000
   19    -12.77499    2.00000
   20    -12.55656    2.00000
   21    -12.41681    2.00000
   22    -11.72261    2.00000
   23    -11.16459    2.00000
   24    -10.94733    2.00000
   25    -10.82396    2.00000
   26    -10.79542    2.00000
   27    -10.50194    2.00000
   28    -10.13270    2.00000
   29     -9.96901    2.00000
   30     -9.82132    2.00000
   31     -9.41260    2.00000
   32     -9.29159    2.00000
   33     -8.86045    2.00000
   34     -8.73886    2.00000
   35     -8.40553    2.00000
   36     -7.84336    2.00000
   37     -7.13289    2.00000
   38     -6.87301    2.00000
   39     -6.65921    2.00000
   40     -6.65773    2.00000
   41     -6.60518    2.00000
   42     -6.37072    2.00000
   43     -5.98164    2.00000
   44     -5.82021    2.00000
   45     -5.51321    2.00000
   46     -4.64826    1.99932
   47     -4.07038    1.80135
   48     -3.62470    0.19034
   49     -3.28168    0.00679
   50     -3.16139    0.00204
   51     -2.89604    0.00014
   52     -2.63330    0.00001
   53     -2.48811    0.00000
   54     -2.12149    0.00000
   55     -1.90731    0.00000
   56     -1.75192    0.00000
   57     -0.70594    0.00000
   58     -0.00919    0.00000
   59      0.44074    0.00000
   60      0.90029    0.00000
   61      1.41220    0.00000
   62      1.96013    0.00000
   63      2.20997    0.00000
   64      2.98898    0.00000
   65      3.04070    0.00000
   66      3.81385    0.00000
   67      4.18829    0.00000
   68      4.54422    0.00000
   69      4.86928    0.00000
   70      5.26245    0.00000
   71      5.30306    0.00000
   72      5.80089    0.00000
   73      6.01028    0.00000
   74      6.05859    0.00000
   75      6.64821    0.00000
   76      6.84701    0.00000
   77      7.29732    0.00000
   78      7.88108    0.00000
   79      8.21889    0.00000
   80      8.53909    0.00000
   81      8.68949    0.00000
   82      8.81568    0.00000
   83      9.03166    0.00000
   84      9.05853    0.00000
   85      9.12294    0.00000
   86      9.16181    0.00000
   87      9.29580    0.00000
   88      9.40814    0.00000
   89      9.53163    0.00000
   90      9.66347    0.00000
   91      9.85340    0.00000
   92      9.91926    0.00000
   93     10.02813    0.00000
   94     10.12096    0.00000
   95     10.18969    0.00000
   96     10.33282    0.00000
   97     10.44902    0.00000


Forces in eV/Ang:
  0 C    -0.15166    0.23674   -0.08592
  1 C     0.16508    0.39436   -0.40927
  2 C     1.56152    0.84435    0.23618
  3 C    -0.62103   -1.97690   -2.08986
  4 C     0.73303    0.18983    1.00906
  5 C     0.38567    0.48159   -0.52731
  6 C     0.30202    0.14234    0.30662
  7 C    -0.00212   -0.09850    0.12799
  8 C     0.04891    0.08153   -0.01330
  9 C     0.14188    0.01770   -0.11828
 10 C     0.24245    0.01171    0.36765
 11 C    -0.85554    0.66274    0.86333
 12 C    -0.55524    0.03105   -0.06630
 13 C     1.11188    0.29135    0.18769
 14 C     0.06507    0.24349    0.24270
 15 C     0.90645   -0.24514    0.11535
 16 C     0.04204   -0.01957   -0.05139
 17 C    -0.13438    0.44527    0.09651
 18 C     0.69576    0.43807    0.05007
 19 C    -0.40981   -0.07147   -0.06061
 20 C    -0.09322   -0.22520   -0.10738
 21 C    -0.25441   -0.43789    0.01209
 22 C    -2.62515   -1.76507   -0.39979
 23 C    -0.63235    0.22800    0.26834

System changes: positions 

Initializing position-dependent things.

Density initialized from wave functions
           .--------------------------------------.  
          /|                                      |  
         / |                                      |  
        /  |                                      |  
       /   |                                      |  
      /    |                                      |  
     /     |                                      |  
    /      |                                      |  
   /       |       C  C  C                        |  
  /        |                                      |  
 *         |  C  C  C   C C   C  C                |  
 |         | C       C         CC                 |  
 |         .---C---C-C---C--C---------------------.  
 |        /    C    C  C  C                      /   
 |       /       C                              /    
 |      /                                      /     
 |     /                                      /      
 |    /                                      /       
 |   /                                      /        
 |  /                                      /         
 | /                                      /          
 |/                                      /           
 *--------------------------------------*            

Positions:
   0 C      9.629436    5.008270    5.710453
   1 C      8.366792    5.801342    5.710177
   2 C      9.373188    3.607627    5.625541
   3 C      6.037005    9.925626    6.294102
   4 C      7.275325    9.444834    6.415439
   5 C      7.394441    8.031139    6.108090
   6 C      8.523881    7.226400    5.927190
   7 C     10.870038    5.676020    5.815937
   8 C     11.060538    6.950873    5.619497
   9 C     10.981278    8.378958    5.414158
  10 C      9.797772    7.794462    5.758083
  11 C      4.633761   10.083627    6.473808
  12 C      5.403243    8.657822    5.453904
  13 C      5.803673    6.087655    5.485784
  14 C      6.125251    7.488250    5.666737
  15 C      7.018946    5.261030    5.531319
  16 C      3.388546    6.549952    5.468420
  17 C      4.539250    4.132068    5.254580
  18 C      4.419242    5.542216    5.376815
  19 C      5.583528    3.413206    5.246328
  20 C      3.300745    7.797748    5.640405
  21 C      6.920141    3.802166    5.382512
  22 C      8.201497    3.234331    5.444068
  23 C      4.070857    8.992163    5.688393

Unit cell:
           periodic     x           y           z      points  spacing
  1. axis:    yes   16.000000    0.000000    0.000000    80     0.2000
  2. axis:    yes    0.000000   16.000000    0.000000    80     0.2000
  3. axis:    yes    0.000000    0.000000   10.000000    48     0.2083

Effective grid spacing dv^(1/3) = 0.2027

                     log10-error:    total        iterations:
           time      wfs    density  energy       fermi  poisson
iter:   1  12:19:43          +inf  -182.433762    3      5      
iter:   2  12:19:43         -2.24  -182.413693    2      2      
iter:   3  12:19:44         -2.43  -182.408135    2      1      
iter:   4  12:19:45         -2.55  -182.403688    3      2      
iter:   5  12:19:45         -2.78  -182.403145    2      1      
iter:   6  12:19:46         -2.86  -182.403042    2      2      
iter:   7  12:19:47         -3.08  -182.403532    2      1      
iter:   8  12:19:47         -3.23  -182.403104    2      1      
iter:   9  12:19:48         -3.48  -182.402788    2      1      
iter:  10  12:19:48         -3.72  -182.402587    2      1      
iter:  11  12:19:49         -3.84  -182.402454    2      1      
iter:  12  12:19:50         -3.96  -182.402510    2      1      
iter:  13  12:19:50         -4.06  -182.402514    1      1      

Converged after 13 iterations.

Dipole moment: (-0.237339, -0.483273, -0.139739) |e|*Ang

Energy contributions relative to reference atoms: (reference = -24663.074771)

Kinetic:       +117.811368
Potential:     -122.958476
External:        +0.000000
XC:            -180.149776
Entropy (-ST):   -0.141086
Local:           +2.964913
--------------------------
Free energy:   -182.473057
Extrapolated:  -182.402514

Fermi level: -3.89457

 Band  Eigenvalues  Occupancy
    0    -23.42458    2.00000
    1    -23.19992    2.00000
    2    -22.38820    2.00000
    3    -21.30200    2.00000
    4    -21.18829    2.00000
    5    -20.23361    2.00000
    6    -19.49730    2.00000
    7    -19.39576    2.00000
    8    -18.96023    2.00000
    9    -18.32304    2.00000
   10    -17.89775    2.00000
   11    -17.06813    2.00000
   12    -16.14418    2.00000
   13    -15.76309    2.00000
   14    -15.61327    2.00000
   15    -15.34445    2.00000
   16    -14.26668    2.00000
   17    -13.47490    2.00000
   18    -12.99462    2.00000
   19    -12.75662    2.00000
   20    -12.50747    2.00000
   21    -12.40325    2.00000
   22    -11.67647    2.00000
   23    -11.14501    2.00000
   24    -10.96537    2.00000
   25    -10.81597    2.00000
   26    -10.77259    2.00000
   27    -10.49252    2.00000
   28    -10.13241    2.00000
   29     -9.98192    2.00000
   30     -9.80807    2.00000
   31     -9.44721    2.00000
   32     -9.30547    2.00000
   33     -8.85377    2.00000
   34     -8.73595    2.00000
   35     -8.42056    2.00000
   36     -7.84414    2.00000
   37     -7.11768    2.00000
   38     -6.88899    2.00000
   39     -6.66028    2.00000
   40     -6.65123    2.00000
   41     -6.58358    2.00000
   42     -6.36569    2.00000
   43     -5.91839    2.00000
   44     -5.85370    2.00000
   45     -5.50825    2.00000
   46     -4.72061    1.99948
   47     -4.10607    1.78470
   48     -3.67927    0.20810
   49     -3.31527    0.00608
   50     -3.17455    0.00149
   51     -2.93218    0.00013
   52     -2.69641    0.00001
   53     -2.54854    0.00000
   54     -2.13645    0.00000
   55     -1.90334    0.00000
   56     -1.74892    0.00000
   57     -0.69297    0.00000
   58      0.02135    0.00000
   59      0.50642    0.00000
   60      0.94831    0.00000
   61      1.38477    0.00000
   62      1.97940    0.00000
   63      2.20646    0.00000
   64      2.97972    0.00000
   65      3.09269    0.00000
   66      3.85816    0.00000
   67      4.17861    0.00000
   68      4.56471    0.00000
   69      4.86408    0.00000
   70      5.28907    0.00000
   71      5.32988    0.00000
   72      5.78828    0.00000
   73      6.01793    0.00000
   74      6.07226    0.00000
   75      6.57142    0.00000
   76      6.81937    0.00000
   77      7.27168    0.00000
   78      7.87582    0.00000
   79      8.18606    0.00000
   80      8.53984    0.00000
   81      8.68357    0.00000
   82      8.79702    0.00000
   83      9.02758    0.00000
   84      9.05243    0.00000
   85      9.12572    0.00000
   86      9.14064    0.00000
   87      9.27945    0.00000
   88      9.40418    0.00000
   89      9.55297    0.00000
   90      9.67245    0.00000
   91      9.83813    0.00000
   92      9.90184    0.00000
   93     10.04411    0.00000
   94     10.11388    0.00000
   95     10.18080    0.00000
   96     10.34630    0.00000
   97     10.45128    0.00000


Forces in eV/Ang:
  0 C    -0.05568    0.02436   -0.11077
  1 C     0.25419    0.26677   -0.31072
  2 C     0.47429    0.56810    0.08153
  3 C    -0.57072   -1.64663   -1.83164
  4 C     0.40057    0.18988    0.84564
  5 C     0.22274    0.50910   -0.42143
  6 C     0.22916    0.14531    0.22232
  7 C     0.00320   -0.02513    0.08826
  8 C     0.06394    0.01822    0.00198
  9 C     0.16553    0.01435   -0.10351
 10 C     0.26272    0.02453    0.36397
 11 C    -0.57599    0.41482    0.68547
 12 C    -0.34944    0.07928    0.08231
 13 C     0.87378    0.15819    0.15804
 14 C     0.18103    0.19573    0.14267
 15 C     0.49356   -0.19381    0.06366
 16 C     0.18127   -0.22230   -0.08492
 17 C    -0.08243    0.45540    0.08593
 18 C     0.65619    0.44279    0.06043
 19 C    -0.38760   -0.04019   -0.05296
 20 C    -0.09041    0.02436   -0.03813
 21 C    -0.16358   -0.36258    0.02302
 22 C    -1.41535   -1.27935   -0.20681
 23 C    -0.72808    0.19197    0.25218

System changes: positions 

Initializing position-dependent things.

Density initialized from wave functions
           .--------------------------------------.  
          /|                                      |  
         / |                                      |  
        /  |                                      |  
       /   |                                      |  
      /    |                                      |  
     /     |                                      |  
    /      |                                      |  
   /       |       C  C  C                        |  
  /        |                                      |  
 *         |  C  C  C   C C   C  C                |  
 |         | C       C         CC                 |  
 |         .---C---C-C---C--C---------------------.  
 |        /    C    C  C  C                      /   
 |       /       C                              /    
 |      /                                      /     
 |     /                                      /      
 |    /                                      /       
 |   /                                      /        
 |  /                                      /         
 | /                                      /          
 |/                                      /           
 *--------------------------------------*            

Positions:
   0 C      9.628579    5.010659    5.708895
   1 C      8.369371    5.806188    5.705004
   2 C      9.368353    3.611159    5.624800
   3 C      6.027925    9.899606    6.265111
   4 C      7.282900    9.447707    6.429028
   5 C      7.399222    8.038468    6.101317
   6 C      8.527837    7.228616    5.930902
   7 C     10.870406    5.675920    5.817351
   8 C     11.061491    6.951098    5.619517
   9 C     10.983758    8.379089    5.412566
  10 C      9.801669    7.794833    5.763805
  11 C      4.623658   10.090710    6.484990
  12 C      5.395830    8.658974    5.454751
  13 C      5.817763    6.090777    5.488269
  14 C      6.127148    7.491752    5.669193
  15 C      7.029299    5.258091    5.532706
  16 C      3.390997    6.546593    5.467145
  17 C      4.538203    4.138688    5.255894
  18 C      4.429186    5.549126    5.377704
  19 C      5.577140    3.412730    5.245499
  20 C      3.299416    7.798072    5.639721
  21 C      6.915779    3.796234    5.382657
  22 C      8.192208    3.217152    5.442739
  23 C      4.060965    8.994796    5.692093

Unit cell:
           periodic     x           y           z      points  spacing
  1. axis:    yes   16.000000    0.000000    0.000000    80     0.2000
  2. axis:    yes    0.000000   16.000000    0.000000    80     0.2000
  3. axis:    yes    0.000000    0.000000   10.000000    48     0.2083

Effective grid spacing dv^(1/3) = 0.2027

                     log10-error:    total        iterations:
           time      wfs    density  energy       fermi  poisson
iter:   1  12:19:52          +inf  -182.639685    3      5      
iter:   2  12:19:53         -2.24  -182.616879    2      2      
iter:   3  12:19:54         -2.45  -182.611762    2      1      
iter:   4  12:19:54         -2.58  -182.608245    3      2      
iter:   5  12:19:55         -2.82  -182.607092    2      1      
iter:   6  12:19:56         -2.88  -182.607463    2      2      
iter:   7  12:19:56         -3.11  -182.608805    2      2      
iter:   8  12:19:57         -2.84  -182.605690    2      1      
iter:   9  12:19:57         -3.59  -182.607253    2      1      
iter:  10  12:19:58         -3.69  -182.607275    2      1      
iter:  11  12:19:59         -3.86  -182.606967    2      1      
iter:  12  12:19:59         -4.06  -182.607017    2      1      

Converged after 12 iterations.

Dipole moment: (-0.202958, -0.507049, -0.152134) |e|*Ang

Energy contributions relative to reference atoms: (reference = -24663.074771)

Kinetic:       +116.418208
Potential:     -122.115275
External:        +0.000000
XC:            -179.799231
Entropy (-ST):   -0.149713
Local:           +2.964139
--------------------------
Free energy:   -182.681873
Extrapolated:  -182.607017

Fermi level: -3.94121

 Band  Eigenvalues  Occupancy
    0    -23.44770    2.00000
    1    -23.20181    2.00000
    2    -22.38011    2.00000
    3    -21.30302    2.00000
    4    -21.16696    2.00000
    5    -20.22656    2.00000
    6    -19.48849    2.00000
    7    -19.39610    2.00000
    8    -18.96606    2.00000
    9    -18.29759    2.00000
   10    -17.82712    2.00000
   11    -17.10317    2.00000
   12    -16.14424    2.00000
   13    -15.76516    2.00000
   14    -15.57645    2.00000
   15    -15.32182    2.00000
   16    -14.27205    2.00000
   17    -13.43402    2.00000
   18    -12.99316    2.00000
   19    -12.73670    2.00000
   20    -12.46849    2.00000
   21    -12.39398    2.00000
   22    -11.63957    2.00000
   23    -11.13433    2.00000
   24    -10.97456    2.00000
   25    -10.82732    2.00000
   26    -10.73633    2.00000
   27    -10.46560    2.00000
   28    -10.13575    2.00000
   29     -9.99971    2.00000
   30     -9.79814    2.00000
   31     -9.47532    2.00000
   32     -9.31994    2.00000
   33     -8.85675    2.00000
   34     -8.74034    2.00000
   35     -8.43399    2.00000
   36     -7.84302    2.00000
   37     -7.10320    2.00000
   38     -6.89881    2.00000
   39     -6.65700    2.00000
   40     -6.64474    2.00000
   41     -6.57027    2.00000
   42     -6.34885    2.00000
   43     -5.89555    2.00000
   44     -5.84272    2.00000
   45     -5.50031    2.00000
   46     -4.77023    1.99950
   47     -4.14169    1.76261
   48     -3.73785    0.23144
   49     -3.34545    0.00516
   50     -3.19473    0.00115
   51     -2.97795    0.00013
   52     -2.74560    0.00001
   53     -2.58601    0.00000
   54     -2.15523    0.00000
   55     -1.90875    0.00000
   56     -1.75283    0.00000
   57     -0.69163    0.00000
   58      0.02747    0.00000
   59      0.53159    0.00000
   60      1.02623    0.00000
   61      1.35471    0.00000
   62      1.99984    0.00000
   63      2.20672    0.00000
   64      2.96431    0.00000
   65      3.18463    0.00000
   66      3.89846    0.00000
   67      4.16547    0.00000
   68      4.58339    0.00000
   69      4.85884    0.00000
   70      5.31509    0.00000
   71      5.36706    0.00000
   72      5.78156    0.00000
   73      6.02639    0.00000
   74      6.09713    0.00000
   75      6.53789    0.00000
   76      6.78100    0.00000
   77      7.24358    0.00000
   78      7.88764    0.00000
   79      8.14840    0.00000
   80      8.53691    0.00000
   81      8.67783    0.00000
   82      8.77390    0.00000
   83      9.01885    0.00000
   84      9.04571    0.00000
   85      9.11041    0.00000
   86      9.13830    0.00000
   87      9.26948    0.00000
   88      9.41256    0.00000
   89      9.57462    0.00000
   90      9.67815    0.00000
   91      9.82748    0.00000
   92      9.88028    0.00000
   93     10.05733    0.00000
   94     10.10483    0.00000
   95     10.17500    0.00000
   96     10.35671    0.00000
   97     10.45275    0.00000


Forces in eV/Ang:
  0 C     0.03550   -0.10433   -0.12052
  1 C     0.27258    0.16271   -0.20469
  2 C    -0.29182    0.32456   -0.02821
  3 C    -0.41401   -1.25495   -1.55416
  4 C     0.10354    0.21266    0.68281
  5 C     0.08229    0.50408   -0.32326
  6 C     0.18490    0.13584    0.14652
  7 C    -0.01743   -0.03692    0.04800
  8 C     0.09325    0.02434    0.01102
  9 C     0.18266   -0.00261   -0.08166
 10 C     0.26497    0.03712    0.33845
 11 C    -0.37046    0.20467    0.54824
 12 C    -0.19567    0.06307    0.18860
 13 C     0.70521    0.11717    0.14338
 14 C     0.23254    0.10342    0.04641
 15 C     0.23904   -0.19330   -0.00053
 16 C     0.18079    0.11224   -0.04847
 17 C    -0.02642    0.44244    0.06738
 18 C     0.57935    0.37362    0.07925
 19 C    -0.33056   -0.02025   -0.04811
 20 C    -0.08074   -0.30251   -0.04663
 21 C    -0.12991   -0.28584    0.03344
 22 C    -0.53164   -0.87117   -0.08005
 23 C    -0.74209    0.20994    0.22253

System changes: positions 

Initializing position-dependent things.

Density initialized from wave functions
           .--------------------------------------.  
          /|                                      |  
         / |                                      |  
        /  |                                      |  
       /   |                                      |  
      /    |                                      |  
     /     |                                      |  
    /      |                                      |  
   /       |       C  C  C                        |  
  /        |                                      |  
 *         |  C C   C   C C   C  C                |  
 |         | C       C         CC                 |  
 |         .---C---C-C---C--C---------------------.  
 |        /    C    C  C  C                      /   
 |       /       C                              /    
 |      /                                      /     
 |     /                                      /      
 |    /                                      /       
 |   /                                      /        
 |  /                                      /         
 | /                                      /          
 |/                                      /           
 *--------------------------------------*            

Positions:
   0 C      9.628953    5.011858    5.706976
   1 C      8.372467    5.810552    5.700389
   2 C      9.361454    3.614690    5.623869
   3 C      6.018697    9.875109    6.234866
   4 C      7.288386    9.451049    6.442795
   5 C      7.403442    8.046842    6.094763
   6 C      8.531906    7.231176    5.934249
   7 C     10.870506    5.675383    5.818414
   8 C     11.063064    6.951525    5.619674
   9 C     10.987014    8.378989    5.410998
  10 C      9.806160    7.795418    5.770246
  11 C      4.614546   10.096029    6.496266
  12 C      5.388505    8.659943    5.457216
  13 C      5.832113    6.094080    5.490993
  14 C      6.129754    7.494735    5.670667
  15 C      7.038524    5.254307    5.533460
  16 C      3.393788    6.547602    5.466190
  17 C      4.537852    4.146268    5.257147
  18 C      4.439648    5.556238    5.379041
  19 C      5.570645    3.412480    5.244617
  20 C      3.298014    7.793550    5.638759
  21 C      6.911259    3.790252    5.382963
  22 C      8.183323    3.200034    5.441401
  23 C      4.049660    8.998159    5.696002

Unit cell:
           periodic     x           y           z      points  spacing
  1. axis:    yes   16.000000    0.000000    0.000000    80     0.2000
  2. axis:    yes    0.000000   16.000000    0.000000    80     0.2000
  3. axis:    yes    0.000000    0.000000   10.000000    48     0.2083

Effective grid spacing dv^(1/3) = 0.2027

                     log10-error:    total        iterations:
           time      wfs    density  energy       fermi  poisson
iter:   1  12:20:01          +inf  -182.802115    3      5      
iter:   2  12:20:02         -2.19  -182.773328    2      2      
iter:   3  12:20:03         -2.43  -182.764968    2      2      
iter:   4  12:20:03         -2.57  -182.764403    2      2      
iter:   5  12:20:04         -2.77  -182.761905    2      1      
iter:   6  12:20:05         -2.82  -182.762156    2      2      
iter:   7  12:20:05         -3.03  -182.763729    2      1      
iter:   8  12:20:06         -3.14  -182.762693    2      1      
iter:   9  12:20:06         -3.41  -182.762600    2      1      
iter:  10  12:20:07         -3.53  -182.762622    2      1      
iter:  11  12:20:08         -3.76  -182.762623    2      1      
iter:  12  12:20:08         -3.96  -182.762632    2      1      
iter:  13  12:20:09         -4.09  -182.762548    2      1      

Converged after 13 iterations.

Dipole moment: (-0.166252, -0.535676, -0.167365) |e|*Ang

Energy contributions relative to reference atoms: (reference = -24663.074771)

Kinetic:       +115.764619
Potential:     -121.815454
External:        +0.000000
XC:            -179.599471
Entropy (-ST):   -0.157673
Local:           +2.966594
--------------------------
Free energy:   -182.841384
Extrapolated:  -182.762548

Fermi level: -3.98799

 Band  Eigenvalues  Occupancy
    0    -23.47816    2.00000
    1    -23.19514    2.00000
    2    -22.37384    2.00000
    3    -21.30435    2.00000
    4    -21.14647    2.00000
    5    -20.22450    2.00000
    6    -19.47808    2.00000
    7    -19.39993    2.00000
    8    -18.97602    2.00000
    9    -18.27386    2.00000
   10    -17.75931    2.00000
   11    -17.13229    2.00000
   12    -16.13554    2.00000
   13    -15.76987    2.00000
   14    -15.54024    2.00000
   15    -15.29625    2.00000
   16    -14.27489    2.00000
   17    -13.39619    2.00000
   18    -12.99977    2.00000
   19    -12.71176    2.00000
   20    -12.43161    2.00000
   21    -12.37453    2.00000
   22    -11.61033    2.00000
   23    -11.13190    2.00000
   24    -10.97249    2.00000
   25    -10.83978    2.00000
   26    -10.71282    2.00000
   27    -10.40678    2.00000
   28    -10.13771    2.00000
   29    -10.01463    2.00000
   30     -9.78914    2.00000
   31     -9.49194    2.00000
   32     -9.32923    2.00000
   33     -8.86399    2.00000
   34     -8.74417    2.00000
   35     -8.44172    2.00000
   36     -7.84758    2.00000
   37     -7.09538    2.00000
   38     -6.91129    2.00000
   39     -6.65988    2.00000
   40     -6.64062    2.00000
   41     -6.56425    2.00000
   42     -6.34530    2.00000
   43     -5.93556    2.00000
   44     -5.76054    2.00000
   45     -5.49822    2.00000
   46     -4.80175    1.99942
   47     -4.17862    1.74122
   48     -3.79527    0.25412
   49     -3.37383    0.00429
   50     -3.20653    0.00081
   51     -3.02777    0.00014
   52     -2.78385    0.00001
   53     -2.60640    0.00000
   54     -2.15719    0.00000
   55     -1.88864    0.00000
   56     -1.73877    0.00000
   57     -0.69255    0.00000
   58      0.02165    0.00000
   59      0.52984    0.00000
   60      1.10412    0.00000
   61      1.34027    0.00000
   62      2.01097    0.00000
   63      2.21985    0.00000
   64      2.95117    0.00000
   65      3.30933    0.00000
   66      3.93985    0.00000
   67      4.15265    0.00000
   68      4.60430    0.00000
   69      4.85045    0.00000
   70      5.33553    0.00000
   71      5.38782    0.00000
   72      5.77260    0.00000
   73      6.03045    0.00000
   74      6.13449    0.00000
   75      6.51996    0.00000
   76      6.73228    0.00000
   77      7.21211    0.00000
   78      7.90674    0.00000
   79      8.11265    0.00000
   80      8.51326    0.00000
   81      8.66433    0.00000
   82      8.75573    0.00000
   83      9.00581    0.00000
   84      9.03543    0.00000
   85      9.08418    0.00000
   86      9.14001    0.00000
   87      9.26305    0.00000
   88      9.42688    0.00000
   89      9.59713    0.00000
   90      9.68381    0.00000
   91      9.81722    0.00000
   92      9.86468    0.00000
   93     10.06928    0.00000
   94     10.09732    0.00000
   95     10.17490    0.00000
   96     10.37273    0.00000
   97     10.45738    0.00000


Forces in eV/Ang:
  0 C     0.07885   -0.19568   -0.11902
  1 C     0.27098    0.06955   -0.10068
  2 C    -0.83558    0.09693   -0.11529
  3 C    -0.18975   -0.80168   -1.21094
  4 C    -0.20803    0.21463    0.48943
  5 C     0.00457    0.44191   -0.24493
  6 C     0.11675    0.12376    0.07700
  7 C     0.00047   -0.00381    0.00561
  8 C     0.10622   -0.02220    0.02560
  9 C     0.19426   -0.01094   -0.05421
 10 C     0.26230    0.05329    0.29298
 11 C    -0.20753    0.02056    0.41918
 12 C    -0.18262   -0.02790    0.24090
 13 C     0.50550    0.05907    0.10936
 14 C     0.26827    0.04404   -0.03891
 15 C     0.03459   -0.13633   -0.05327
 16 C     0.31388   -0.26560   -0.10035
 17 C     0.01347    0.46320    0.05881
 18 C     0.47465    0.34335    0.07665
 19 C    -0.26026   -0.02408   -0.03736
 20 C    -0.08872    0.14303    0.03865
 21 C    -0.09332   -0.22333    0.04145
 22 C     0.14363   -0.53290    0.02203
 23 C    -0.70702    0.07538    0.14394

System changes: positions 

Initializing position-dependent things.

Density initialized from wave functions
           .--------------------------------------.  
          /|                                      |  
         / |                                      |  
        /  |                                      |  
       /   |                                      |  
      /    |                                      |  
     /     |                                      |  
    /      |                                      |  
   /       |       C  C  C                        |  
  /        |                                      |  
 *         |  C C   C   C C   C  C                |  
 |         | C       C         CC                 |  
 |         .---C---C-C---C--C---------------------.  
 |        /    C    C  C  C                      /   
 |       /       C                              /    
 |      /                                      /     
 |     /                                      /      
 |    /                                      /       
 |   /                                      /        
 |  /                                      /         
 | /                                      /          
 |/                                      /           
 *--------------------------------------*            

Positions:
   0 C      9.630096    5.011794    5.704646
   1 C      8.376261    5.814494    5.696371
   2 C      9.352262    3.617964    5.622575
   3 C      6.010969    9.852310    6.202921
   4 C      7.290217    9.455197    6.456722
   5 C      7.407595    8.056138    6.087907
   6 C      8.535900    7.234159    5.937282
   7 C     10.870859    5.674985    5.819030
   8 C     11.065251    6.951455    5.620101
   9 C     10.991279    8.378690    5.409507
  10 C      9.811658    7.796400    5.777500
  11 C      4.605732   10.099637    6.508236
  12 C      5.379316    8.659480    5.461059
  13 C      5.846789    6.097396    5.493842
  14 C      6.133387    7.497495    5.671076
  15 C      7.046911    5.250286    5.533500
  16 C      3.399332    6.543045    5.464200
  17 C      4.538027    4.156102    5.258553
  18 C      4.450850    5.564472    5.380663
  19 C      5.563965    3.412051    5.243715
  20 C      3.296157    7.794842    5.638913
  21 C      6.906537    3.783812    5.383490
  22 C      8.174464    3.182061    5.440074
  23 C      4.036374    9.000113    5.699528

Unit cell:
           periodic     x           y           z      points  spacing
  1. axis:    yes   16.000000    0.000000    0.000000    80     0.2000
  2. axis:    yes    0.000000   16.000000    0.000000    80     0.2000
  3. axis:    yes    0.000000    0.000000   10.000000    48     0.2083

Effective grid spacing dv^(1/3) = 0.2027

                     log10-error:    total        iterations:
           time      wfs    density  energy       fermi  poisson
iter:   1  12:20:11          +inf  -182.921123    3      5      
iter:   2  12:20:12         -2.17  -182.886454    2      2      
iter:   3  12:20:12         -2.41  -182.877026    2      2      
iter:   4  12:20:13         -2.57  -182.878001    2      2      
iter:   5  12:20:14         -2.74  -182.874728    2      1      
iter:   6  12:20:14         -2.84  -182.873876    2      2      
iter:   7  12:20:15         -2.97  -182.877456    2      1      
iter:   8  12:20:16         -3.06  -182.875334    2      1      
iter:   9  12:20:16         -3.44  -182.874843    2      1      
iter:  10  12:20:17         -3.48  -182.874933    2      1      
iter:  11  12:20:17         -3.79  -182.874836    2      1      
iter:  12  12:20:18         -3.90  -182.874940    2      1      
iter:  13  12:20:19         -4.08  -182.874775    2      1      

Converged after 13 iterations.

Dipole moment: (-0.122335, -0.563870, -0.184207) |e|*Ang

Energy contributions relative to reference atoms: (reference = -24663.074771)

Kinetic:       +114.824134
Potential:     -121.249868
External:        +0.000000
XC:            -179.328416
Entropy (-ST):   -0.167048
Local:           +2.962900
--------------------------
Free energy:   -182.958298
Extrapolated:  -182.874775

Fermi level: -4.03444

 Band  Eigenvalues  Occupancy
    0    -23.51543    2.00000
    1    -23.18545    2.00000
    2    -22.36900    2.00000
    3    -21.31042    2.00000
    4    -21.13110    2.00000
    5    -20.22286    2.00000
    6    -19.47674    2.00000
    7    -19.39989    2.00000
    8    -18.97731    2.00000
    9    -18.25909    2.00000
   10    -17.68894    2.00000
   11    -17.16264    2.00000
   12    -16.14366    2.00000
   13    -15.78001    2.00000
   14    -15.49370    2.00000
   15    -15.27368    2.00000
   16    -14.28022    2.00000
   17    -13.36411    2.00000
   18    -13.01316    2.00000
   19    -12.69180    2.00000
   20    -12.41488    2.00000
   21    -12.35585    2.00000
   22    -11.58481    2.00000
   23    -11.13627    2.00000
   24    -10.97145    2.00000
   25    -10.85636    2.00000
   26    -10.70992    2.00000
   27    -10.32289    2.00000
   28    -10.14344    2.00000
   29    -10.03434    2.00000
   30     -9.78739    2.00000
   31     -9.49558    2.00000
   32     -9.33528    2.00000
   33     -8.87818    2.00000
   34     -8.75408    2.00000
   35     -8.44948    2.00000
   36     -7.84800    2.00000
   37     -7.09180    2.00000
   38     -6.91503    2.00000
   39     -6.65843    2.00000
   40     -6.62787    2.00000
   41     -6.56299    2.00000
   42     -6.32049    2.00000
   43     -5.98059    2.00000
   44     -5.68655    2.00000
   45     -5.48019    2.00000
   46     -4.81962    1.99922
   47     -4.21409    1.71544
   48     -3.85330    0.28094
   49     -3.40364    0.00364
   50     -3.22610    0.00062
   51     -3.07503    0.00014
   52     -2.81892    0.00001
   53     -2.61399    0.00000
   54     -2.17396    0.00000
   55     -1.89383    0.00000
   56     -1.73860    0.00000
   57     -0.69999    0.00000
   58      0.00332    0.00000
   59      0.49845    0.00000
   60      1.15438    0.00000
   61      1.32550    0.00000
   62      2.00779    0.00000
   63      2.22668    0.00000
   64      2.93599    0.00000
   65      3.43630    0.00000
   66      3.97864    0.00000
   67      4.13585    0.00000
   68      4.62014    0.00000
   69      4.84319    0.00000
   70      5.35719    0.00000
   71      5.40594    0.00000
   72      5.75863    0.00000
   73      6.05399    0.00000
   74      6.18791    0.00000
   75      6.54515    0.00000
   76      6.68100    0.00000
   77      7.16909    0.00000
   78      7.93181    0.00000
   79      8.08309    0.00000
   80      8.48683    0.00000
   81      8.63240    0.00000
   82      8.75297    0.00000
   83      8.98722    0.00000
   84      9.02048    0.00000
   85      9.06603    0.00000
   86      9.14868    0.00000
   87      9.25784    0.00000
   88      9.43625    0.00000
   89      9.61285    0.00000
   90      9.69251    0.00000
   91      9.80390    0.00000
   92      9.86592    0.00000
   93     10.07006    0.00000
   94     10.09852    0.00000
   95     10.17478    0.00000
   96     10.38481    0.00000
   97     10.45863    0.00000


Forces in eV/Ang:
  0 C     0.10711   -0.25832   -0.10903
  1 C     0.23057   -0.01392   -0.01607
  2 C    -1.22445   -0.08626   -0.18496
  3 C    -0.13916   -0.26409   -0.79922
  4 C    -0.35805    0.16690    0.26945
  5 C    -0.04663    0.37081   -0.16501
  6 C     0.06674    0.11158    0.01281
  7 C     0.00379   -0.01230   -0.03931
  8 C     0.12100   -0.03542    0.03695
  9 C     0.19955   -0.02307   -0.01682
 10 C     0.24071    0.05624    0.25651
 11 C     0.01707   -0.17657    0.22676
 12 C    -0.15247   -0.13863    0.24464
 13 C     0.36855    0.03073    0.06110
 14 C     0.27313   -0.03505   -0.10161
 15 C    -0.11378   -0.08176   -0.07113
 16 C     0.21333    0.29066   -0.03072
 17 C     0.09864    0.37397    0.05261
 18 C     0.38557    0.27178    0.07139
 19 C    -0.25642    0.01275   -0.01619
 20 C    -0.09647   -0.42571   -0.00562
 21 C    -0.03941   -0.14937    0.04256
 22 C     0.66585   -0.22651    0.10306
 23 C    -0.59909    0.13396    0.13034

System changes: positions 

Initializing position-dependent things.

Density initialized from wave functions
           .--------------------------------------.  
          /|                                      |  
         / |                                      |  
        /  |                                      |  
       /   |                                      |  
      /    |                                      |  
     /     |                                      |  
    /      |                                      |  
   /       |       C  C  C                        |  
  /        |                                      |  
 *         |  C C  C    C C   C  C                |  
 |         | C       C         CC                 |  
 |         .---C---C-C---C--C---------------------.  
 |        /    C    C  C  C                      /   
 |       /       C                              /    
 |      /                                      /     
 |     /                                      /      
 |    /                                      /       
 |   /                                      /        
 |  /                                      /         
 | /                                      /          
 |/                                      /           
 *--------------------------------------*            

Positions:
   0 C      9.632132    5.010061    5.701748
   1 C      8.380735    5.817934    5.692825
   2 C      9.339737    3.621156    5.620635
   3 C      6.001680    9.833293    6.168979
   4 C      7.289475    9.459577    6.470685
   5 C      7.412105    8.067007    6.080446
   6 C      8.540038    7.237922    5.939984
   7 C     10.871414    5.674276    5.818917
[...]
External:        +0.000000
XC:            -179.253300
Entropy (-ST):   -0.180261
Local:           +2.982673
--------------------------
Free energy:   -183.301887
Extrapolated:  -183.211756

Fermi level: -4.01891

 Band  Eigenvalues  Occupancy
    0    -23.51157    2.00000
    1    -23.07710    2.00000
    2    -22.33693    2.00000
    3    -21.33958    2.00000
    4    -21.05693    2.00000
    5    -20.21965    2.00000
    6    -19.45488    2.00000
    7    -19.39968    2.00000
    8    -18.99132    2.00000
    9    -18.24639    2.00000
   10    -17.52456    2.00000
   11    -17.24682    2.00000
   12    -16.10094    2.00000
   13    -15.83242    2.00000
   14    -15.29437    2.00000
   15    -15.27565    2.00000
   16    -14.22792    2.00000
   17    -13.29408    2.00000
   18    -13.01479    2.00000
   19    -12.67513    2.00000
   20    -12.39993    2.00000
   21    -12.38188    2.00000
   22    -11.55956    2.00000
   23    -11.14447    2.00000
   24    -10.95396    2.00000
   25    -10.81562    2.00000
   26    -10.69834    2.00000
   27    -10.17773    2.00000
   28    -10.11826    2.00000
   29    -10.05654    2.00000
   30     -9.79695    2.00000
   31     -9.41719    2.00000
   32     -9.32789    2.00000
   33     -8.92979    2.00000
   34     -8.76814    2.00000
   35     -8.47205    2.00000
   36     -7.85811    2.00000
   37     -7.15827    2.00000
   38     -6.93094    2.00000
   39     -6.70235    2.00000
   40     -6.63918    2.00000
   41     -6.58324    2.00000
   42     -6.29370    2.00000
   43     -6.11267    2.00000
   44     -5.58474    2.00000
   45     -5.36767    2.00000
   46     -4.67965    1.99730
   47     -4.18955    1.69275
   48     -3.84395    0.29620
   49     -3.51636    0.01305
   50     -3.20224    0.00057
   51     -3.04290    0.00012
   52     -2.84560    0.00002
   53     -2.61610    0.00000
   54     -2.20124    0.00000
   55     -1.81140    0.00000
   56     -1.65026    0.00000
   57     -0.67785    0.00000
   58      0.02275    0.00000
   59      0.48878    0.00000
   60      1.22495    0.00000
   61      1.57368    0.00000
   62      1.87296    0.00000
   63      2.44690    0.00000
   64      2.95131    0.00000
   65      3.49708    0.00000
   66      3.77533    0.00000
   67      4.08724    0.00000
   68      4.50653    0.00000
   69      4.89912    0.00000
   70      5.28280    0.00000
   71      5.41816    0.00000
   72      5.96340    0.00000
   73      6.18794    0.00000
   74      6.33516    0.00000
   75      6.67621    0.00000
   76      6.87349    0.00000
   77      6.92854    0.00000
   78      8.01507    0.00000
   79      8.14451    0.00000
   80      8.29655    0.00000
   81      8.54637    0.00000
   82      8.74814    0.00000
   83      8.90858    0.00000
   84      9.01842    0.00000
   85      9.08326    0.00000
   86      9.20704    0.00000
   87      9.27177    0.00000
   88      9.48594    0.00000
   89      9.64018    0.00000
   90      9.71193    0.00000
   91      9.77002    0.00000
   92     10.00447    0.00000
   93     10.09114    0.00000
   94     10.19952    0.00000
   95     10.26285    0.00000
   96     10.36725    0.00000
   97     10.46396    0.00000


Forces in eV/Ang:
  0 C    -0.02797   -0.01280    0.04114
  1 C    -0.03629   -0.00712    0.00274
  2 C     0.14207    0.00606   -0.03316
  3 C    -0.03095    0.06710    0.06632
  4 C    -0.15058   -0.04963   -0.09489
  5 C    -0.00121   -0.00333   -0.01527
  6 C    -0.00756   -0.01299    0.04243
  7 C     0.03377   -0.09026   -0.02439
  8 C    -0.04574    0.02648    0.00788
  9 C    -0.10273    0.01460   -0.02136
 10 C     0.06113   -0.02302    0.07803
 11 C     0.08190   -0.01281   -0.03861
 12 C    -0.00261    0.02457   -0.02504
 13 C     0.08431    0.03065   -0.01460
 14 C    -0.02151    0.07892   -0.00358
 15 C     0.00111   -0.04575    0.01247
 16 C    -0.03596   -0.03629    0.06190
 17 C    -0.03072   -0.02482    0.00625
 18 C     0.10929   -0.02468   -0.03701
 19 C     0.15401   -0.04543    0.00003
 20 C    -0.02138    0.06503    0.04991
 21 C    -0.00268    0.03478    0.00757
 22 C    -0.21409   -0.05961   -0.04019
 23 C     0.07700   -0.03162   -0.01398

System changes: positions 

Initializing position-dependent things.

Density initialized from wave functions
           .--------------------------------------.  
          /|                                      |  
         / |                                      |  
        /  |                                      |  
       /   |                                      |  
      /    |                                      |  
     /     |                                      |  
    /      |                                      |  
   /       |      C                               |  
  /        |    C     C  C                        |  
 *         |  C    C    C     C  C                |  
 |         | C       C    C    CC                 |  
 |         .---C---C--C--C--C---------------------.  
 |        /    C C  C     C                      /   
 |       /             C                        /    
 |      /                                      /     
 |     /                                      /      
 |    /                                      /       
 |   /                                      /        
 |  /                                      /         
 | /                                      /          
 |/                                      /           
 *--------------------------------------*            

Positions:
   0 C      9.630844    5.006713    5.624306
   1 C      8.397927    5.852881    5.562504
   2 C      9.272374    3.644281    5.553246
   3 C      5.932288    9.858695    6.018136
   4 C      7.242487    9.529796    6.263852
   5 C      7.423503    8.145472    5.834508
   6 C      8.567488    7.299042    5.773899
   7 C     10.873107    5.630065    5.826836
   8 C     11.128945    6.906949    5.837398
   9 C     11.146109    8.344346    5.831273
  10 C      9.887515    7.804999    5.866092
  11 C      4.593482    9.987959    6.613419
  12 C      5.269396    8.647112    5.418615
  13 C      5.887619    6.130756    5.420093
  14 C      6.144284    7.535354    5.516658
  15 C      7.067296    5.267406    5.426152
  16 C      3.407581    6.510762    5.577483
  17 C      4.554106    4.203110    5.351507
  18 C      4.488317    5.598883    5.432339
  19 C      5.541280    3.415507    5.311927
  20 C      3.213310    7.727969    5.827537
  21 C      6.891820    3.785995    5.366875
  22 C      8.137717    3.122743    5.428890
  23 C      3.932579    8.942705    5.822691

Unit cell:
           periodic     x           y           z      points  spacing
  1. axis:    yes   16.000000    0.000000    0.000000    80     0.2000
  2. axis:    yes    0.000000   16.000000    0.000000    80     0.2000
  3. axis:    yes    0.000000    0.000000   10.000000    48     0.2083

Effective grid spacing dv^(1/3) = 0.2027

                     log10-error:    total        iterations:
           time      wfs    density  energy       fermi  poisson
iter:   1  12:24:13          +inf  -183.210051    2      4      
iter:   2  12:24:14         -2.97  -183.212055    2      1      
iter:   3  12:24:14         -3.26  -183.213244    2      1      
iter:   4  12:24:15         -3.47  -183.212686    2      1      
iter:   5  12:24:16         -3.61  -183.212883    2      1      
iter:   6  12:24:16         -3.78  -183.212381    2      1      
iter:   7  12:24:17         -3.79  -183.212480    2      1      
iter:   8  12:24:17         -4.09  -183.212977    2      1      

Converged after 8 iterations.

Dipole moment: (0.008080, -0.641079, -0.263431) |e|*Ang

Energy contributions relative to reference atoms: (reference = -24663.074771)

Kinetic:       +114.687648
Potential:     -121.497175
External:        +0.000000
XC:            -179.297391
Entropy (-ST):   -0.181511
Local:           +2.984696
--------------------------
Free energy:   -183.303732
Extrapolated:  -183.212977

Fermi level: -4.01684

 Band  Eigenvalues  Occupancy
    0    -23.51632    2.00000
    1    -23.08002    2.00000
    2    -22.34013    2.00000
    3    -21.33908    2.00000
    4    -21.05802    2.00000
    5    -20.21976    2.00000
    6    -19.45488    2.00000
    7    -19.39920    2.00000
    8    -18.99195    2.00000
    9    -18.24577    2.00000
   10    -17.52759    2.00000
   11    -17.24451    2.00000
   12    -16.10011    2.00000
   13    -15.83074    2.00000
   14    -15.29434    2.00000
   15    -15.27521    2.00000
   16    -14.22935    2.00000
   17    -13.28979    2.00000
   18    -13.01428    2.00000
   19    -12.67471    2.00000
   20    -12.40147    2.00000
   21    -12.38225    2.00000
   22    -11.56524    2.00000
   23    -11.14488    2.00000
   24    -10.95308    2.00000
   25    -10.81617    2.00000
   26    -10.69883    2.00000
   27    -10.18139    2.00000
   28    -10.11916    2.00000
   29    -10.05942    2.00000
   30     -9.79875    2.00000
   31     -9.42042    2.00000
   32     -9.33516    2.00000
   33     -8.92913    2.00000
   34     -8.76784    2.00000
   35     -8.47206    2.00000
   36     -7.85954    2.00000
   37     -7.15771    2.00000
   38     -6.93255    2.00000
   39     -6.70028    2.00000
   40     -6.63555    2.00000
   41     -6.58286    2.00000
   42     -6.29569    2.00000
   43     -6.11018    2.00000
   44     -5.58585    2.00000
   45     -5.37244    2.00000
   46     -4.67916    1.99735
   47     -4.18615    1.68927
   48     -3.84314    0.29941
   49     -3.51582    0.01325
   50     -3.20563    0.00060
   51     -3.04065    0.00012
   52     -2.84952    0.00002
   53     -2.61395    0.00000
   54     -2.20576    0.00000
   55     -1.80841    0.00000
   56     -1.65762    0.00000
   57     -0.67763    0.00000
   58      0.02470    0.00000
   59      0.48844    0.00000
   60      1.22272    0.00000
   61      1.57758    0.00000
   62      1.88328    0.00000
   63      2.44628    0.00000
   64      2.95335    0.00000
   65      3.50103    0.00000
   66      3.77110    0.00000
   67      4.08967    0.00000
   68      4.51143    0.00000
   69      4.90449    0.00000
   70      5.28117    0.00000
   71      5.42334    0.00000
   72      5.96950    0.00000
   73      6.19626    0.00000
   74      6.33688    0.00000
   75      6.68814    0.00000
   76      6.87124    0.00000
   77      6.94175    0.00000
   78      8.01488    0.00000
   79      8.15299    0.00000
   80      8.29775    0.00000
   81      8.54637    0.00000
   82      8.74538    0.00000
   83      8.91137    0.00000
   84      9.01865    0.00000
   85      9.08646    0.00000
   86      9.21071    0.00000
   87      9.27470    0.00000
   88      9.48760    0.00000
   89      9.64559    0.00000
   90      9.71164    0.00000
   91      9.77179    0.00000
   92     10.00333    0.00000
   93     10.09338    0.00000
   94     10.20176    0.00000
   95     10.26285    0.00000
   96     10.36458    0.00000
   97     10.46494    0.00000


Forces in eV/Ang:
  0 C    -0.02851   -0.03281    0.03059
  1 C    -0.01529    0.00101    0.00520
  2 C     0.09004   -0.01280   -0.03248
  3 C    -0.01230    0.02315    0.04110
  4 C    -0.10467   -0.02620   -0.06446
  5 C    -0.02105    0.00600   -0.01439
  6 C    -0.01774    0.00858    0.04229
  7 C     0.02739   -0.05938   -0.01389
  8 C    -0.02942    0.02318    0.00928
  9 C    -0.04719    0.04461   -0.02611
 10 C    -0.00595   -0.04883    0.07906
 11 C     0.06020   -0.00173   -0.03341
 12 C    -0.00715    0.02775   -0.02969
 13 C     0.06209    0.01778   -0.00577
 14 C    -0.02135    0.04598   -0.01956
 15 C     0.03046   -0.02947    0.00964
 16 C    -0.02997   -0.01781    0.06287
 17 C    -0.02554   -0.01965    0.00525
 18 C     0.07442   -0.01445   -0.03201
 19 C     0.10918   -0.04470   -0.00080
 20 C    -0.00100    0.03710    0.04186
 21 C    -0.00468    0.02198    0.00682
 22 C    -0.14635   -0.04546   -0.03725
 23 C     0.05930   -0.00920    0.00669

System changes: positions 

Initializing position-dependent things.

Density initialized from wave functions
           .--------------------------------------.  
          /|                                      |  
         / |                                      |  
        /  |                                      |  
       /   |                                      |  
      /    |                                      |  
     /     |                                      |  
    /      |                                      |  
   /       |      C                               |  
  /        |    C     C  C                        |  
 *         |  C    C    C     C  C                |  
 |         | C       C    C    CC                 |  
 |         .---C---C--C--C--C---------------------.  
 |        /    C C  C     C                      /   
 |       /             C                        /    
 |      /                                      /     
 |     /                                      /      
 |    /                                      /       
 |   /                                      /        
 |  /                                      /         
 | /                                      /          
 |/                                      /           
 *--------------------------------------*            

Positions:
   0 C      9.629360    5.006721    5.623177
   1 C      8.396527    5.852459    5.559812
   2 C      9.273596    3.643924    5.548805
   3 C      5.930448    9.861388    6.017806
   4 C      7.238961    9.530332    6.253662
   5 C      7.424214    8.146875    5.827085
   6 C      8.566394    7.298107    5.773176
   7 C     10.873166    5.627427    5.827652
   8 C     11.124708    6.906321    5.843333
   9 C     11.141897    8.343225    5.841774
  10 C      9.884593    7.803604    5.872176
  11 C      4.595983    9.986323    6.615142
  12 C      5.268478    8.648049    5.413640
  13 C      5.889892    6.132870    5.415636
  14 C      6.145307    7.538251    5.510116
  15 C      7.067019    5.267776    5.423057
  16 C      3.408802    6.508738    5.586116
  17 C      4.554594    4.201800    5.354748
  18 C      4.492461    5.598710    5.434160
  19 C      5.544318    3.416604    5.313394
  20 C      3.211750    7.726025    5.836037
  21 C      6.892685    3.787658    5.366234
  22 C      8.136754    3.122861    5.427532
  23 C      3.934927    8.940134    5.824557

Unit cell:
           periodic     x           y           z      points  spacing
  1. axis:    yes   16.000000    0.000000    0.000000    80     0.2000
  2. axis:    yes    0.000000   16.000000    0.000000    80     0.2000
  3. axis:    yes    0.000000    0.000000   10.000000    48     0.2083

Effective grid spacing dv^(1/3) = 0.2027

                     log10-error:    total        iterations:
           time      wfs    density  energy       fermi  poisson
iter:   1  12:24:20          +inf  -183.212034    2      5      
iter:   2  12:24:20         -2.63  -183.214223    2      1      
iter:   3  12:24:21         -2.90  -183.215831    2      1      
iter:   4  12:24:21         -3.13  -183.214545    2      1      
iter:   5  12:24:22         -3.27  -183.214573    2      1      
iter:   6  12:24:23         -3.46  -183.215059    2      1      
iter:   7  12:24:23         -3.51  -183.213695    2      1      
iter:   8  12:24:24         -3.61  -183.214595    2      1      
iter:   9  12:24:24         -3.87  -183.215115    2      1      
iter:  10  12:24:25         -3.96  -183.214549    2      1      
iter:  11  12:24:26         -4.27  -183.215093    2      1      

Converged after 11 iterations.

Dipole moment: (0.002921, -0.636033, -0.262548) |e|*Ang

Energy contributions relative to reference atoms: (reference = -24663.074771)

Kinetic:       +115.191214
Potential:     -121.878335
External:        +0.000000
XC:            -179.420352
Entropy (-ST):   -0.183642
Local:           +2.984201
--------------------------
Free energy:   -183.306914
Extrapolated:  -183.215093

Fermi level: -4.01192

 Band  Eigenvalues  Occupancy
    0    -23.52122    2.00000
    1    -23.08734    2.00000
    2    -22.34767    2.00000
    3    -21.33694    2.00000
    4    -21.06373    2.00000
    5    -20.21947    2.00000
    6    -19.45361    2.00000
    7    -19.39930    2.00000
    8    -18.99581    2.00000
    9    -18.24300    2.00000
   10    -17.53729    2.00000
   11    -17.23930    2.00000
   12    -16.09890    2.00000
   13    -15.82926    2.00000
   14    -15.29697    2.00000
   15    -15.27419    2.00000
   16    -14.23489    2.00000
   17    -13.28029    2.00000
   18    -13.01478    2.00000
   19    -12.67176    2.00000
   20    -12.40321    2.00000
   21    -12.38405    2.00000
   22    -11.57519    2.00000
   23    -11.14544    2.00000
   24    -10.95269    2.00000
   25    -10.81770    2.00000
   26    -10.69782    2.00000
   27    -10.18878    2.00000
   28    -10.11959    2.00000
   29    -10.06108    2.00000
   30     -9.80160    2.00000
   31     -9.42888    2.00000
   32     -9.34454    2.00000
   33     -8.92653    2.00000
   34     -8.76693    2.00000
   35     -8.47340    2.00000
   36     -7.86268    2.00000
   37     -7.15622    2.00000
   38     -6.93611    2.00000
   39     -6.69663    2.00000
   40     -6.62890    2.00000
   41     -6.58207    2.00000
   42     -6.30118    2.00000
   43     -6.10392    2.00000
   44     -5.58627    2.00000
   45     -5.38254    2.00000
   46     -4.67968    1.99749
   47     -4.17910    1.68361
   48     -3.84004    0.30404
   49     -3.51662    0.01403
   50     -3.21708    0.00071
   51     -3.03478    0.00011
   52     -2.85984    0.00002
   53     -2.61169    0.00000
   54     -2.21510    0.00000
   55     -1.80035    0.00000
   56     -1.67352    0.00000
   57     -0.67674    0.00000
   58      0.03023    0.00000
   59      0.48869    0.00000
   60      1.22019    0.00000
   61      1.58639    0.00000
   62      1.89778    0.00000
   63      2.44753    0.00000
   64      2.95587    0.00000
   65      3.51134    0.00000
   66      3.76931    0.00000
   67      4.09864    0.00000
   68      4.52253    0.00000
   69      4.91665    0.00000
   70      5.27943    0.00000
   71      5.43817    0.00000
   72      5.98334    0.00000
   73      6.21359    0.00000
   74      6.34500    0.00000
   75      6.71522    0.00000
   76      6.87054    0.00000
   77      6.96888    0.00000
   78      8.01838    0.00000
   79      8.17331    0.00000
   80      8.31140    0.00000
   81      8.55129    0.00000
   82      8.74056    0.00000
   83      8.91839    0.00000
   84      9.01973    0.00000
   85      9.09274    0.00000
   86      9.22023    0.00000
   87      9.27972    0.00000
   88      9.49268    0.00000
   89      9.65708    0.00000
   90      9.71122    0.00000
   91      9.77527    0.00000
   92     10.00285    0.00000
   93     10.10067    0.00000
   94     10.20767    0.00000
   95     10.26535    0.00000
   96     10.35746    0.00000
   97     10.46370    0.00000


Forces in eV/Ang:
  0 C     0.01280   -0.02803    0.02519
  1 C     0.02620    0.01685    0.02896
  2 C    -0.03422   -0.06630   -0.04659
  3 C    -0.01499   -0.00166   -0.03110
  4 C    -0.01147    0.00755   -0.00925
  5 C    -0.05343    0.01179   -0.03315
  6 C    -0.04030    0.02131    0.02395
  7 C     0.02256   -0.01648   -0.01128
  8 C    -0.02061   -0.02847    0.01214
  9 C     0.01329    0.07020   -0.01239
 10 C    -0.02487   -0.06652    0.06444
 11 C    -0.01809   -0.00750   -0.01702
 12 C     0.01164    0.02224   -0.06464
 13 C     0.01214   -0.00689    0.01538
 14 C    -0.02695   -0.00081   -0.03476
 15 C     0.05732    0.00961    0.00711
 16 C     0.00280    0.01103    0.05236
 17 C     0.01679   -0.00257   -0.00062
 18 C    -0.00720   -0.02082   -0.02833
 19 C    -0.00895   -0.02583    0.00035
 20 C     0.03777    0.01145    0.01541
 21 C     0.02149   -0.00524   -0.00025
 22 C    -0.00205   -0.00598   -0.02705
 23 C     0.00448   -0.01235    0.04499

