
  ___ ___ ___ _ _ _  
 |   |   |_  | | | | 
 | | | | | . | | | | 
 |__ |  _|___|_____|  1.3.0b1
 |___|_|             

User:   esb@s65n11.grendel.cscaa.dk
Date:   Thu Nov  9 12:02:52 2017
Arch:   x86_64
Pid:    78156
Python: 2.7.13
gpaw:   /home/esb/DFT/gpaw_git/gpaw
_gpaw:  /home/esb/DFT/gpaw_git/build/bin.linux-x86_64-2.7/gpaw-python
ase:    /home/esb/DFT/ase_git/ase (version 3.15.0b1)
numpy:  /comm/swstack/core/python/2.7.13/lib/python2.7/site-packages/numpy (version 1.13.3)
scipy:  /comm/swstack/core/python/2.7.13/lib/python2.7/site-packages/scipy (version 0.19.1)
units:  Angstrom and eV
cores:  16
Extra parameters: {'blacs': True}

Input parameters:
  basis: dzp
  gpts: [80 80 48]
  kpts: [1 1 1]
  maxiter: 99
  mixer: {backend: pulay,
          beta: 0.05,
          method: separate,
          nmaxold: 5,
          weight: 75}
  mode: lcao
  nbands: -50
  occupations: {name: fermi-dirac,
                width: 0.1}
  poissonsolver: {eps: 1e-07,
                  name: fd,
                  nn: 3,
                  relax: GS}
  xc: PBE

System changes: positions, numbers, cell, pbc, initial_charges, initial_magmoms 

Initialize ...

C-setup:
  name: Carbon
  id: 4aa54d4b901d75f77cc0ea3eec22967b
  Z: 6
  valence: 4
  core: 2
  charge: 0.0
  file: /home/esb/DFT/gpaw-setups-0.8.7929/C.PBE.gz
  cutoffs: 0.64(comp), 1.14(filt), 1.14(core), lmax=2
  valence states:
                energy  radius
    2s(2.00)   -13.751   0.635
    2p(2.00)    -5.284   0.635
    *s          13.461   0.635
    *p          21.927   0.635
    *d           0.000   0.635

  LCAO basis set for C:
    Name: dzp
    File: /home/esb/DFT/gpaw-setups-0.8.7929/C.dzp.basis.gz
    Number of radial functions: 5
    Number of spherical harmonics: 13
      l=0, rc=5.5469 Bohr: 2s-sz confined orbital
      l=1, rc=6.6719 Bohr: 2p-sz confined orbital
      l=0, rc=3.0312 Bohr: 2s-dz split-valence wave
      l=1, rc=3.7500 Bohr: 2p-dz split-valence wave
      l=2, rc=6.6719 Bohr: d-type Gaussian polarization

Reference energy: -24663.074771

Spin-paired calculation

Occupation numbers:
  Fermi-Dirac: width=0.1000 eV

Convergence criteria:
  Maximum total energy change: 0.0005 eV / electron
  Maximum integral of absolute density change: 0.0001 electrons
  Maximum integral of absolute eigenstate change: 4e-08 eV^2
  Maximum number of iterations: 99

Symmetries present (total): 1

  ( 1  0  0)
  ( 0  1  0)
  ( 0  0  1)

1 k-point (Gamma)
1 k-point in the irreducible part of the Brillouin zone
       k-points in crystal coordinates                weights
   0:     0.00000000    0.00000000    0.00000000          1/1

Wave functions: LCAO
  Diagonalizer: Serial LAPACK
  Atomic Correction: dense with blas
  Datatype: float
  Eigensolver: None 

LCAO using direct dense diagonalizer 

Densities:
  Coarse grid: 80*80*48 grid
  Fine grid: 160*160*96 grid
  Total Charge: 0.000000 

Density mixing:
  Method: separate
  Backend: pulay
  Linear mixing parameter: 0.05
  Mixing with 5 old densities
  Damping of long wave oscillations: 75 

Hamiltonian:
  XC and Coulomb potentials evaluated on a 160*160*96 grid
  Using the PBE Exchange-Correlation functional
  Interpolation: tri-quintic (5. degree polynomial)
  Poisson solver: Gauss-Seidel solver with 6 multi-grid levels
    Coarsest grid: 5 x 5 x 3 points
    Stencil: 6*3+1=19 point O(h^6) finite-difference Laplacian
    Max iterations: 1000
    Tolerance: 1.000000e-07 

Memory estimate:
  Process memory now: 77.56 MiB
  Calculator: 15.59 MiB
    Density: 6.13 MiB
      Arrays: 3.81 MiB
      Localized functions: 0.86 MiB
      Mixer: 1.46 MiB
    Hamiltonian: 5.40 MiB
      Arrays: 2.49 MiB
      XC: 0.00 MiB
      Poisson: 2.85 MiB
      vbar: 0.07 MiB
    Wavefunctions: 4.05 MiB
      C [qnM]: 0.23 MiB
      S, T [2 x qmm]: 1.49 MiB
      P [aqMi]: 0.01 MiB
      TCI: 0.00 MiB
      BasisFunctions: 2.33 MiB
      Eigensolver: 0.00 MiB

Total number of cores used: 16
Domain decomposition: 2 x 4 x 2

Number of atoms: 24
Number of atomic orbitals: 312
Number of bands in calculation: 98
Bands to converge: occupied states only
Number of valence electrons: 96

... initialized

Initializing position-dependent things.

Density initialized from atomic densities
           .--------------------------------------.  
          /|                                      |  
         / |                                      |  
        /  |                                      |  
       /   |                                      |  
      /    |                                      |  
     /     |                                      |  
    /      |                                      |  
   /       |        C  CC                         |  
  /        |     C                                |  
 *         |  C     C                             |  
 |         |  C      C   C  C C  C                |  
 |         .--C-C--C-C---C-C---C-C----------------.  
 |        /     C   C    C                       /   
 |       /            C                         /    
 |      /                                      /     
 |     /                                      /      
 |    /                                      /       
 |   /                                      /        
 |  /                                      /         
 | /                                      /          
 |/                                      /           
 *--------------------------------------*            

Positions:
   0 C     11.126113    7.018686    4.923137
   1 C      4.995003   10.182697    6.380800
   2 C      7.739108    7.555677    5.331035
   3 C      6.666902    9.671048    6.316539
   4 C      9.774128    8.930510    4.913351
   5 C     10.870650    8.354551    4.725309
   6 C      6.871442   10.776852    5.655193
   7 C      8.700288    9.111824    4.589162
   8 C      5.608339    8.829288    5.162834
   9 C      3.404266    8.101609    5.769791
  10 C      6.309963    7.599507    5.316909
  11 C      4.262619    9.210443    5.638993
  12 C      3.413498    6.859093    5.599143
  13 C      5.306728    3.583619    5.262527
  14 C      7.951054    3.271393    5.280829
  15 C      6.685490    3.888651    5.257409
  16 C      4.847919    4.628935    6.079640
  17 C      9.035961    3.917742    5.294734
  18 C      6.862283    5.351935    5.268821
  19 C      3.824313    5.447925    5.386443
  20 C      5.752234    6.250228    5.308784
  21 C      8.121844    6.071836    5.296955
  22 C     10.658990    5.879934    5.128939
  23 C      9.366927    5.290055    5.268050

Unit cell:
           periodic     x           y           z      points  spacing
  1. axis:    yes   16.000000    0.000000    0.000000    80     0.2000
  2. axis:    yes    0.000000   16.000000    0.000000    80     0.2000
  3. axis:    yes    0.000000    0.000000   10.000000    48     0.2083

Effective grid spacing dv^(1/3) = 0.2027

                     log10-error:    total        iterations:
           time      wfs    density  energy       fermi  poisson
iter:   1  12:02:54          +inf  -173.234858    2      6      
iter:   2  12:02:54         -0.89  -171.958791    3      3      
iter:   3  12:02:55         -0.92  -169.872716    4      3      
iter:   4  12:02:56         -1.04  -169.022158    4      3      
iter:   5  12:02:56         -1.14  -168.478574    33     3      
iter:   6  12:02:57         -1.37  -168.368163    4      3      
iter:   7  12:02:58         -1.57  -168.340846    3      3      
iter:   8  12:02:58         -1.69  -168.286479    3      3      
iter:   9  12:02:59         -1.84  -168.258409    3      2      
iter:  10  12:02:59         -1.97  -168.242336    3      2      
iter:  11  12:03:00         -2.14  -168.228309    3      2      
iter:  12  12:03:01         -2.28  -168.221336    3      2      
iter:  13  12:03:01         -2.41  -168.213413    3      2      
iter:  14  12:03:02         -2.72  -168.215175    2      2      
iter:  15  12:03:02         -2.85  -168.215615    3      2      
iter:  16  12:03:03         -3.07  -168.221838    2      1      
iter:  17  12:03:04         -3.14  -168.218337    2      1      
iter:  18  12:03:04         -3.52  -168.214012    2      1      
iter:  19  12:03:05         -3.59  -168.214820    2      1      
iter:  20  12:03:05         -3.67  -168.216578    2      1      
iter:  21  12:03:06         -3.82  -168.215396    2      1      
iter:  22  12:03:07         -4.00  -168.214153    2      1      
iter:  23  12:03:07         -4.07  -168.214196    2      1      

Converged after 23 iterations.

Dipole moment: (0.108046, -0.349010, 0.092304) |e|*Ang

Energy contributions relative to reference atoms: (reference = -24663.074771)

Kinetic:       +117.156300
Potential:     -120.024982
External:        +0.000000
XC:            -168.144964
Entropy (-ST):   -0.280335
Local:           +2.939618
--------------------------
Free energy:   -168.354363
Extrapolated:  -168.214196

Fermi level: -4.51931

 Band  Eigenvalues  Occupancy
    0    -22.94502    2.00000
    1    -22.48574    2.00000
    2    -21.46427    2.00000
    3    -21.00861    2.00000
    4    -20.91707    2.00000
    5    -20.22393    2.00000
    6    -19.72578    2.00000
    7    -19.02483    2.00000
    8    -18.50866    2.00000
    9    -18.21962    2.00000
   10    -17.74974    2.00000
   11    -16.98558    2.00000
   12    -16.61714    2.00000
   13    -15.97428    2.00000
   14    -15.10320    2.00000
   15    -14.55989    2.00000
   16    -13.91718    2.00000
   17    -13.62461    2.00000
   18    -13.16458    2.00000
   19    -12.82978    2.00000
   20    -12.13247    2.00000
   21    -11.74414    2.00000
   22    -11.22534    2.00000
   23    -10.70580    2.00000
   24    -10.66335    2.00000
   25    -10.23650    2.00000
   26    -10.03541    2.00000
   27     -9.83968    2.00000
   28     -9.63308    2.00000
   29     -9.37305    2.00000
   30     -9.12068    2.00000
   31     -8.94525    2.00000
   32     -8.79334    2.00000
   33     -8.57325    2.00000
   34     -8.21916    2.00000
   35     -7.88910    2.00000
   36     -7.72736    2.00000
   37     -7.09859    2.00000
   38     -7.00875    2.00000
   39     -6.75170    2.00000
   40     -6.48034    2.00000
   41     -6.40973    2.00000
   42     -6.21769    2.00000
   43     -5.56251    1.99994
   44     -5.41405    1.99974
   45     -5.27759    1.99898
   46     -4.80090    1.88705
   47     -4.65123    1.57808
   48     -4.40760    0.49308
   49     -4.13731    0.04291
   50     -3.59240    0.00019
   51     -3.39805    0.00003
   52     -2.92655    0.00000
   53     -2.81521    0.00000
   54     -2.40293    0.00000
   55     -2.16589    0.00000
   56     -1.99906    0.00000
   57     -1.94460    0.00000
   58     -1.53481    0.00000
   59     -1.11766    0.00000
   60     -0.75031    0.00000
   61     -0.15359    0.00000
   62      0.16268    0.00000
   63      0.73491    0.00000
   64      1.09717    0.00000
   65      1.22555    0.00000
   66      2.19980    0.00000
   67      2.76271    0.00000
   68      2.87924    0.00000
   69      3.27087    0.00000
   70      4.14898    0.00000
   71      4.31675    0.00000
   72      4.91315    0.00000
   73      5.18171    0.00000
   74      5.61860    0.00000
   75      6.31516    0.00000
   76      6.46869    0.00000
   77      6.85261    0.00000
   78      7.28637    0.00000
   79      7.33554    0.00000
   80      7.60509    0.00000
   81      7.63776    0.00000
   82      8.18019    0.00000
   83      8.28584    0.00000
   84      8.48748    0.00000
   85      8.60487    0.00000
   86      8.88931    0.00000
   87      9.03975    0.00000
   88      9.04979    0.00000
   89      9.18860    0.00000
   90      9.34915    0.00000
   91      9.37181    0.00000
   92      9.56861    0.00000
   93      9.79179    0.00000
   94      9.85389    0.00000
   95      9.94851    0.00000
   96     10.06351    0.00000
   97     10.15760    0.00000


Forces in eV/Ang:
  0 C    -0.16711    3.03836    0.39618
  1 C     0.60351   -0.83080    1.35273
  2 C     1.72705   -0.24437   -1.80225
  3 C    -4.16238   -0.97395   -0.20318
  4 C    13.82694   -0.61366    5.38261
  5 C     5.63260   -3.54886   -0.71472
  6 C     0.64655    2.41290   -1.94372
  7 C   -20.18607    0.26655   -3.28322
  8 C     1.71177   -0.29345    2.28098
  9 C    -0.41465    0.98646   -0.27002
 10 C    -1.14490    0.29059    0.00447
 11 C     2.01858    0.11328   -0.52145
 12 C     0.22680   -3.47584   -0.14063
 13 C     0.57282   -0.02874    3.16839
 14 C     0.10982    0.09332   -0.51168
 15 C     0.38623    0.09350   -0.20368
 16 C    -4.35938   -0.65512   -3.78626
 17 C     0.47147   -0.17177    0.15829
 18 C     0.19941    0.77219   -0.71419
 19 C     2.36489    4.42851    2.14995
 20 C     0.52596   -1.64399   -0.42288
 21 C    -0.10150    1.65819   -0.34861
 22 C    -1.19248   -1.40019   -0.28031
 23 C     0.72511   -0.17798    0.16387

System changes: positions 

Initializing position-dependent things.

Density initialized from wave functions
           .--------------------------------------.  
          /|                                      |  
         / |                                      |  
        /  |                                      |  
       /   |                                      |  
      /    |                                      |  
     /     |                                      |  
    /      |                                      |  
   /       |        C  CC                         |  
  /        |     C                                |  
 *         |  C     C                             |  
 |         |  C      C   C  C C  C                |  
 |         .--C-C--C-C---C-C---C-C----------------.  
 |        /     C   C    C                       /   
 |       /            C                         /    
 |      /                                      /     
 |     /                                      /      
 |    /                                      /       
 |   /                                      /        
 |  /                                      /         
 | /                                      /          
 |/                                      /           
 *--------------------------------------*            

Positions:
   0 C     11.125786    7.024628    4.923911
   1 C      4.996183   10.181072    6.383446
   2 C      7.742486    7.555200    5.327510
   3 C      6.658761    9.669144    6.316141
   4 C      9.801169    8.929310    4.923878
   5 C     10.881666    8.347610    4.723911
   6 C      6.872706   10.781571    5.651391
   7 C      8.660810    9.112345    4.582741
   8 C      5.611687    8.828714    5.167295
   9 C      3.403455    8.103538    5.769263
  10 C      6.307723    7.600075    5.316917
  11 C      4.266567    9.210664    5.637973
  12 C      3.413942    6.852296    5.598868
  13 C      5.307848    3.583562    5.268724
  14 C      7.951269    3.271575    5.279828
  15 C      6.686245    3.888834    5.257011
  16 C      4.839394    4.627654    6.072236
  17 C      9.036883    3.917406    5.295044
  18 C      6.862673    5.353446    5.267424
  19 C      3.828938    5.456586    5.390647
  20 C      5.753263    6.247013    5.307957
  21 C      8.121646    6.075079    5.296274
  22 C     10.656658    5.877196    5.128390
  23 C      9.368345    5.289707    5.268371

Unit cell:
           periodic     x           y           z      points  spacing
  1. axis:    yes   16.000000    0.000000    0.000000    80     0.2000
  2. axis:    yes    0.000000   16.000000    0.000000    80     0.2000
  3. axis:    yes    0.000000    0.000000   10.000000    48     0.2083

Effective grid spacing dv^(1/3) = 0.2027

                     log10-error:    total        iterations:
           time      wfs    density  energy       fermi  poisson
iter:   1  12:03:09          +inf  -169.688505    3      5      
iter:   2  12:03:10         -1.95  -169.592709    2      2      
iter:   3  12:03:10         -2.20  -169.557828    3      2      
iter:   4  12:03:11         -2.38  -169.558838    2      2      
iter:   5  12:03:12         -2.48  -169.550613    3      2      
iter:   6  12:03:12         -2.68  -169.547118    2      2      
iter:   7  12:03:13         -2.88  -169.545981    2      2      
iter:   8  12:03:13         -3.04  -169.545816    2      2      
iter:   9  12:03:14         -3.21  -169.546486    2      1      
iter:  10  12:03:15         -3.36  -169.546551    2      1      
iter:  11  12:03:15         -3.49  -169.545770    2      1      
iter:  12  12:03:16         -3.63  -169.544667    2      1      
iter:  13  12:03:16         -3.81  -169.544717    2      1      
iter:  14  12:03:17         -3.96  -169.545326    1      1      
iter:  15  12:03:18         -4.04  -169.545553    2      1      

Converged after 15 iterations.

Dipole moment: (0.097925, -0.335718, 0.089539) |e|*Ang

Energy contributions relative to reference atoms: (reference = -24663.074771)

Kinetic:       +109.115176
Potential:     -114.350313
External:        +0.000000
XC:            -167.050930
Entropy (-ST):   -0.257759
Local:           +2.869394
--------------------------
Free energy:   -169.674432
Extrapolated:  -169.545553

Fermi level: -4.50050

 Band  Eigenvalues  Occupancy
    0    -22.94933    2.00000
    1    -22.48335    2.00000
    2    -21.42150    2.00000
    3    -20.97551    2.00000
    4    -20.90517    2.00000
    5    -20.19751    2.00000
    6    -19.62483    2.00000
    7    -19.01309    2.00000
    8    -18.47542    2.00000
    9    -18.19525    2.00000
   10    -17.73930    2.00000
   11    -16.90621    2.00000
   12    -16.62791    2.00000
   13    -15.99422    2.00000
   14    -15.10195    2.00000
   15    -14.55413    2.00000
   16    -13.97441    2.00000
   17    -13.59803    2.00000
   18    -13.20120    2.00000
   19    -12.81918    2.00000
   20    -12.12317    2.00000
   21    -11.74569    2.00000
   22    -11.24834    2.00000
   23    -10.70005    2.00000
   24    -10.66626    2.00000
   25    -10.22483    2.00000
   26    -10.01541    2.00000
   27     -9.78536    2.00000
   28     -9.60018    2.00000
   29     -9.35444    2.00000
   30     -9.14468    2.00000
   31     -8.93638    2.00000
   32     -8.78579    2.00000
   33     -8.57843    2.00000
   34     -8.24315    2.00000
   35     -7.88677    2.00000
   36     -7.65645    2.00000
   37     -7.10000    2.00000
   38     -6.95187    2.00000
   39     -6.72467    2.00000
   40     -6.46939    2.00000
   41     -6.39985    2.00000
   42     -6.18551    2.00000
   43     -5.56370    1.99995
   44     -5.42478    1.99981
   45     -5.27960    1.99917
   46     -4.80812    1.91180
   47     -4.64571    1.62064
   48     -4.37079    0.42931
   49     -4.10911    0.03915
   50     -3.55148    0.00015
   51     -3.36556    0.00002
   52     -2.92501    0.00000
   53     -2.79606    0.00000
   54     -2.35370    0.00000
   55     -2.12635    0.00000
   56     -1.96969    0.00000
   57     -1.94280    0.00000
   58     -1.52502    0.00000
   59     -1.10723    0.00000
   60     -0.77322    0.00000
   61     -0.17790    0.00000
   62      0.16243    0.00000
   63      0.54102    0.00000
   64      1.05772    0.00000
   65      1.18576    0.00000
   66      2.09007    0.00000
   67      2.78452    0.00000
   68      2.80330    0.00000
   69      3.07687    0.00000
   70      4.16128    0.00000
   71      4.38574    0.00000
   72      5.01329    0.00000
   73      5.20425    0.00000
   74      5.63045    0.00000
   75      6.30237    0.00000
   76      6.53003    0.00000
   77      6.90773    0.00000
   78      7.32846    0.00000
   79      7.37330    0.00000
   80      7.64541    0.00000
   81      7.75048    0.00000
   82      8.19035    0.00000
   83      8.31119    0.00000
   84      8.51383    0.00000
   85      8.64737    0.00000
   86      8.90060    0.00000
   87      9.03235    0.00000
   88      9.05466    0.00000
   89      9.17205    0.00000
   90      9.35517    0.00000
   91      9.38260    0.00000
   92      9.55422    0.00000
   93      9.79845    0.00000
   94      9.85005    0.00000
   95      9.92688    0.00000
   96     10.06258    0.00000
   97     10.14503    0.00000


Forces in eV/Ang:
  0 C    -0.20678    1.53978    0.55310
  1 C     0.58184   -0.78896    1.38249
  2 C     1.64692   -0.00979   -1.80210
  3 C    -4.03306   -0.47466   -0.47243
  4 C     5.43497    0.96638    3.20655
  5 C     5.49900   -2.99678   -0.86274
  6 C     0.65840    1.93211   -1.67096
  7 C   -11.99701   -1.08899   -1.00622
  8 C     1.66565   -0.25564    2.27342
  9 C    -0.38516    0.43181   -0.34139
 10 C    -0.95575    0.06196    0.02288
 11 C     1.85415   -0.01981   -0.52452
 12 C     0.16964   -2.63820   -0.07990
 13 C     0.57734   -0.10227    3.08401
 14 C     0.12783    0.08831   -0.51177
 15 C     0.33313    0.12104   -0.17997
 16 C    -4.22973   -0.70681   -3.65800
 17 C     0.43497   -0.16639    0.16284
 18 C     0.22285    0.67897   -0.73237
 19 C     2.39911    4.28319    2.10138
 20 C     0.46747   -1.47976   -0.42234
 21 C    -0.04591    1.50066   -0.33329
 22 C    -0.72891   -0.67559   -0.39740
 23 C     0.54663   -0.15606    0.16739

System changes: positions 

Initializing position-dependent things.

Density initialized from wave functions
           .--------------------------------------.  
          /|                                      |  
         / |                                      |  
        /  |                                      |  
       /   |                                      |  
      /    |                                      |  
     /     |                                      |  
    /      |                                      |  
   /       |        C  C C                        |  
  /        |     C                                |  
 *         |  C     C         C                   |  
 |         |  C      C   C  C    C                |  
 |         .--C-C--C-C---C-C---C-C----------------.  
 |        /     C   C    C                       /   
 |       /            C                         /    
 |      /                                      /     
 |     /                                      /      
 |    /                                      /       
 |   /                                      /        
 |  /                                      /         
 | /                                      /          
 |/                                      /           
 *--------------------------------------*            

Positions:
   0 C     11.124300    7.027368    4.928124
   1 C      4.999748   10.176297    6.392292
   2 C      7.752487    7.556227    5.316160
   3 C      6.633958    9.668473    6.311915
   4 C      9.796429    8.942736    4.933969
   5 C     10.915683    8.331298    4.717789
   6 C      6.876908   10.791508    5.642133
   7 C      8.623273    9.099190    4.586978
   8 C      5.621964    8.827279    5.181580
   9 C      3.401166    8.103682    5.766781
  10 C      6.302582    7.599403    5.317147
  11 C      4.277482    9.209921    5.634655
  12 C      3.414745    6.839568    5.598647
  13 C      5.311506    3.582577    5.287758
  14 C      7.952158    3.272108    5.276604
  15 C      6.688097    3.889724    5.255987
  16 C      4.813353    4.622962    6.049790
  17 C      9.039453    3.916383    5.296091
  18 C      6.864185    5.357289    5.262726
  19 C      3.844209    5.482890    5.403658
  20 C      5.755936    6.238454    5.305299
  21 C      8.121614    6.083800    5.294245
  22 C     10.654219    5.876305    5.125343
  23 C      9.370959    5.288826    5.269441

Unit cell:
           periodic     x           y           z      points  spacing
  1. axis:    yes   16.000000    0.000000    0.000000    80     0.2000
  2. axis:    yes    0.000000   16.000000    0.000000    80     0.2000
  3. axis:    yes    0.000000    0.000000   10.000000    48     0.2083

Effective grid spacing dv^(1/3) = 0.2027

                     log10-error:    total        iterations:
           time      wfs    density  energy       fermi  poisson
iter:   1  12:03:20          +inf  -171.349071    3      5      
iter:   2  12:03:20         -1.68  -171.027361    3      2      
iter:   3  12:03:21         -1.92  -170.885370    2      2      
iter:   4  12:03:21         -2.21  -170.877353    2      2      
iter:   5  12:03:22         -2.29  -170.866008    3      2      
iter:   6  12:03:23         -2.55  -170.862258    2      2      
iter:   7  12:03:23         -2.68  -170.866266    2      2      
iter:   8  12:03:24         -2.75  -170.863904    2      2      
iter:   9  12:03:25         -2.96  -170.863293    2      2      
iter:  10  12:03:25         -3.19  -170.862174    2      1      
iter:  11  12:03:26         -3.39  -170.862358    2      1      
iter:  12  12:03:26         -3.49  -170.862428    2      1      
iter:  13  12:03:27         -3.67  -170.862706    2      1      
iter:  14  12:03:27         -3.79  -170.862777    2      1      
iter:  15  12:03:28         -3.97  -170.862871    2      1      
iter:  16  12:03:29         -4.08  -170.862698    1      1      

Converged after 16 iterations.

Dipole moment: (0.030220, -0.342499, 0.094503) |e|*Ang

Energy contributions relative to reference atoms: (reference = -24663.074771)

Kinetic:       +102.730524
Potential:     -109.775757
External:        +0.000000
XC:            -166.593383
Entropy (-ST):   -0.242930
Local:           +2.897383
--------------------------
Free energy:   -170.984163
Extrapolated:  -170.862698

Fermi level: -4.47065

 Band  Eigenvalues  Occupancy
    0    -22.98685    2.00000
    1    -22.49855    2.00000
    2    -21.33945    2.00000
    3    -20.92828    2.00000
    4    -20.86315    2.00000
    5    -20.19793    2.00000
    6    -19.55328    2.00000
    7    -19.05095    2.00000
    8    -18.46490    2.00000
    9    -18.19224    2.00000
   10    -17.73708    2.00000
   11    -16.83316    2.00000
   12    -16.65155    2.00000
   13    -16.05578    2.00000
   14    -15.08842    2.00000
   15    -14.51064    2.00000
   16    -13.94968    2.00000
   17    -13.56907    2.00000
   18    -13.28987    2.00000
   19    -12.81321    2.00000
   20    -12.12268    2.00000
   21    -11.79230    2.00000
   22    -11.32896    2.00000
   23    -10.71696    2.00000
   24    -10.69653    2.00000
   25    -10.24796    2.00000
   26    -10.05819    2.00000
   27     -9.73072    2.00000
   28     -9.53373    2.00000
   29     -9.36325    2.00000
   30     -9.24882    2.00000
   31     -8.92567    2.00000
   32     -8.78951    2.00000
   33     -8.57245    2.00000
   34     -8.28351    2.00000
   35     -7.89931    2.00000
   36     -7.59540    2.00000
   37     -7.14313    2.00000
   38     -6.93656    2.00000
   39     -6.71437    2.00000
   40     -6.47820    2.00000
   41     -6.40864    2.00000
   42     -6.17231    2.00000
   43     -5.54242    1.99996
   44     -5.41852    1.99985
   45     -5.29388    1.99947
   46     -4.82118    1.94168
   47     -4.61532    1.61897
   48     -4.33366    0.40527
   49     -4.06686    0.03466
   50     -3.51560    0.00014
   51     -3.30670    0.00002
   52     -2.93633    0.00000
   53     -2.74593    0.00000
   54     -2.35322    0.00000
   55     -2.11908    0.00000
   56     -1.95553    0.00000
   57     -1.84085    0.00000
   58     -1.47960    0.00000
   59     -1.13794    0.00000
   60     -0.74829    0.00000
   61     -0.21613    0.00000
   62      0.15165    0.00000
   63      0.42728    0.00000
   64      1.04198    0.00000
   65      1.21619    0.00000
   66      2.14423    0.00000
   67      2.74703    0.00000
   68      2.93720    0.00000
   69      3.10403    0.00000
   70      4.20112    0.00000
   71      4.58834    0.00000
   72      5.22282    0.00000
   73      5.23494    0.00000
   74      5.65657    0.00000
   75      6.27835    0.00000
   76      6.68065    0.00000
   77      6.98820    0.00000
   78      7.39244    0.00000
   79      7.45493    0.00000
   80      7.64099    0.00000
   81      8.13613    0.00000
   82      8.25083    0.00000
   83      8.38559    0.00000
   84      8.55655    0.00000
   85      8.69438    0.00000
   86      8.91266    0.00000
   87      9.00661    0.00000
   88      9.06307    0.00000
   89      9.16973    0.00000
   90      9.33962    0.00000
   91      9.40468    0.00000
   92      9.53810    0.00000
   93      9.80518    0.00000
   94      9.86002    0.00000
   95      9.89188    0.00000
   96     10.04196    0.00000
   97     10.15415    0.00000


Forces in eV/Ang:
  0 C    -0.14773    0.81455    0.70753
  1 C     0.51544   -0.74056    1.45211
  2 C     1.10376    0.22635   -1.73470
  3 C    -3.82272    0.46791   -1.00156
  4 C     5.57146   -0.26215    1.79868
  5 C     2.11034   -0.25580   -0.51362
  6 C     0.63669    1.08556   -1.14915
  7 C    -8.76871   -1.85656   -0.08299
  8 C     1.51702   -0.20582    2.17459
  9 C    -0.18496   -0.14126   -0.44480
 10 C    -0.41923   -0.33029   -0.02931
 11 C     1.40791   -0.30146   -0.47749
 12 C    -0.04619   -1.10162    0.04533
 13 C     0.62646   -0.26974    2.80725
 14 C     0.20628    0.09865   -0.47030
 15 C     0.20051    0.18696   -0.07876
 16 C    -3.87398   -0.83936   -3.32505
 17 C     0.33716   -0.18586    0.15710
 18 C     0.26499    0.45747   -0.69709
 19 C     2.51330    3.80166    1.85098
 20 C     0.32836   -0.96792   -0.39362
 21 C     0.11824    1.26763   -0.39838
 22 C    -0.67972   -0.90283   -0.38060
 23 C     0.52545    0.00268    0.12616

System changes: positions 

Initializing position-dependent things.

Density initialized from wave functions
           .--------------------------------------.  
          /|                                      |  
         / |                                      |  
        /  |                                      |  
       /   |                                      |  
      /    |                                      |  
     /     |                                      |  
    /      |                                      |  
   /       |        C  C C                        |  
  /        |     C                                |  
 *         |  C     C         C                   |  
 |         |  C      C   C  C    C                |  
 |         .--C-C--C-C---C-C---C-C----------------.  
 |        /     C   C    C                       /   
 |       /            C                         /    
 |      /                                      /     
 |     /                                      /      
 |    /                                      /       
 |   /                                      /        
 |  /                                      /         
 | /                                      /          
 |/                                      /           
 *--------------------------------------*            

Positions:
   0 C     11.122998    7.026552    4.934582
   1 C      5.003694   10.170634    6.404034
   2 C      7.760445    7.559274    5.302421
   3 C      6.604309    9.675224    6.302297
   4 C      9.803488    8.946636    4.937381
   5 C     10.928975    8.334066    4.713344
   6 C      6.882006   10.797277    5.634654
   7 C      8.592759    9.077731    4.597248
   8 C      5.633698    8.825853    5.198758
   9 C      3.399997    8.099599    5.762837
  10 C      6.300548    7.595423    5.316951
  11 C      4.287566    9.206690    5.630884
  12 C      3.413938    6.835850    5.599385
  13 C      5.316550    3.579961    5.309473
  14 C      7.953946    3.272880    5.272898
  15 C      6.689342    3.891390    5.255553
  16 C      4.783422    4.615942    6.024199
  17 C      9.041889    3.914912    5.297356
  18 C      6.866433    5.360323    5.257131
  19 C      3.864449    5.512069    5.417950
  20 C      5.758168    6.231925    5.302195
  21 C      8.122943    6.092982    5.291089
  22 C     10.650920    5.872157    5.121809
  23 C      9.374326    5.289081    5.270425

Unit cell:
           periodic     x           y           z      points  spacing
  1. axis:    yes   16.000000    0.000000    0.000000    80     0.2000
  2. axis:    yes    0.000000   16.000000    0.000000    80     0.2000
  3. axis:    yes    0.000000    0.000000   10.000000    48     0.2083

Effective grid spacing dv^(1/3) = 0.2027

                     log10-error:    total        iterations:
           time      wfs    density  energy       fermi  poisson
iter:   1  12:03:31          +inf  -172.278265    3      5      
iter:   2  12:03:31         -1.75  -172.083353    3      2      
iter:   3  12:03:32         -1.97  -171.984126    2      2      
iter:   4  12:03:32         -2.27  -171.973412    2      2      
iter:   5  12:03:33         -2.38  -171.966757    2      2      
iter:   6  12:03:34         -2.63  -171.965125    2      2      
iter:   7  12:03:34         -2.75  -171.965780    2      2      
iter:   8  12:03:35         -2.94  -171.964955    2      2      
iter:   9  12:03:35         -3.12  -171.963209    2      1      
iter:  10  12:03:36         -3.23  -171.961651    2      1      
iter:  11  12:03:37         -3.48  -171.964966    2      1      
iter:  12  12:03:37         -3.67  -171.964172    2      1      
iter:  13  12:03:38         -3.81  -171.965040    2      1      
iter:  14  12:03:38         -3.90  -171.965757    2      1      
iter:  15  12:03:39         -4.09  -171.965407    2      1      

Converged after 15 iterations.

Dipole moment: (-0.017308, -0.355161, 0.095987) |e|*Ang

Energy contributions relative to reference atoms: (reference = -24663.074771)

Kinetic:       +101.366094
Potential:     -108.982304
External:        +0.000000
XC:            -167.148296
Entropy (-ST):   -0.221163
Local:           +2.909681
--------------------------
Free energy:   -172.075988
Extrapolated:  -171.965407

Fermi level: -4.43098

 Band  Eigenvalues  Occupancy
    0    -23.03301    2.00000
    1    -22.51012    2.00000
    2    -21.34014    2.00000
    3    -20.90691    2.00000
    4    -20.84924    2.00000
    5    -20.22723    2.00000
    6    -19.51909    2.00000
    7    -19.05933    2.00000
    8    -18.42749    2.00000
    9    -18.20375    2.00000
   10    -17.76187    2.00000
   11    -16.78416    2.00000
   12    -16.67931    2.00000
   13    -16.10707    2.00000
   14    -15.09846    2.00000
   15    -14.50880    2.00000
   16    -13.95422    2.00000
   17    -13.59130    2.00000
   18    -13.34404    2.00000
   19    -12.79933    2.00000
   20    -12.11841    2.00000
   21    -11.83905    2.00000
   22    -11.40725    2.00000
   23    -10.74922    2.00000
   24    -10.73106    2.00000
   25    -10.31723    2.00000
   26    -10.05794    2.00000
   27     -9.70930    2.00000
   28     -9.51080    2.00000
   29     -9.44625    2.00000
   30     -9.34906    2.00000
   31     -8.94644    2.00000
   32     -8.81230    2.00000
   33     -8.57280    2.00000
   34     -8.32297    2.00000
   35     -7.90324    2.00000
   36     -7.55017    2.00000
   37     -7.15303    2.00000
   38     -6.94736    2.00000
   39     -6.69871    2.00000
   40     -6.48089    2.00000
   41     -6.41359    2.00000
   42     -6.14286    2.00000
   43     -5.53664    1.99997
   44     -5.43696    1.99991
   45     -5.30611    1.99968
   46     -4.83210    1.96442
   47     -4.58365    1.64304
   48     -4.28200    0.36790
   49     -3.99364    0.02490
   50     -3.48752    0.00016
   51     -3.21136    0.00001
   52     -2.93367    0.00000
   53     -2.67280    0.00000
   54     -2.33424    0.00000
   55     -2.07991    0.00000
   56     -1.92533    0.00000
   57     -1.79047    0.00000
   58     -1.39187    0.00000
   59     -1.15882    0.00000
   60     -0.70045    0.00000
   61     -0.20819    0.00000
   62      0.13533    0.00000
   63      0.39130    0.00000
   64      1.05321    0.00000
   65      1.34332    0.00000
   66      2.31045    0.00000
   67      2.72412    0.00000
   68      3.13383    0.00000
   69      3.27438    0.00000
   70      4.22984    0.00000
   71      4.81960    0.00000
   72      5.24815    0.00000
   73      5.38952    0.00000
   74      5.68706    0.00000
   75      6.26144    0.00000
   76      6.80648    0.00000
   77      7.06207    0.00000
   78      7.42576    0.00000
   79      7.58572    0.00000
   80      7.66484    0.00000
   81      8.16888    0.00000
   82      8.47207    0.00000
   83      8.52205    0.00000
   84      8.66533    0.00000
   85      8.80481    0.00000
   86      8.93578    0.00000
   87      8.99871    0.00000
   88      9.10086    0.00000
   89      9.16666    0.00000
   90      9.33385    0.00000
   91      9.42102    0.00000
   92      9.53577    0.00000
   93      9.83977    0.00000
   94      9.86020    0.00000
   95      9.89307    0.00000
   96     10.00717    0.00000
   97     10.17926    0.00000


Forces in eV/Ang:
  0 C    -0.20224    0.73890    0.70188
  1 C     0.24830   -0.78969    1.51051
  2 C     0.81124    0.53087   -1.67000
  3 C    -3.58646    0.84242   -1.22208
  4 C     3.60776   -0.25787    1.04356
  5 C     1.54919   -0.01279   -0.44434
  6 C     0.79225    0.83206   -0.97459
  7 C    -6.29513   -2.35960    0.66157
  8 C     1.33911   -0.24801    2.10272
  9 C     0.03244    0.13993   -0.45357
 10 C    -0.07329   -0.52187   -0.10643
 11 C     1.06576   -0.39521   -0.39570
 12 C    -0.30425   -0.49176    0.07212
 13 C     0.59480   -0.41717    2.51095
 14 C     0.17097    0.08687   -0.43156
 15 C     0.14094    0.20471    0.02230
 16 C    -3.42371   -1.06670   -2.90888
 17 C     0.31668   -0.09706    0.13976
 18 C     0.26609    0.30225   -0.62345
 19 C     2.64675    3.35330    1.55059
 20 C     0.18528   -0.57859   -0.41393
 21 C     0.23973    0.92552   -0.43439
 22 C    -0.35361   -0.59878   -0.38666
 23 C     0.23585   -0.05453    0.09638

System changes: positions 

Initializing position-dependent things.

Density initialized from wave functions
           .--------------------------------------.  
          /|                                      |  
         / |                                      |  
        /  |                                      |  
       /   |                                      |  
      /    |                                      |  
     /     |                                      |  
    /      |                                      |  
   /       |        C  C C                        |  
  /        |     C                                |  
 *         |  C     C         C                   |  
 |         |  C      C   C  C    C                |  
 |         .--CC---C-C---C-C---C-C----------------.  
 |        /     C   C    C                       /   
 |       /            C                         /    
 |      /                                      /     
 |     /                                      /      
 |    /                                      /       
 |   /                                      /        
 |  /                                      /         
 | /                                      /          
 |/                                      /           
 *--------------------------------------*            

Positions:
   0 C     11.120924    7.028875    4.941230
   1 C      5.005086   10.163569    6.417728
   2 C      7.766675    7.565495    5.287726
   3 C      6.573378    9.685063    6.290102
   4 C      9.806825    8.948859    4.938680
   5 C     10.941210    8.335833    4.709134
   6 C      6.889545   10.802738    5.627163
   7 C      8.565979    9.051628    4.611442
   8 C      5.645003    8.823621    5.217269
   9 C      3.400968    8.100196    5.758588
  10 C      6.301346    7.589642    5.315839
  11 C      4.295676    9.202569    5.627581
  12 C      3.410356    6.835343    5.600256
  13 C      5.321763    3.575639    5.330785
  14 C      7.955407    3.273604    5.269161
  15 C      6.690296    3.893332    5.256095
  16 C      4.754539    4.605662    5.999802
  17 C      9.044562    3.914320    5.298564
  18 C      6.868866    5.362339    5.251736
  19 C      3.888485    5.540302    5.430793
  20 C      5.759262    6.228281    5.298448
  21 C      8.125560    6.099835    5.287167
  22 C     10.649980    5.869724    5.118023
  23 C      9.375104    5.288471    5.271213

Unit cell:
           periodic     x           y           z      points  spacing
  1. axis:    yes   16.000000    0.000000    0.000000    80     0.2000
  2. axis:    yes    0.000000   16.000000    0.000000    80     0.2000
  3. axis:    yes    0.000000    0.000000   10.000000    48     0.2083

Effective grid spacing dv^(1/3) = 0.2027

                     log10-error:    total        iterations:
           time      wfs    density  energy       fermi  poisson
iter:   1  12:03:41          +inf  -173.142126    3      5      
iter:   2  12:03:42         -1.81  -173.019668    2      2      
iter:   3  12:03:42         -2.02  -172.957822    2      2      
iter:   4  12:03:43         -2.26  -172.941240    2      2      
iter:   5  12:03:43         -2.42  -172.936265    2      2      
iter:   6  12:03:44         -2.64  -172.936010    2      2      
iter:   7  12:03:45         -2.75  -172.935675    2      2      
iter:   8  12:03:45         -2.96  -172.934888    2      2      
iter:   9  12:03:46         -3.17  -172.933815    2      1      
iter:  10  12:03:46         -3.24  -172.931808    2      1      
iter:  11  12:03:47         -3.52  -172.934970    2      1      
iter:  12  12:03:48         -3.71  -172.934808    2      1      
iter:  13  12:03:48         -3.81  -172.935155    2      1      
iter:  14  12:03:49         -3.92  -172.936120    2      1      
iter:  15  12:03:49         -4.18  -172.935682    2      1      

Converged after 15 iterations.

Dipole moment: (-0.056525, -0.365918, 0.096325) |e|*Ang

Energy contributions relative to reference atoms: (reference = -24663.074771)

Kinetic:       +101.143242
Potential:     -109.005851
External:        +0.000000
XC:            -167.891085
Entropy (-ST):   -0.203342
Local:           +2.919683
--------------------------
Free energy:   -173.037353
Extrapolated:  -172.935682

Fermi level: -4.39382

 Band  Eigenvalues  Occupancy
    0    -23.08658    2.00000
    1    -22.52070    2.00000
    2    -21.36007    2.00000
    3    -20.90013    2.00000
    4    -20.83335    2.00000
    5    -20.24499    2.00000
    6    -19.49705    2.00000
    7    -19.05904    2.00000
    8    -18.39759    2.00000
    9    -18.21559    2.00000
   10    -17.78415    2.00000
   11    -16.74755    2.00000
   12    -16.69416    2.00000
   13    -16.15224    2.00000
   14    -15.11992    2.00000
   15    -14.51898    2.00000
   16    -13.97511    2.00000
   17    -13.65811    2.00000
   18    -13.35704    2.00000
   19    -12.78468    2.00000
   20    -12.12085    2.00000
   21    -11.87823    2.00000
   22    -11.48619    2.00000
   23    -10.80260    2.00000
   24    -10.76664    2.00000
   25    -10.39179    2.00000
   26    -10.03453    2.00000
   27     -9.70617    2.00000
   28     -9.57357    2.00000
   29     -9.47542    2.00000
   30     -9.43556    2.00000
   31     -8.98394    2.00000
   32     -8.82310    2.00000
   33     -8.57824    2.00000
   34     -8.35410    2.00000
   35     -7.90401    2.00000
   36     -7.50435    2.00000
   37     -7.15370    2.00000
   38     -6.96119    2.00000
   39     -6.67608    2.00000
   40     -6.48177    2.00000
   41     -6.41664    2.00000
   42     -6.12387    2.00000
   43     -5.53214    1.99998
   44     -5.46305    1.99995
   45     -5.31660    1.99980
   46     -4.84168    1.97756
   47     -4.55535    1.66830
   48     -4.23409    0.33671
   49     -3.92067    0.01747
   50     -3.47974    0.00021
   51     -3.12072    0.00001
   52     -2.92057    0.00000
   53     -2.60130    0.00000
   54     -2.33562    0.00000
   55     -2.03277    0.00000
   56     -1.90541    0.00000
   57     -1.73175    0.00000
   58     -1.30664    0.00000
   59     -1.17396    0.00000
   60     -0.64785    0.00000
   61     -0.17233    0.00000
   62      0.11695    0.00000
   63      0.38929    0.00000
   64      1.08049    0.00000
   65      1.47067    0.00000
   66      2.54760    0.00000
   67      2.71210    0.00000
   68      3.31720    0.00000
   69      3.51794    0.00000
   70      4.25944    0.00000
   71      5.00653    0.00000
   72      5.30377    0.00000
   73      5.49192    0.00000
   74      5.74868    0.00000
   75      6.26842    0.00000
   76      6.89229    0.00000
   77      7.15747    0.00000
   78      7.44804    0.00000
   79      7.67612    0.00000
   80      7.72124    0.00000
   81      8.16423    0.00000
   82      8.49297    0.00000
   83      8.54838    0.00000
   84      8.77801    0.00000
   85      8.91006    0.00000
   86      8.97802    0.00000
   87      9.05121    0.00000
   88      9.16117    0.00000
   89      9.28820    0.00000
   90      9.33928    0.00000
   91      9.41077    0.00000
   92      9.58378    0.00000
   93      9.86037    0.00000
   94      9.88084    0.00000
   95      9.90014    0.00000
   96      9.99349    0.00000
   97     10.22189    0.00000


Forces in eV/Ang:
  0 C    -0.25947    0.51704    0.72116
  1 C    -0.04598   -0.85599    1.54349
  2 C     0.64523    0.72659   -1.60424
  3 C    -3.28287    1.11508   -1.37376
  4 C     2.48826   -0.42570    0.53622
  5 C     1.00197    0.38916   -0.41323
  6 C     0.92745    0.65852   -0.83797
  7 C    -4.63470   -2.69925    1.16038
  8 C     1.16114   -0.29694    2.04999
  9 C     0.10603    0.10933   -0.46958
 10 C     0.11655   -0.52335   -0.19767
 11 C     0.84934   -0.29668   -0.31476
 12 C    -0.52128    0.13737    0.10255
 13 C     0.57029   -0.51043    2.23189
 14 C     0.21290    0.11039   -0.38739
 15 C     0.10632    0.18007    0.09724
 16 C    -3.00426   -1.33492   -2.45311
 17 C     0.20436   -0.12750    0.11769
 18 C     0.20900    0.21869   -0.51946
 19 C     2.80550    3.00597    1.24117
 20 C     0.06740   -0.34743   -0.43288
 21 C     0.24126    0.66560   -0.47017
 22 C    -0.16869   -0.40870   -0.37437
 23 C     0.17883    0.02228    0.04994

System changes: positions 

Initializing position-dependent things.

Density initialized from wave functions
           .--------------------------------------.  
          /|                                      |  
         / |                                      |  
        /  |                                      |  
       /   |                                      |  
      /    |                                      |  
     /     |                                      |  
    /      |                                      |  
   /       |        C  C                          |  
  /        |             C                        |  
 *         |  C  C  C          C                  |  
 |         |  C      C   C C     C                |  
 |         .--CC---C-C---C-C---CC-----------------.  
 |        /     C   C    C                       /   
 |       /            C                         /    
 |      /                                      /     
 |     /                                      /      
 |    /                                      /       
 |   /                                      /        
 |  /                                      /         
 | /                                      /          
 |/                                      /           
 *--------------------------------------*            

Positions:
   0 C     11.118214    7.030936    4.948015
   1 C      5.003702   10.155539    6.431996
   2 C      7.772311    7.573131    5.273178
   3 C      6.544295    9.696273    6.276970
   4 C      9.809012    8.948808    4.938987
   5 C     10.951800    8.338788    4.704847
   6 C      6.898578   10.808082    5.619956
   7 C      8.542038    9.023813    4.627353
   8 C      5.655100    8.820756    5.235947
   9 C      3.402180    8.100959    5.754211
  10 C      6.303015    7.584636    5.313815
  11 C      4.302749    9.200047    5.624921
  12 C      3.404907    6.838717    5.601280
  13 C      5.326855    3.570623    5.350392
  14 C      7.957378    3.274642    5.265714
  15 C      6.691166    3.894921    5.257209
  16 C      4.728354    4.592582    5.978746
  17 C      9.046171    3.913194    5.299585
  18 C      6.870641    5.364042    5.247233
  19 C      3.914667    5.566786    5.441279
  20 C      5.759484    6.225822    5.294385
  21 C      8.127827    6.104905    5.282831
  22 C     10.650032    5.868348    5.114379
  23 C      9.376004    5.288683    5.271576

Unit cell:
           periodic     x           y           z      points  spacing
  1. axis:    yes   16.000000    0.000000    0.000000    80     0.2000
  2. axis:    yes    0.000000   16.000000    0.000000    80     0.2000
  3. axis:    yes    0.000000    0.000000   10.000000    48     0.2083

Effective grid spacing dv^(1/3) = 0.2027

                     log10-error:    total        iterations:
           time      wfs    density  energy       fermi  poisson
iter:   1  12:03:51          +inf  -173.927098    3      5      
iter:   2  12:03:52         -1.89  -173.851963    2      2      
iter:   3  12:03:53         -2.09  -173.815288    2      2      
iter:   4  12:03:53         -2.28  -173.799336    2      2      
iter:   5  12:03:54         -2.47  -173.794915    2      2      
iter:   6  12:03:55         -2.68  -173.795926    2      2      
iter:   7  12:03:55         -2.80  -173.795205    2      2      
iter:   8  12:03:56         -3.03  -173.794691    2      2      
iter:   9  12:03:56         -3.24  -173.793775    2      1      
iter:  10  12:03:57         -3.31  -173.792281    2      1      
iter:  11  12:03:57         -3.59  -173.795407    2      1      
iter:  12  12:03:58         -3.65  -173.795676    2      1      
iter:  13  12:03:59         -3.79  -173.794730    2      1      
iter:  14  12:03:59         -3.94  -173.795626    2      1      
iter:  15  12:04:00         -4.03  -173.795712    2      1      

Converged after 15 iterations.

Dipole moment: (-0.086598, -0.378341, 0.094986) |e|*Ang

Energy contributions relative to reference atoms: (reference = -24663.074771)

Kinetic:       +101.655230
Potential:     -109.591992
External:        +0.000000
XC:            -168.695223
Entropy (-ST):   -0.187951
Local:           +2.930248
--------------------------
Free energy:   -173.889687
Extrapolated:  -173.795712

Fermi level: -4.36246

 Band  Eigenvalues  Occupancy
    0    -23.14052    2.00000
    1    -22.52870    2.00000
    2    -21.38018    2.00000
    3    -20.90023    2.00000
    4    -20.81423    2.00000
    5    -20.25354    2.00000
    6    -19.48261    2.00000
    7    -19.04492    2.00000
    8    -18.37736    2.00000
    9    -18.22640    2.00000
   10    -17.81283    2.00000
   11    -16.71703    2.00000
   12    -16.70409    2.00000
   13    -16.18281    2.00000
   14    -15.14483    2.00000
   15    -14.53212    2.00000
   16    -13.99710    2.00000
   17    -13.73442    2.00000
   18    -13.34809    2.00000
   19    -12.77474    2.00000
   20    -12.12673    2.00000
   21    -11.91091    2.00000
   22    -11.55465    2.00000
   23    -10.87290    2.00000
   24    -10.80410    2.00000
   25    -10.44482    2.00000
   26    -10.01368    2.00000
   27     -9.71096    2.00000
   28     -9.67831    2.00000
   29     -9.51567    2.00000
   30     -9.46190    2.00000
   31     -9.02197    2.00000
   32     -8.81852    2.00000
   33     -8.58498    2.00000
   34     -8.37259    2.00000
   35     -7.90388    2.00000
   36     -7.45902    2.00000
   37     -7.15217    2.00000
   38     -6.97721    2.00000
   39     -6.65449    2.00000
   40     -6.48832    2.00000
   41     -6.42099    2.00000
   42     -6.11625    2.00000
   43     -5.53477    1.99998
   44     -5.50126    1.99998
   45     -5.32313    1.99987
   46     -4.85347    1.98536
   47     -4.53388    1.69477
   48     -4.19183    0.30728
   49     -3.85526    0.01246
   50     -3.48037    0.00030
   51     -3.05868    0.00000
   52     -2.85451    0.00000
   53     -2.54175    0.00000
   54     -2.34045    0.00000
   55     -1.98726    0.00000
   56     -1.88841    0.00000
   57     -1.67610    0.00000
   58     -1.29821    0.00000
   59     -1.10864    0.00000
   60     -0.62039    0.00000
   61     -0.09562    0.00000
   62      0.12906    0.00000
   63      0.40847    0.00000
   64      1.11636    0.00000
   65      1.59271    0.00000
   66      2.68996    0.00000
   67      2.83157    0.00000
   68      3.46495    0.00000
   69      3.76534    0.00000
   70      4.29943    0.00000
   71      5.12052    0.00000
   72      5.36303    0.00000
   73      5.60705    0.00000
   74      5.83036    0.00000
   75      6.27236    0.00000
   76      6.93528    0.00000
   77      7.24626    0.00000
   78      7.46901    0.00000
   79      7.71001    0.00000
   80      7.82265    0.00000
   81      8.16494    0.00000
   82      8.45310    0.00000
   83      8.58638    0.00000
   84      8.84851    0.00000
   85      8.89130    0.00000
   86      9.00829    0.00000
   87      9.09189    0.00000
   88      9.15848    0.00000
   89      9.33756    0.00000
   90      9.38482    0.00000
   91      9.44827    0.00000
   92      9.70150    0.00000
   93      9.85807    0.00000
   94      9.89631    0.00000
   95      9.94636    0.00000
   96     10.01127    0.00000
   97     10.24034    0.00000


Forces in eV/Ang:
  0 C    -0.28729    0.44072    0.68872
  1 C    -0.31568   -0.87359    1.55949
  2 C     0.48471    0.84308   -1.55409
  3 C    -2.89257    1.37985   -1.47050
  4 C     1.63589   -0.60976    0.18588
  5 C     0.56606    0.65991   -0.38501
  6 C     1.07664    0.50354   -0.73840
  7 C    -3.36148   -2.87292    1.49738
  8 C     0.94699   -0.32239    1.92894
  9 C     0.17175    0.27583   -0.47742
 10 C     0.25702   -0.51859   -0.27486
 11 C     0.63751   -0.24713   -0.27438
 12 C    -0.67652    0.36906    0.10307
 13 C     0.55703   -0.57496    1.98430
 14 C     0.13813    0.06952   -0.34946
 15 C     0.09609    0.14876    0.15752
 16 C    -2.69528   -1.50401   -2.08094
 17 C     0.22784   -0.04226    0.09574
 18 C     0.16372    0.14474   -0.43338
 19 C     3.02641    2.75838    0.98695
 20 C    -0.08015   -0.14957   -0.43699
 21 C     0.24168    0.43933   -0.47617
 22 C    -0.04633   -0.31969   -0.34154
 23 C     0.09138    0.03359    0.00825

System changes: positions 

Initializing position-dependent things.

Density initialized from wave functions
           .--------------------------------------.  
          /|                                      |  
         / |                                      |  
        /  |                                      |  
       /   |                                      |  
      /    |                                      |  
     /     |                                      |  
    /      |                                      |  
   /       |        C  C                          |  
  /        |             C                        |  
 *         |  C  C  C          C                  |  
 |         |  C      C   C C     C                |  
 |         .--CC---C-C---C-C---CC-----------------.  
 |        /     C   C     C                      /   
 |       /            C                         /    
 |      /                                      /     
 |     /                                      /      
 |    /                                      /       
 |   /                                      /        
 |  /                                      /         
 | /                                      /          
 |/                                      /           
 *--------------------------------------*            

Positions:
   0 C     11.115254    7.033828    4.954440
   1 C      4.999972   10.147179    6.446731
   2 C      7.777200    7.581405    5.258522
   3 C      6.517920    9.709304    6.263224
   4 C      9.810259    8.946561    4.938906
   5 C     10.960942    8.342417    4.700524
   6 C      6.909246   10.813062    5.612829
   7 C      8.520220    8.995420    4.644223
   8 C      5.663608    8.817593    5.254017
   9 C      3.403684    8.104010    5.749727
  10 C      6.305254    7.580099    5.311083
  11 C      4.308663    9.198193    5.622382
  12 C      3.398294    6.841813    5.602158
  13 C      5.332014    3.565158    5.368745
  14 C      7.958436    3.275192    5.262459
  15 C      6.692177    3.896160    5.258750
  16 C      4.703420    4.577934    5.959860
  17 C      9.048417    3.913001    5.300440
  18 C      6.871999    5.365429    5.243324
  19 C      3.943812    5.592701    5.450166
  20 C      5.758445    6.224381    5.290188
  21 C      8.129896    6.108552    5.278420
  22 C     10.650501    5.866951    5.111053
  23 C      9.376483    5.288886    5.271593

Unit cell:
           periodic     x           y           z      points  spacing
  1. axis:    yes   16.000000    0.000000    0.000000    80     0.2000
  2. axis:    yes    0.000000   16.000000    0.000000    80     0.2000
  3. axis:    yes    0.000000    0.000000   10.000000    48     0.2083

Effective grid spacing dv^(1/3) = 0.2027

                     log10-error:    total        iterations:
           time      wfs    density  energy       fermi  poisson
iter:   1  12:04:02          +inf  -174.682910    3      5      
iter:   2  12:04:02         -1.95  -174.632616    2      2      
iter:   3  12:04:03         -2.13  -174.607415    2      2      
iter:   4  12:04:04         -2.31  -174.594192    2      2      
iter:   5  12:04:04         -2.51  -174.589574    2      2      
iter:   6  12:04:05         -2.71  -174.591413    2      2      
iter:   7  12:04:06         -2.84  -174.590517    2      2      
iter:   8  12:04:06         -3.10  -174.585136    2      1      
iter:   9  12:04:07         -3.30  -174.588046    2      1      
iter:  10  12:04:07         -3.40  -174.591002    2      1      
iter:  11  12:04:08         -3.57  -174.589622    2      1      
iter:  12  12:04:08         -3.71  -174.591277    1      1      
iter:  13  12:04:09         -3.77  -174.591146    2      1      
iter:  14  12:04:10         -3.86  -174.589497    1      1      
iter:  15  12:04:10         -4.12  -174.590801    2      1      

Converged after 15 iterations.

Dipole moment: (-0.111830, -0.394375, 0.091787) |e|*Ang

Energy contributions relative to reference atoms: (reference = -24663.074771)

Kinetic:       +102.117016
Potential:     -110.128656
External:        +0.000000
XC:            -169.428207
Entropy (-ST):   -0.172198
Local:           +2.935145
--------------------------
Free energy:   -174.676900
Extrapolated:  -174.590801

Fermi level: -4.33397

 Band  Eigenvalues  Occupancy
    0    -23.18819    2.00000
    1    -22.53354    2.00000
    2    -21.39671    2.00000
    3    -20.90486    2.00000
    4    -20.79534    2.00000
    5    -20.25494    2.00000
    6    -19.46850    2.00000
    7    -19.02795    2.00000
    8    -18.36006    2.00000
    9    -18.23779    2.00000
   10    -17.83660    2.00000
   11    -16.71569    2.00000
   12    -16.68600    2.00000
   13    -16.20262    2.00000
   14    -15.17299    2.00000
   15    -14.54772    2.00000
   16    -14.02124    2.00000
   17    -13.80978    2.00000
   18    -13.33440    2.00000
   19    -12.76785    2.00000
   20    -12.13888    2.00000
   21    -11.93911    2.00000
   22    -11.61129    2.00000
   23    -10.95189    2.00000
   24    -10.84174    2.00000
   25    -10.47913    2.00000
   26    -10.00531    2.00000
   27     -9.80145    2.00000
   28     -9.70583    2.00000
   29     -9.57570    2.00000
   30     -9.45202    2.00000
   31     -9.05682    2.00000
   32     -8.80758    2.00000
   33     -8.58977    2.00000
   34     -8.38204    2.00000
   35     -7.90295    2.00000
   36     -7.41284    2.00000
   37     -7.14619    2.00000
   38     -6.98149    2.00000
   39     -6.62933    2.00000
   40     -6.49137    2.00000
   41     -6.42201    2.00000
   42     -6.11444    2.00000
   43     -5.56846    1.99999
   44     -5.52949    1.99999
   45     -5.31934    1.99989
   46     -4.86478    1.99015
   47     -4.51872    1.72767
   48     -4.14896    0.27173
   49     -3.80642    0.01018
   50     -3.48046    0.00039
   51     -3.04737    0.00001
   52     -2.76111    0.00000
   53     -2.50084    0.00000
   54     -2.33958    0.00000
   55     -1.95783    0.00000
   56     -1.86046    0.00000
   57     -1.63814    0.00000
   58     -1.32459    0.00000
   59     -0.99916    0.00000
   60     -0.61676    0.00000
   61     -0.03336    0.00000
   62      0.21803    0.00000
   63      0.44504    0.00000
   64      1.15860    0.00000
   65      1.69860    0.00000
   66      2.67505    0.00000
   67      3.11922    0.00000
   68      3.57898    0.00000
   69      3.96365    0.00000
   70      4.36391    0.00000
   71      5.20285    0.00000
   72      5.39708    0.00000
   73      5.73588    0.00000
   74      5.94949    0.00000
   75      6.28346    0.00000
   76      6.96921    0.00000
   77      7.31418    0.00000
   78      7.50818    0.00000
   79      7.74503    0.00000
   80      7.91156    0.00000
   81      8.17972    0.00000
   82      8.40800    0.00000
   83      8.61035    0.00000
   84      8.85704    0.00000
   85      8.89612    0.00000
   86      9.03638    0.00000
   87      9.10416    0.00000
   88      9.17717    0.00000
   89      9.33444    0.00000
   90      9.39198    0.00000
   91      9.50624    0.00000
   92      9.77558    0.00000
   93      9.85888    0.00000
   94      9.91973    0.00000
   95     10.00914    0.00000
   96     10.04935    0.00000
   97     10.22864    0.00000


Forces in eV/Ang:
  0 C    -0.35672    0.29989    0.67422
  1 C    -0.58069   -0.89059    1.61915
  2 C     0.33852    0.86289   -1.44232
  3 C    -2.48716    1.62053   -1.51937
  4 C     0.93979   -0.78908   -0.06822
  5 C     0.24852    0.88103   -0.36898
  6 C     1.19198    0.37389   -0.64143
  7 C    -2.28367   -2.91226    1.72015
  8 C     0.75338   -0.36138    1.82312
  9 C     0.19635    0.18773   -0.49170
 10 C     0.33976   -0.47155   -0.33362
 11 C     0.42717   -0.16848   -0.22313
 12 C    -0.82181    0.72268    0.12275
 13 C     0.49493   -0.54942    1.73808
 14 C     0.20400    0.09598   -0.29787
 15 C     0.10334    0.12150    0.20232
 16 C    -2.46184   -1.68999   -1.75643
 17 C     0.12058   -0.06511    0.06823
 18 C     0.12538    0.10777   -0.37675
 19 C     3.31689    2.55495    0.79280
 20 C    -0.22190   -0.00095   -0.41346
 21 C     0.22173    0.25003   -0.47065
 22 C     0.10299   -0.16617   -0.32179
 23 C     0.01913    0.06235   -0.02929

System changes: positions 

Initializing position-dependent things.

Density initialized from wave functions
           .--------------------------------------.  
          /|                                      |  
         / |                                      |  
        /  |                                      |  
       /   |                                      |  
      /    |                                      |  
     /     |                                      |  
    /      |                                      |  
   /       |        C  C                          |  
  /        |             C                        |  
 *         |  C  C  C          C                  |  
 |         |  C      C   C C     C                |  
 |         .--CC---C-C---C-C---CC-----------------.  
 |        /     C   C     C                      /   
 |       /            C                         /    
 |      /                                      /     
 |     /                                      /      
 |    /                                      /       
 |   /                                      /        
 |  /                                      /         
 | /                                      /          
 |/                                      /           
 *--------------------------------------*            

Positions:
   0 C     11.111757    7.036293    4.960448
   1 C      4.994445   10.138992    6.461567
   2 C      7.781213    7.588824    5.245299
   3 C      6.495506    9.723107    6.250111
   4 C      9.810957    8.942722    4.939010
   5 C     10.969244    8.346201    4.696307
   6 C      6.920361   10.817559    5.606255
   7 C      8.501036    8.969235    4.660234
   8 C      5.670491    8.814194    5.270742
   9 C      3.404977    8.105915    5.745310
  10 C      6.307377    7.576559    5.308087
  11 C      4.313142    9.197264    5.620240
  12 C      3.391068    6.846331    5.603109
  13 C      5.336390    3.560557    5.384932
  14 C      7.960266    3.276067    5.259711
  15 C      6.693409    3.897099    5.260433
  16 C      4.680251    4.562488    5.943465
  17 C      9.049565    3.912395    5.301040
  18 C      6.873018    5.366815    5.239819
  19 C      3.974657    5.617005    5.457776
  20 C      5.756418    6.223502    5.286414
  21 C      8.131519    6.111078    5.274296
  22 C     10.651759    5.866503    5.108014
  23 C      9.376643    5.289268    5.271353

Unit cell:
           periodic     x           y           z      points  spacing
  1. axis:    yes   16.000000    0.000000    0.000000    80     0.2000
  2. axis:    yes    0.000000   16.000000    0.000000    80     0.2000
  3. axis:    yes    0.000000    0.000000   10.000000    48     0.2083

Effective grid spacing dv^(1/3) = 0.2027

                     log10-error:    total        iterations:
           time      wfs    density  energy       fermi  poisson
iter:   1  12:04:12          +inf  -175.366489    3      5      
iter:   2  12:04:13         -2.03  -175.334873    2      2      
iter:   3  12:04:13         -2.18  -175.316329    2      2      
iter:   4  12:04:14         -2.36  -175.306939    1      2      
iter:   5  12:04:15         -2.56  -175.302583    2      2      
iter:   6  12:04:15         -2.76  -175.304838    2      2      
iter:   7  12:04:16         -2.90  -175.303741    2      2      
iter:   8  12:04:17         -3.21  -175.300375    2      1      
iter:   9  12:04:17         -3.38  -175.301094    2      1      
iter:  10  12:04:18         -3.58  -175.304650    2      1      
iter:  11  12:04:18         -3.67  -175.304645    2      1      
iter:  12  12:04:19         -3.84  -175.304294    2      1      
iter:  13  12:04:19         -3.92  -175.304446    2      1      
iter:  14  12:04:20         -3.98  -175.304585    2      1      
iter:  15  12:04:21         -4.10  -175.304318    2      1      

Converged after 15 iterations.

Dipole moment: (-0.131256, -0.415906, 0.087505) |e|*Ang

Energy contributions relative to reference atoms: (reference = -24663.074771)

Kinetic:       +102.831968
Potential:     -110.881911
External:        +0.000000
XC:            -170.119910
Entropy (-ST):   -0.155892
Local:           +2.943480
--------------------------
Free energy:   -175.382264
Extrapolated:  -175.304318

Fermi level: -4.31057

 Band  Eigenvalues  Occupancy
    0    -23.22014    2.00000
    1    -22.53657    2.00000
    2    -21.40776    2.00000
    3    -20.91444    2.00000
    4    -20.77808    2.00000
    5    -20.25269    2.00000
    6    -19.45627    2.00000
    7    -19.00959    2.00000
    8    -18.35069    2.00000
    9    -18.25223    2.00000
   10    -17.85941    2.00000
   11    -16.72884    2.00000
   12    -16.65756    2.00000
   13    -16.21205    2.00000
   14    -15.19522    2.00000
   15    -14.56262    2.00000
   16    -14.04001    2.00000
   17    -13.87570    2.00000
   18    -13.31725    2.00000
   19    -12.76702    2.00000
   20    -12.15321    2.00000
   21    -11.96265    2.00000
   22    -11.64970    2.00000
   23    -11.03173    2.00000
   24    -10.87336    2.00000
   25    -10.50090    2.00000
   26    -10.01235    2.00000
   27     -9.91007    2.00000
   28     -9.70421    2.00000
   29     -9.61804    2.00000
   30     -9.44252    2.00000
   31     -9.08113    2.00000
   32     -8.79430    2.00000
   33     -8.59087    2.00000
   34     -8.38803    2.00000
   35     -7.90368    2.00000
   36     -7.36885    2.00000
   37     -7.13979    2.00000
   38     -6.98500    2.00000
   39     -6.61004    2.00000
   40     -6.50031    2.00000
   41     -6.42380    2.00000
   42     -6.12086    2.00000
   43     -5.63838    2.00000
   44     -5.53919    1.99999
   45     -5.31068    1.99991
   46     -4.87712    1.99310
   47     -4.51164    1.76383
   48     -4.10797    0.23301
   49     -3.77838    0.00972
   50     -3.46933    0.00044
   51     -3.04487    0.00001
   52     -2.66958    0.00000
   53     -2.46290    0.00000
   54     -2.33807    0.00000
   55     -1.96011    0.00000
   56     -1.80678    0.00000
   57     -1.60691    0.00000
   58     -1.34019    0.00000
   59     -0.89344    0.00000
   60     -0.62018    0.00000
   61     -0.01522    0.00000
   62      0.36495    0.00000
   63      0.53020    0.00000
   64      1.20601    0.00000
   65      1.79954    0.00000
   66      2.65920    0.00000
   67      3.37153    0.00000
   68      3.66276    0.00000
   69      4.07978    0.00000
   70      4.45421    0.00000
   71      5.26248    0.00000
   72      5.42955    0.00000
   73      5.85493    0.00000
   74      6.07365    0.00000
   75      6.31522    0.00000
   76      6.98911    0.00000
   77      7.32300    0.00000
   78      7.56680    0.00000
   79      7.78222    0.00000
   80      7.97493    0.00000
   81      8.21238    0.00000
   82      8.36421    0.00000
   83      8.62421    0.00000
   84      8.81575    0.00000
   85      8.91847    0.00000
   86      9.04811    0.00000
   87      9.09326    0.00000
   88      9.20653    0.00000
   89      9.35475    0.00000
   90      9.42398    0.00000
   91      9.54393    0.00000
   92      9.78602    0.00000
   93      9.87733    0.00000
   94      9.94597    0.00000
   95     10.05231    0.00000
   96     10.09003    0.00000
   97     10.21661    0.00000


Forces in eV/Ang:
  0 C    -0.38814    0.26101    0.65433
  1 C    -0.78024   -0.89195    1.56895
  2 C     0.18398    0.84201   -1.35283
  3 C    -2.09303    1.76839   -1.52748
  4 C     0.39977   -0.95696   -0.24947
  5 C    -0.03086    1.04129   -0.31666
  6 C     1.30580    0.30858   -0.59799
  7 C    -1.37277   -2.85067    1.82791
  8 C     0.55489   -0.38190    1.69838
  9 C     0.22780    0.26637   -0.48272
 10 C     0.40127   -0.44631   -0.37400
 11 C     0.22621   -0.11029   -0.14895
 12 C    -0.90479    0.76783    0.13146
 13 C     0.47737   -0.56519    1.52670
 14 C     0.11752    0.04408   -0.25180
 15 C     0.11474    0.09785    0.24518
 16 C    -2.33242   -1.78687   -1.49476
 17 C     0.15908    0.01627    0.04529
 18 C     0.08480    0.05901   -0.33024
 19 C     3.60179    2.43225    0.61914
 20 C    -0.39614    0.12185   -0.39164
 21 C     0.21984    0.07412   -0.47754
 22 C     0.16607   -0.11659   -0.28363
 23 C    -0.03725    0.07339   -0.06356

System changes: positions 

Initializing position-dependent things.

Density initialized from wave functions
           .--------------------------------------.  
          /|                                      |  
         / |                                      |  
        /  |                                      |  
       /   |                                      |  
      /    |                                      |  
     /     |                                      |  
    /      |                                      |  
   /       |       C   C                          |  
  /        |             C                        |  
 *         |  C  C  C          C                  |  
 |         |  C      C   C C     C                |  
 |         .--CC---C-C---C-C---CC-----------------.  
 |        /     C   C     C                      /   
 |       /            C                         /    
 |      /                                      /     
 |     /                                      /      
 |    /                                      /       
 |   /                                      /        
 |  /                                      /         
 | /                                      /          
 |/                                      /           
 *--------------------------------------*            

Positions:
   0 C     11.108254    7.039156    4.966009
   1 C      4.988004   10.131201    6.475100
   2 C      7.784123    7.595187    5.233248
   3 C      6.476821    9.736728    6.237938
   4 C      9.811283    8.937598    4.939291
   5 C     10.976275    8.350077    4.692708
   6 C      6.931790   10.822015    5.599828
   7 C      8.484927    8.945875    4.674755
   8 C      5.675713    8.810827    5.285852
   9 C      3.406265    8.108633    5.741236
  10 C      6.309393    7.573544    5.305048
  11 C      4.316212    9.196874    5.618778
  12 C      3.383929    6.849220    5.604029
  13 C      5.340547    3.556165    5.399243
  14 C      7.961022    3.276326    5.257398
  15 C      6.694805    3.897816    5.262267
  16 C      4.658048    4.547372    5.929037
  17 C      9.051352    3.912630    5.301457
  18 C      6.873691    5.367936    5.236658
  19 C      4.006597    5.640214    5.464192
  20 C      5.753109    6.223095    5.283013
  21 C      8.133000    6.112537    5.270294
  22 C     10.652891    5.865864    5.105460
  23 C      9.376613    5.289650    5.270903

Unit cell:
           periodic     x           y           z      points  spacing
  1. axis:    yes   16.000000    0.000000    0.000000    80     0.2000
  2. axis:    yes    0.000000   16.000000    0.000000    80     0.2000
  3. axis:    yes    0.000000    0.000000   10.000000    48     0.2083

Effective grid spacing dv^(1/3) = 0.2027

                     log10-error:    total        iterations:
           time      wfs    density  energy       fermi  poisson
iter:   1  12:04:23          +inf  -175.987631    3      5      
iter:   2  12:04:23         -2.10  -175.967624    2      2      
iter:   3  12:04:24         -2.24  -175.954516    2      2      
iter:   4  12:04:24         -2.42  -175.948237    2      2      
iter:   5  12:04:25         -2.62  -175.944413    2      2      
iter:   6  12:04:26         -2.83  -175.941617    2      1      
iter:   7  12:04:26         -2.96  -175.946075    2      2      
iter:   8  12:04:27         -3.25  -175.945414    2      1      
iter:   9  12:04:27         -3.46  -175.943912    2      1      
iter:  10  12:04:28         -3.68  -175.946412    2      1      
iter:  11  12:04:29         -3.75  -175.946750    2      1      
iter:  12  12:04:29         -3.87  -175.945753    1      1      
iter:  13  12:04:30         -3.98  -175.946142    1      1      
iter:  14  12:04:30         -4.03  -175.946393    2      1      

Converged after 14 iterations.

Dipole moment: (-0.149510, -0.438733, 0.082752) |e|*Ang

Energy contributions relative to reference atoms: (reference = -24663.074771)

Kinetic:       +103.196533
Potential:     -111.353187
External:        +0.000000
XC:            -170.664930
Entropy (-ST):   -0.139701
Local:           +2.945042
--------------------------
Free energy:   -176.016244
Extrapolated:  -175.946393

Fermi level: -4.28958

 Band  Eigenvalues  Occupancy
    0    -23.24134    2.00000
    1    -22.53737    2.00000
    2    -21.41455    2.00000
    3    -20.92509    2.00000
    4    -20.76241    2.00000
    5    -20.24676    2.00000
    6    -19.44380    2.00000
    7    -18.99164    2.00000
    8    -18.34232    2.00000
    9    -18.26811    2.00000
   10    -17.86972    2.00000
   11    -16.74309    2.00000
   12    -16.63044    2.00000
   13    -16.21156    2.00000
   14    -15.21230    2.00000
   15    -14.57610    2.00000
   16    -14.05935    2.00000
   17    -13.92315    2.00000
   18    -13.30208    2.00000
   19    -12.76810    2.00000
   20    -12.17012    2.00000
   21    -11.98488    2.00000
   22    -11.67632    2.00000
   23    -11.10394    2.00000
   24    -10.89744    2.00000
   25    -10.51515    2.00000
   26    -10.04207    2.00000
   27     -9.99982    2.00000
   28     -9.69865    2.00000
   29     -9.64698    2.00000
   30     -9.43216    2.00000
   31     -9.09973    2.00000
   32     -8.77889    2.00000
   33     -8.58932    2.00000
   34     -8.39120    2.00000
   35     -7.90466    2.00000
   36     -7.32966    2.00000
   37     -7.13009    2.00000
   38     -6.97615    2.00000
   39     -6.59114    2.00000
   40     -6.50177    2.00000
   41     -6.42393    2.00000
   42     -6.13031    2.00000
   43     -5.71672    2.00000
   44     -5.54669    1.99999
   45     -5.29771    1.99992
   46     -4.88763    1.99496
   47     -4.50907    1.79957
   48     -4.06653    0.19409
   49     -3.77015    0.01103
   50     -3.44567    0.00043
   51     -3.05992    0.00001
   52     -2.61595    0.00000
   53     -2.42495    0.00000
   54     -2.33453    0.00000
   55     -1.98151    0.00000
   56     -1.77123    0.00000
   57     -1.57474    0.00000
   58     -1.34069    0.00000
   59     -0.79902    0.00000
   60     -0.62605    0.00000
   61     -0.01061    0.00000
   62      0.43945    0.00000
   63      0.74270    0.00000
   64      1.25653    0.00000
   65      1.89016    0.00000
   66      2.64585    0.00000
   67      3.55945    0.00000
   68      3.72785    0.00000
   69      4.14337    0.00000
   70      4.54002    0.00000
   71      5.27801    0.00000
   72      5.50461    0.00000
   73      5.94399    0.00000
   74      6.18672    0.00000
   75      6.38871    0.00000
   76      7.01617    0.00000
   77      7.31552    0.00000
   78      7.62091    0.00000
   79      7.82353    0.00000
   80      8.01215    0.00000
   81      8.23761    0.00000
   82      8.35172    0.00000
   83      8.63069    0.00000
   84      8.78012    0.00000
   85      8.93327    0.00000
   86      9.03604    0.00000
   87      9.10065    0.00000
   88      9.21756    0.00000
   89      9.40223    0.00000
   90      9.46084    0.00000
   91      9.57365    0.00000
   92      9.78285    0.00000
   93      9.89746    0.00000
   94      9.96888    0.00000
   95     10.08159    0.00000
   96     10.12026    0.00000
   97     10.22576    0.00000


Forces in eV/Ang:
  0 C    -0.42523    0.14313    0.63456
  1 C    -0.93599   -0.88942    1.57528
  2 C     0.00999    0.71058   -1.24035
  3 C    -1.79758    1.94000   -1.53485
  4 C    -0.02777   -1.09063   -0.38668
  5 C    -0.22074    1.15639   -0.28860
  6 C     1.36705    0.20024   -0.52742
  7 C    -0.62255   -2.66470    1.88089
  8 C     0.38940   -0.38104    1.59043
  9 C     0.23688    0.14430   -0.48560
 10 C     0.42717   -0.42844   -0.41300
 11 C     0.07326   -0.05997   -0.08492
 12 C    -0.98662    0.94771    0.13781
 13 C     0.40254   -0.45938    1.40803
 14 C     0.18985    0.07063   -0.20002
 15 C     0.12847    0.08487    0.27786
 16 C    -2.18574   -1.89859   -1.35333
 17 C     0.05491   -0.01301    0.01845
 18 C     0.04431    0.03829   -0.29178
 19 C     3.90271    2.29058    0.49012
 20 C    -0.52640    0.20327   -0.34672
 21 C     0.18939   -0.06503   -0.47525
 22 C     0.26359   -0.00609   -0.26382
 23 C    -0.08132    0.09385   -0.09439

System changes: positions 

Initializing position-dependent things.

Density initialized from wave functions
           .--------------------------------------.  
          /|                                      |  
         / |                                      |  
        /  |                                      |  
       /   |                                      |  
      /    |                                      |  
     /     |                                      |  
    /      |                                      |  
   /       |       C   C                          |  
  /        |             C                        |  
 *         |  C  C  C         C                   |  
 |         |  C      C   C C     C                |  
 |         .--CC---C-C---C-C---CC-----------------.  
 |        /     C   C     C                      /   
 |       /            C                         /    
[...]

Dipole moment: (0.000187, -0.207317, -0.209290) |e|*Ang

Energy contributions relative to reference atoms: (reference = -24663.074771)

Kinetic:       +113.886842
Potential:     -121.398178
External:        +0.000000
XC:            -179.911336
Entropy (-ST):   -0.023079
Local:           +3.027073
--------------------------
Free energy:   -184.418677
Extrapolated:  -184.407138

Fermi level: -4.01177

 Band  Eigenvalues  Occupancy
    0    -23.04612    2.00000
    1    -22.36937    2.00000
    2    -21.28455    2.00000
    3    -21.01683    2.00000
    4    -20.42494    2.00000
    5    -20.19373    2.00000
    6    -19.40887    2.00000
    7    -19.09186    2.00000
    8    -18.25696    2.00000
    9    -17.98679    2.00000
   10    -17.66514    2.00000
   11    -16.75210    2.00000
   12    -16.50233    2.00000
   13    -15.99224    2.00000
   14    -15.13657    2.00000
   15    -14.53545    2.00000
   16    -14.18488    2.00000
   17    -13.84604    2.00000
   18    -13.25868    2.00000
   19    -12.77923    2.00000
   20    -12.40637    2.00000
   21    -12.27902    2.00000
   22    -11.90754    2.00000
   23    -11.55391    2.00000
   24    -10.67159    2.00000
   25    -10.55856    2.00000
   26    -10.50206    2.00000
   27    -10.36032    2.00000
   28    -10.18966    2.00000
   29     -9.51555    2.00000
   30     -9.35437    2.00000
   31     -9.12703    2.00000
   32     -9.09911    2.00000
   33     -8.59580    2.00000
   34     -8.32339    2.00000
   35     -8.23753    2.00000
   36     -7.88125    2.00000
   37     -7.15942    2.00000
   38     -6.90947    2.00000
   39     -6.55821    2.00000
   40     -6.43274    2.00000
   41     -6.36853    2.00000
   42     -6.04552    2.00000
   43     -5.77820    2.00000
   44     -5.48174    2.00000
   45     -5.25990    1.99999
   46     -4.98615    1.99988
   47     -4.47229    1.98020
   48     -3.54294    0.01824
   49     -3.28509    0.00140
   50     -3.12499    0.00028
   51     -2.78747    0.00001
   52     -2.69015    0.00000
   53     -2.40536    0.00000
   54     -2.27781    0.00000
   55     -1.75104    0.00000
   56     -1.59572    0.00000
   57     -0.89335    0.00000
   58     -0.16363    0.00000
   59      0.22308    0.00000
   60      0.64198    0.00000
   61      1.44661    0.00000
   62      2.41200    0.00000
   63      2.45574    0.00000
   64      3.53654    0.00000
   65      3.77525    0.00000
   66      4.35571    0.00000
   67      4.51566    0.00000
   68      4.88892    0.00000
   69      5.43123    0.00000
   70      5.59740    0.00000
   71      5.98978    0.00000
   72      6.11630    0.00000
   73      6.45725    0.00000
   74      6.57180    0.00000
   75      6.86787    0.00000
   76      7.30410    0.00000
   77      7.74720    0.00000
   78      8.11232    0.00000
   79      8.27894    0.00000
   80      8.51662    0.00000
   81      8.75604    0.00000
   82      8.97655    0.00000
   83      9.10620    0.00000
   84      9.21369    0.00000
   85      9.32928    0.00000
   86      9.35409    0.00000
   87      9.54194    0.00000
   88      9.65009    0.00000
   89      9.79827    0.00000
   90      9.83431    0.00000
   91     10.00825    0.00000
   92     10.03600    0.00000
   93     10.15614    0.00000
   94     10.24912    0.00000
   95     10.47576    0.00000
   96     10.53567    0.00000
   97     10.60503    0.00000


Forces in eV/Ang:
  0 C    -0.00442    0.02330    0.04254
  1 C    -0.02330   -0.02057   -0.00835
  2 C     0.01324    0.00119   -0.00457
  3 C    -0.02897   -0.01566   -0.01334
  4 C     0.04625    0.00431   -0.00013
  5 C    -0.00647    0.00161   -0.01939
  6 C    -0.00193   -0.07426   -0.00210
  7 C    -0.12094    0.04065    0.00030
  8 C     0.01708   -0.01748    0.03328
  9 C    -0.01806   -0.01233    0.01083
 10 C     0.01645   -0.01402   -0.01173
 11 C    -0.00891    0.02048   -0.01226
 12 C     0.01050    0.00609    0.00315
 13 C     0.00874    0.02921    0.05188
 14 C     0.00732    0.01045   -0.06994
 15 C    -0.00802   -0.00903    0.01817
 16 C    -0.05739    0.00648    0.00189
 17 C     0.01165   -0.00187   -0.00872
 18 C     0.01444   -0.01089   -0.01611
 19 C     0.03155    0.02793    0.02852
 20 C     0.02721   -0.02001   -0.03212
 21 C     0.01469    0.00962   -0.01216
 22 C    -0.00333   -0.01486   -0.01121
 23 C    -0.00608    0.00111   -0.01888

System changes: positions 

Initializing position-dependent things.

Density initialized from wave functions
           .--------------------------------------.  
          /|                                      |  
         / |                                      |  
        /  |                                      |  
       /   |                                      |  
      /    |                                      |  
     /     |                                      |  
    /      |                                      |  
   /       |        C                             |  
  /        |      C    C  C                       |  
 *         |   C     C      C                     |  
 |         |  C       C  C     C C                |  
 |         .----C--C-C---C--C--C-C----------------.  
 |        /    C C  C  C  C                      /   
 |       /                                      /    
 |      /                                      /     
 |     /                                      /      
 |    /                                      /       
 |   /                                      /        
 |  /                                      /         
 | /                                      /          
 |/                                      /           
 *--------------------------------------*            

Positions:
   0 C     11.285239    7.064625    4.844360
   1 C      5.212255   10.240516    6.376428
   2 C      7.907018    7.618227    5.251172
   3 C      6.483615   10.125883    5.564362
   4 C      9.950989    8.971659    4.812649
   5 C     11.053873    8.404754    4.621423
   6 C      7.819492   10.043014    5.628081
   7 C      8.592748    8.950472    5.229710
   8 C      5.789487    8.923377    5.097656
   9 C      3.584156    8.201382    5.699584
  10 C      6.477706    7.680044    5.229530
  11 C      4.456702    9.301770    5.610229
  12 C      3.569266    6.960596    5.510827
  13 C      5.451141    3.666232    5.328486
  14 C      8.095153    3.345139    5.375992
  15 C      6.830994    3.965259    5.318643
  16 C      4.493984    4.493122    5.334652
  17 C      9.184833    3.982950    5.350513
  18 C      7.011905    5.425986    5.256508
  19 C      4.522573    5.909747    5.342073
  20 C      5.906710    6.333947    5.244124
  21 C      8.276404    6.136135    5.261026
  22 C     10.812985    5.936481    5.094969
  23 C      9.520670    5.352222    5.260002

Unit cell:
           periodic     x           y           z      points  spacing
  1. axis:    yes   16.000000    0.000000    0.000000    80     0.2000
  2. axis:    yes    0.000000   16.000000    0.000000    80     0.2000
  3. axis:    yes    0.000000    0.000000   10.000000    48     0.2083

Effective grid spacing dv^(1/3) = 0.2027

                     log10-error:    total        iterations:
           time      wfs    density  energy       fermi  poisson
iter:   1  12:14:44          +inf  -184.409161    2      5      
iter:   2  12:14:44         -3.03  -184.408512    2      1      
iter:   3  12:14:45         -3.16  -184.408126    2      1      
iter:   4  12:14:46         -3.49  -184.407647    1      1      
iter:   5  12:14:46         -3.66  -184.407622    2      1      
iter:   6  12:14:47         -3.57  -184.407770    2      1      
iter:   7  12:14:47         -4.23  -184.407944    2      1      

Converged after 7 iterations.

Dipole moment: (-0.001323, -0.212312, -0.209883) |e|*Ang

Energy contributions relative to reference atoms: (reference = -24663.074771)

Kinetic:       +113.914665
Potential:     -121.417786
External:        +0.000000
XC:            -179.922760
Entropy (-ST):   -0.022982
Local:           +3.029429
--------------------------
Free energy:   -184.419435
Extrapolated:  -184.407944

Fermi level: -4.00819

 Band  Eigenvalues  Occupancy
    0    -23.04451    2.00000
    1    -22.37111    2.00000
    2    -21.28455    2.00000
    3    -21.01778    2.00000
    4    -20.42291    2.00000
    5    -20.19370    2.00000
    6    -19.40819    2.00000
    7    -19.09182    2.00000
    8    -18.25810    2.00000
    9    -17.98710    2.00000
   10    -17.66412    2.00000
   11    -16.74930    2.00000
   12    -16.50175    2.00000
   13    -15.99441    2.00000
   14    -15.13587    2.00000
   15    -14.53383    2.00000
   16    -14.18405    2.00000
   17    -13.84599    2.00000
   18    -13.25918    2.00000
   19    -12.78545    2.00000
   20    -12.40376    2.00000
   21    -12.27853    2.00000
   22    -11.90832    2.00000
   23    -11.55533    2.00000
   24    -10.67202    2.00000
   25    -10.55767    2.00000
   26    -10.50142    2.00000
   27    -10.35991    2.00000
   28    -10.18804    2.00000
   29     -9.51780    2.00000
   30     -9.35567    2.00000
   31     -9.12604    2.00000
   32     -9.09664    2.00000
   33     -8.59418    2.00000
   34     -8.32455    2.00000
   35     -8.23587    2.00000
   36     -7.88041    2.00000
   37     -7.15809    2.00000
   38     -6.90868    2.00000
   39     -6.55996    2.00000
   40     -6.43344    2.00000
   41     -6.36954    2.00000
   42     -6.04853    2.00000
   43     -5.77677    2.00000
   44     -5.48168    2.00000
   45     -5.25999    1.99999
   46     -4.98368    1.99988
   47     -4.46928    1.98031
   48     -3.53861    0.01810
   49     -3.28169    0.00140
   50     -3.12815    0.00030
   51     -2.78697    0.00001
   52     -2.69194    0.00000
   53     -2.39770    0.00000
   54     -2.27612    0.00000
   55     -1.76060    0.00000
   56     -1.59885    0.00000
   57     -0.89320    0.00000
   58     -0.15932    0.00000
   59      0.22750    0.00000
   60      0.64339    0.00000
   61      1.44424    0.00000
   62      2.41611    0.00000
   63      2.45306    0.00000
   64      3.53654    0.00000
   65      3.77372    0.00000
   66      4.35653    0.00000
   67      4.51692    0.00000
   68      4.88431    0.00000
   69      5.43400    0.00000
   70      5.59723    0.00000
   71      5.99124    0.00000
   72      6.11219    0.00000
   73      6.46081    0.00000
   74      6.56487    0.00000
   75      6.87449    0.00000
   76      7.30702    0.00000
   77      7.74964    0.00000
   78      8.11391    0.00000
   79      8.28421    0.00000
   80      8.51901    0.00000
   81      8.75717    0.00000
   82      8.97925    0.00000
   83      9.10627    0.00000
   84      9.21632    0.00000
   85      9.32887    0.00000
   86      9.35453    0.00000
   87      9.54148    0.00000
   88      9.65010    0.00000
   89      9.79918    0.00000
   90      9.83641    0.00000
   91     10.00989    0.00000
   92     10.03728    0.00000
   93     10.15900    0.00000
   94     10.25076    0.00000
   95     10.47832    0.00000
   96     10.53409    0.00000
   97     10.60594    0.00000


Forces in eV/Ang:
  0 C    -0.01177    0.01197    0.01873
  1 C    -0.00096   -0.04033   -0.00952
  2 C     0.01008    0.00835   -0.00461
  3 C    -0.02340   -0.03088    0.00791
  4 C     0.04252    0.01425    0.00967
  5 C    -0.01487   -0.01199    0.00670
  6 C     0.07392    0.00368    0.03391
  7 C    -0.11811    0.05841   -0.00475
  8 C     0.02608   -0.00651    0.02294
  9 C    -0.01435   -0.00404    0.00833
 10 C     0.00288   -0.00307   -0.00843
 11 C    -0.00101    0.01122   -0.01181
 12 C     0.01583   -0.00941    0.00445
 13 C     0.00360    0.00531    0.04680
 14 C    -0.00103   -0.02071   -0.03750
 15 C    -0.00680   -0.00741    0.00050
 16 C    -0.02408    0.01652    0.00037
 17 C    -0.00888    0.00905   -0.01638
 18 C     0.01410   -0.01133   -0.01212
 19 C     0.01546    0.02079    0.03296
 20 C     0.01855   -0.01587   -0.02279
 21 C     0.00127    0.01159   -0.00392
 22 C    -0.01077   -0.00714   -0.00603
 23 C     0.00438    0.00240   -0.01324

System changes: positions 

Initializing position-dependent things.

Density initialized from wave functions
           .--------------------------------------.  
          /|                                      |  
         / |                                      |  
        /  |                                      |  
       /   |                                      |  
      /    |                                      |  
     /     |                                      |  
    /      |                                      |  
   /       |        C                             |  
  /        |      C    C  C                       |  
 *         |   C     C      C                     |  
 |         |  C       C  C     C C                |  
 |         .----C--C--C--C--C--C-C----------------.  
 |        /    C C  C  C  C                      /   
 |       /                                      /    
 |      /                                      /     
 |     /                                      /      
 |    /                                      /       
 |   /                                      /        
 |  /                                      /         
 | /                                      /          
 |/                                      /           
 *--------------------------------------*            

Positions:
   0 C     11.293754    7.063945    4.856074
   1 C      5.216838   10.243715    6.370358
   2 C      7.919121    7.619733    5.250889
   3 C      6.497958   10.126195    5.572504
   4 C      9.957337    8.971866    4.792149
   5 C     11.056639    8.397378    4.599333
   6 C      7.834270   10.044240    5.639848
   7 C      8.603385    8.952512    5.228081
   8 C      5.804286    8.926654    5.098496
   9 C      3.587573    8.211130    5.671652
  10 C      6.489906    7.682148    5.228596
  11 C      4.466237    9.308812    5.594097
  12 C      3.580289    6.968831    5.494061
  13 C      5.458861    3.674514    5.337051
  14 C      8.102124    3.347045    5.356776
  15 C      6.838616    3.968644    5.317182
  16 C      4.499320    4.499024    5.341588
  17 C      9.194287    3.981597    5.346799
  18 C      7.022327    5.428590    5.251749
  19 C      4.533030    5.916293    5.335655
  20 C      5.917645    6.337266    5.237999
  21 C      8.287067    6.137583    5.257153
  22 C     10.825304    5.935173    5.115220
  23 C      9.530331    5.351792    5.264068

Unit cell:
           periodic     x           y           z      points  spacing
  1. axis:    yes   16.000000    0.000000    0.000000    80     0.2000
  2. axis:    yes    0.000000   16.000000    0.000000    80     0.2000
  3. axis:    yes    0.000000    0.000000   10.000000    48     0.2083

Effective grid spacing dv^(1/3) = 0.2027

                     log10-error:    total        iterations:
           time      wfs    density  energy       fermi  poisson
iter:   1  12:14:49          +inf  -184.409638    2      5      
iter:   2  12:14:50         -2.73  -184.407055    2      1      
iter:   3  12:14:50         -2.84  -184.406175    2      1      
iter:   4  12:14:51         -3.06  -184.406001    2      2      
iter:   5  12:14:52         -3.26  -184.406329    2      1      
iter:   6  12:14:52         -3.09  -184.406418    2      1      
iter:   7  12:14:53         -3.83  -184.406355    2      1      
iter:   8  12:14:53         -3.34  -184.405439    2      1      
iter:   9  12:14:54         -4.16  -184.405650    1      1      

Converged after 9 iterations.

Dipole moment: (-0.004922, -0.217898, -0.210643) |e|*Ang

Energy contributions relative to reference atoms: (reference = -24663.074771)

Kinetic:       +113.542573
Potential:     -121.115425
External:        +0.000000
XC:            -179.845271
Entropy (-ST):   -0.023052
Local:           +3.023999
--------------------------
Free energy:   -184.417176
Extrapolated:  -184.405650

Fermi level: -4.00413

 Band  Eigenvalues  Occupancy
    0    -23.04255    2.00000
    1    -22.37389    2.00000
    2    -21.28244    2.00000
    3    -21.01862    2.00000
    4    -20.41654    2.00000
    5    -20.19404    2.00000
    6    -19.40521    2.00000
    7    -19.09187    2.00000
    8    -18.25752    2.00000
    9    -17.98678    2.00000
   10    -17.66559    2.00000
   11    -16.74162    2.00000
   12    -16.49946    2.00000
   13    -15.99904    2.00000
   14    -15.13282    2.00000
   15    -14.52966    2.00000
   16    -14.18112    2.00000
   17    -13.84630    2.00000
   18    -13.25735    2.00000
   19    -12.79399    2.00000
   20    -12.39582    2.00000
   21    -12.27289    2.00000
   22    -11.90703    2.00000
   23    -11.55354    2.00000
   24    -10.67594    2.00000
   25    -10.56148    2.00000
   26    -10.50112    2.00000
   27    -10.35891    2.00000
   28    -10.18449    2.00000
   29     -9.52468    2.00000
   30     -9.35553    2.00000
   31     -9.12366    2.00000
   32     -9.09051    2.00000
   33     -8.58952    2.00000
   34     -8.32407    2.00000
   35     -8.22978    2.00000
   36     -7.87623    2.00000
   37     -7.15312    2.00000
   38     -6.90736    2.00000
   39     -6.56252    2.00000
   40     -6.43116    2.00000
   41     -6.36991    2.00000
   42     -6.05386    2.00000
   43     -5.77573    2.00000
   44     -5.48533    2.00000
   45     -5.26015    1.99999
   46     -4.99118    1.99990
   47     -4.46487    1.98024
   48     -3.53446    0.01809
   49     -3.27964    0.00143
   50     -3.13675    0.00034
   51     -2.78995    0.00001
   52     -2.70019    0.00000
   53     -2.38919    0.00000
   54     -2.27672    0.00000
   55     -1.78049    0.00000
   56     -1.60459    0.00000
   57     -0.89600    0.00000
   58     -0.14633    0.00000
   59      0.23773    0.00000
   60      0.64542    0.00000
   61      1.42733    0.00000
   62      2.41845    0.00000
   63      2.44543    0.00000
   64      3.52835    0.00000
   65      3.76754    0.00000
   66      4.34754    0.00000
   67      4.51086    0.00000
   68      4.86695    0.00000
   69      5.43534    0.00000
   70      5.59734    0.00000
   71      5.98804    0.00000
   72      6.10178    0.00000
   73      6.47054    0.00000
   74      6.56331    0.00000
   75      6.90415    0.00000
   76      7.30809    0.00000
   77      7.74385    0.00000
   78      8.11297    0.00000
   79      8.28248    0.00000
   80      8.51595    0.00000
   81      8.76145    0.00000
   82      8.97863    0.00000
   83      9.09728    0.00000
   84      9.21917    0.00000
   85      9.32839    0.00000
   86      9.35541    0.00000
   87      9.53801    0.00000
   88      9.65064    0.00000
   89      9.79735    0.00000
   90      9.83981    0.00000
   91     10.01040    0.00000
   92     10.03983    0.00000
   93     10.16044    0.00000
   94     10.24970    0.00000
   95     10.47697    0.00000
   96     10.53193    0.00000
   97     10.60251    0.00000


Forces in eV/Ang:
  0 C    -0.00755    0.01224    0.00075
  1 C    -0.00462   -0.02383    0.00251
  2 C    -0.02142    0.02369    0.00436
  3 C    -0.05545   -0.01100    0.00087
  4 C     0.02211   -0.02687    0.07426
  5 C     0.00995   -0.03117    0.00172
  6 C     0.04236   -0.05293   -0.04637
  7 C    -0.03942    0.04783   -0.01758
  8 C    -0.00712   -0.00788    0.02635
  9 C     0.02478    0.01254    0.03356
 10 C    -0.02447    0.01046   -0.01603
 11 C     0.02042   -0.01690   -0.02159
 12 C     0.02280    0.02122    0.00523
 13 C    -0.05501    0.01109    0.01454
 14 C     0.02060   -0.01246    0.00127
 15 C     0.00693   -0.01238   -0.02301
 16 C     0.00278    0.01156    0.01588
 17 C    -0.03308    0.00493   -0.02770
 18 C    -0.00618    0.00477    0.00422
 19 C    -0.01824   -0.01523    0.04446
 20 C     0.03052   -0.00159   -0.01389
 21 C     0.03759    0.00686    0.01513
 22 C    -0.00254    0.04783   -0.02892
 23 C    -0.00982    0.00505    0.00520

