
  ___ ___ ___ _ _ _  
 |   |   |_  | | | | 
 | | | | | . | | | | 
 |__ |  _|___|_____|  1.3.0b1
 |___|_|             

User:   esb@s66n53.grendel.cscaa.dk
Date:   Wed Nov  8 14:13:05 2017
Arch:   x86_64
Pid:    75954
Python: 2.7.13
gpaw:   /home/esb/DFT/gpaw_git/gpaw
_gpaw:  /home/esb/DFT/gpaw_git/build/bin.linux-x86_64-2.7/gpaw-python
ase:    /home/esb/DFT/ase_git/ase (version 3.15.0b1)
numpy:  /comm/swstack/core/python/2.7.13/lib/python2.7/site-packages/numpy (version 1.13.3)
scipy:  /comm/swstack/core/python/2.7.13/lib/python2.7/site-packages/scipy (version 0.19.1)
units:  Angstrom and eV
cores:  16
Extra parameters: {'blacs': True}

Input parameters:
  basis: dzp
  gpts: [80 80 48]
  kpts: [1 1 1]
  maxiter: 99
  mixer: {backend: pulay,
          beta: 0.05,
          method: separate,
          nmaxold: 5,
          weight: 75}
  mode: lcao
  nbands: -50
  occupations: {name: fermi-dirac,
                width: 0.1}
  poissonsolver: {eps: 1e-07,
                  name: fd,
                  nn: 3,
                  relax: GS}
  xc: PBE

System changes: positions, numbers, cell, pbc, initial_charges, initial_magmoms 

Initialize ...

C-setup:
  name: Carbon
  id: 4aa54d4b901d75f77cc0ea3eec22967b
  Z: 6
  valence: 4
  core: 2
  charge: 0.0
  file: /home/esb/DFT/gpaw-setups-0.8.7929/C.PBE.gz
  cutoffs: 0.64(comp), 1.14(filt), 1.14(core), lmax=2
  valence states:
                energy  radius
    2s(2.00)   -13.751   0.635
    2p(2.00)    -5.284   0.635
    *s          13.461   0.635
    *p          21.927   0.635
    *d           0.000   0.635

  LCAO basis set for C:
    Name: dzp
    File: /home/esb/DFT/gpaw-setups-0.8.7929/C.dzp.basis.gz
    Number of radial functions: 5
    Number of spherical harmonics: 13
      l=0, rc=5.5469 Bohr: 2s-sz confined orbital
      l=1, rc=6.6719 Bohr: 2p-sz confined orbital
      l=0, rc=3.0312 Bohr: 2s-dz split-valence wave
      l=1, rc=3.7500 Bohr: 2p-dz split-valence wave
      l=2, rc=6.6719 Bohr: d-type Gaussian polarization

Reference energy: -24663.074771

Spin-paired calculation

Occupation numbers:
  Fermi-Dirac: width=0.1000 eV

Convergence criteria:
  Maximum total energy change: 0.0005 eV / electron
  Maximum integral of absolute density change: 0.0001 electrons
  Maximum integral of absolute eigenstate change: 4e-08 eV^2
  Maximum number of iterations: 99

Symmetries present (total): 1

  ( 1  0  0)
  ( 0  1  0)
  ( 0  0  1)

1 k-point (Gamma)
1 k-point in the irreducible part of the Brillouin zone
       k-points in crystal coordinates                weights
   0:     0.00000000    0.00000000    0.00000000          1/1

Wave functions: LCAO
  Diagonalizer: Serial LAPACK
  Atomic Correction: dense with blas
  Datatype: float
  Eigensolver: None 

LCAO using direct dense diagonalizer 

Densities:
  Coarse grid: 80*80*48 grid
  Fine grid: 160*160*96 grid
  Total Charge: 0.000000 

Density mixing:
  Method: separate
  Backend: pulay
  Linear mixing parameter: 0.05
  Mixing with 5 old densities
  Damping of long wave oscillations: 75 

Hamiltonian:
  XC and Coulomb potentials evaluated on a 160*160*96 grid
  Using the PBE Exchange-Correlation functional
  Interpolation: tri-quintic (5. degree polynomial)
  Poisson solver: Gauss-Seidel solver with 6 multi-grid levels
    Coarsest grid: 5 x 5 x 3 points
    Stencil: 6*3+1=19 point O(h^6) finite-difference Laplacian
    Max iterations: 1000
    Tolerance: 1.000000e-07 

Memory estimate:
  Process memory now: 77.57 MiB
  Calculator: 15.59 MiB
    Density: 6.13 MiB
      Arrays: 3.81 MiB
      Localized functions: 0.86 MiB
      Mixer: 1.46 MiB
    Hamiltonian: 5.40 MiB
      Arrays: 2.49 MiB
      XC: 0.00 MiB
      Poisson: 2.85 MiB
      vbar: 0.07 MiB
    Wavefunctions: 4.05 MiB
      C [qnM]: 0.23 MiB
      S, T [2 x qmm]: 1.49 MiB
      P [aqMi]: 0.01 MiB
      TCI: 0.00 MiB
      BasisFunctions: 2.33 MiB
      Eigensolver: 0.00 MiB

Total number of cores used: 16
Domain decomposition: 2 x 4 x 2

Number of atoms: 24
Number of atomic orbitals: 312
Number of bands in calculation: 98
Bands to converge: occupied states only
Number of valence electrons: 96

... initialized

Initializing position-dependent things.

Density initialized from atomic densities
           .--------------------------------------.  
          /|                                      |  
         / |                                      |  
        /  |                                      |  
       /   |                                      |  
      /    |                                      |  
     /     |                                      |  
    /      |                                      |  
   /       |                                      |  
  /        |             CC  C                    |  
 *         |   C C C C     CC    C                |  
 |         |          C C       C                 |  
 |         .--C----C-CC---------------------------.  
 |        /             C   C C                  /   
 |       /       C    C  C                      /    
 |      /           C                          /     
 |     /                                      /      
 |    /                                      /       
 |   /                                      /        
 |  /                                      /         
 | /                                      /          
 |/                                      /           
 *--------------------------------------*            

Positions:
   0 C      6.334200    9.603599    4.446536
   1 C      8.529154    3.569003    5.698057
   2 C     10.551909   10.239642    4.586638
   3 C      7.334747   11.985743    4.350059
   4 C      8.696923    8.633621    5.090411
   5 C     10.824297    7.978857    4.858051
   6 C      7.066970    3.331529    4.420607
   7 C      6.999351    5.880667    5.307524
   8 C      7.467748    4.629350    4.648542
   9 C      8.718474    4.344842    4.653822
  10 C      3.421220    8.177457    4.315140
  11 C      7.317121    8.909570    4.574622
  12 C      3.959802    9.551001    4.692461
  13 C      6.087378    5.036516    5.558983
  14 C      5.063401    9.832834    5.124152
  15 C      8.444427   11.789014    4.840317
  16 C      6.933735   11.448428    5.182799
  17 C      5.944846    8.276895    5.497581
  18 C      8.069106   10.051069    4.372281
  19 C      5.481232    4.476021    4.284004
  20 C      3.822053    8.196130    5.342183
  21 C     10.218371    5.886475    4.797372
  22 C     10.074999    4.671491    5.304797
  23 C      6.608103    6.927037    4.850834

Unit cell:
           periodic     x           y           z      points  spacing
  1. axis:    yes   16.000000    0.000000    0.000000    80     0.2000
  2. axis:    yes    0.000000   16.000000    0.000000    80     0.2000
  3. axis:    yes    0.000000    0.000000   10.000000    48     0.2083

Effective grid spacing dv^(1/3) = 0.2027

                     log10-error:    total        iterations:
           time      wfs    density  energy       fermi  poisson
iter:   1  14:13:07          +inf  -132.950183    3      6      
iter:   2  14:13:07         -0.83  -128.881758    4      3      
iter:   3  14:13:08         -0.90  -126.558591    33     3      
iter:   4  14:13:08         -0.95  -125.583745    4      3      
iter:   5  14:13:09         -1.02  -124.588204    4      3      
iter:   6  14:13:09         -1.10  -124.079772    2      2      
iter:   7  14:13:10         -1.17  -123.484282    34     4      
iter:   8  14:13:10         -1.47  -123.358911    3      3      
iter:   9  14:13:11         -1.60  -123.239512    2      3      
iter:  10  14:13:12         -1.80  -123.225819    3      3      
iter:  11  14:13:12         -1.93  -123.213637    3      2      
iter:  12  14:13:13         -2.05  -123.202342    3      2      
iter:  13  14:13:13         -2.26  -123.198569    2      2      
iter:  14  14:13:14         -2.45  -123.197024    2      2      
iter:  15  14:13:14         -2.53  -123.199493    2      2      
iter:  16  14:13:15         -2.85  -123.196286    2      2      
iter:  17  14:13:15         -2.99  -123.197078    2      1      
iter:  18  14:13:16         -3.16  -123.193705    2      1      
iter:  19  14:13:16         -3.29  -123.194043    2      1      
iter:  20  14:13:17         -3.41  -123.194732    2      1      
iter:  21  14:13:17         -3.57  -123.194341    2      1      
iter:  22  14:13:18         -3.78  -123.193305    2      1      
iter:  23  14:13:18         -3.96  -123.193907    2      1      
iter:  24  14:13:19         -4.08  -123.193883    2      1      

Converged after 24 iterations.

Dipole moment: (0.422636, 0.888922, -0.252251) |e|*Ang

Energy contributions relative to reference atoms: (reference = -24663.074771)

Kinetic:       +237.731137
Potential:     -196.110184
External:        +0.000000
XC:            -167.409825
Entropy (-ST):   -0.424752
Local:           +2.807366
--------------------------
Free energy:   -123.406259
Extrapolated:  -123.193883

Fermi level: -4.80856

 Band  Eigenvalues  Occupancy
    0    -26.34915    2.00000
    1    -26.00806    2.00000
    2    -25.26667    2.00000
    3    -24.01398    2.00000
    4    -23.64865    2.00000
    5    -21.23193    2.00000
    6    -20.40653    2.00000
    7    -19.23180    2.00000
    8    -18.79248    2.00000
    9    -17.81243    2.00000
   10    -16.76750    2.00000
   11    -16.48545    2.00000
   12    -15.84825    2.00000
   13    -15.41635    2.00000
   14    -14.60188    2.00000
   15    -14.34588    2.00000
   16    -14.03190    2.00000
   17    -13.30255    2.00000
   18    -12.90109    2.00000
   19    -12.48114    2.00000
   20    -12.42064    2.00000
   21    -11.96444    2.00000
   22    -11.43353    2.00000
   23    -11.30683    2.00000
   24    -11.06517    2.00000
   25    -10.59605    2.00000
   26     -9.96871    2.00000
   27     -9.78740    2.00000
   28     -9.25195    2.00000
   29     -9.01738    2.00000
   30     -8.83326    2.00000
   31     -8.67260    2.00000
   32     -8.44918    2.00000
   33     -8.10828    2.00000
   34     -7.85948    2.00000
   35     -7.62077    2.00000
   36     -7.21416    2.00000
   37     -6.95204    2.00000
   38     -6.69474    2.00000
   39     -6.36303    2.00000
   40     -6.08313    1.99999
   41     -5.83954    1.99993
   42     -5.63954    1.99951
   43     -5.57877    1.99910
   44     -5.38398    1.99368
   45     -5.19760    1.95994
   46     -5.07104    1.86488
   47     -4.81563    1.03537
   48     -4.79071    0.91099
   49     -4.60697    0.23509
   50     -4.06933    0.00123
   51     -3.88626    0.00020
   52     -3.73720    0.00004
   53     -3.67332    0.00002
   54     -3.56007    0.00001
   55     -3.27935    0.00000
   56     -3.11451    0.00000
   57     -2.81267    0.00000
   58     -2.72942    0.00000
   59     -2.40553    0.00000
   60     -1.90892    0.00000
   61     -1.67109    0.00000
   62     -1.30177    0.00000
   63     -1.10431    0.00000
   64     -0.98901    0.00000
   65     -0.74976    0.00000
   66     -0.50728    0.00000
   67     -0.34635    0.00000
   68      0.00257    0.00000
   69      0.45015    0.00000
   70      0.64512    0.00000
   71      1.32934    0.00000
   72      1.73227    0.00000
   73      2.10239    0.00000
   74      2.61121    0.00000
   75      2.96995    0.00000
   76      3.55671    0.00000
   77      3.63953    0.00000
   78      3.95994    0.00000
   79      4.75963    0.00000
   80      5.62565    0.00000
   81      5.78016    0.00000
   82      6.37699    0.00000
   83      6.96143    0.00000
   84      7.26084    0.00000
   85      7.46210    0.00000
   86      7.71590    0.00000
   87      7.86086    0.00000
   88      8.28150    0.00000
   89      8.37963    0.00000
   90      8.52113    0.00000
   91      8.59993    0.00000
   92      8.81687    0.00000
   93      8.95753    0.00000
   94      9.13744    0.00000
   95      9.30298    0.00000
   96      9.35925    0.00000
   97      9.47627    0.00000


Forces in eV/Ang:
  0 C   -13.51020    5.13922   -1.10545
  1 C    -1.03336   -4.25166    2.07801
  2 C    -1.44161   -2.63595    0.13474
  3 C     1.01250   19.90051  -26.67114
  4 C     1.42646    1.76455   -0.64521
  5 C    -3.44710    0.28055    0.01485
  6 C    -6.01756   -1.78415   -0.09454
  7 C     7.96239   -0.28036    2.63307
  8 C    -3.86011    2.35480   -1.89078
  9 C    12.98732    0.78125   -0.39994
 10 C   -10.63248    0.44656  -24.12659
 11 C     9.81838   -9.60166    0.78976
 12 C    -8.04667   -2.33216   -3.64750
 13 C   -10.25787   -8.69542    0.05736
 14 C    10.36369    2.96959    0.96105
 15 C    10.85622   -2.66103    2.73338
 16 C   -13.10994  -12.88554   25.02976
 17 C     0.45735   -3.84341    0.37630
 18 C     8.59403    0.21763   -0.00359
 19 C     0.74153   -1.26455    2.67021
 20 C     8.98821   -2.23618   24.87876
 21 C     1.59853    2.39202    0.23783
 22 C     0.25304    2.38155   -1.41644
 23 C    -3.69865   13.89489   -2.59705

System changes: positions 

Initializing position-dependent things.

Density initialized from wave functions
           .--------------------------------------.  
          /|                                      |  
         / |                                      |  
        /  |                                      |  
       /   |                                      |  
      /    |                                      |  
     /     |                                      |  
    /      |                                      |  
   /       |                                      |  
  /        |             CC  C                    |  
 *         |   C C  CC     CC    C                |  
 |         |          C C       C                 |  
 |         .--C----C-CC---------------------------.  
 |        /             C   C C                  /   
 |       /       C    C  C                      /    
 |      /           C                          /     
 |     /                                      /      
 |    /                                      /       
 |   /                                      /        
 |  /                                      /         
 | /                                      /          
 |/                                      /           
 *--------------------------------------*            

Positions:
   0 C      6.317968    9.609774    4.445207
   1 C      8.527912    3.563894    5.700554
   2 C     10.550177   10.236475    4.586800
   3 C      7.335964   12.009653    4.318015
   4 C      8.698637    8.635741    5.089636
   5 C     10.820155    7.979194    4.858069
   6 C      7.059740    3.329386    4.420493
   7 C      7.008917    5.880330    5.310687
   8 C      7.463110    4.632179    4.646271
   9 C      8.734078    4.345781    4.653342
  10 C      3.408446    8.177993    4.286153
  11 C      7.328917    8.898034    4.575571
  12 C      3.950134    9.548199    4.688079
  13 C      6.075054    5.026069    5.559052
  14 C      5.075852    9.836402    5.125307
  15 C      8.457471   11.785817    4.843601
  16 C      6.917984   11.432946    5.212871
  17 C      5.945396    8.272277    5.498033
  18 C      8.079431   10.051331    4.372277
  19 C      5.482123    4.474502    4.287213
  20 C      3.832852    8.193443    5.372073
  21 C     10.220291    5.889349    4.797657
  22 C     10.075303    4.674353    5.303095
  23 C      6.603659    6.943731    4.847714

Unit cell:
           periodic     x           y           z      points  spacing
  1. axis:    yes   16.000000    0.000000    0.000000    80     0.2000
  2. axis:    yes    0.000000   16.000000    0.000000    80     0.2000
  3. axis:    yes    0.000000    0.000000   10.000000    48     0.2083

Effective grid spacing dv^(1/3) = 0.2027

                     log10-error:    total        iterations:
           time      wfs    density  energy       fermi  poisson
iter:   1  14:13:20          +inf  -128.494734    4      5      
iter:   2  14:13:21         -1.64  -128.313572    3      2      
iter:   3  14:13:21         -1.91  -128.277823    3      2      
iter:   4  14:13:22         -2.05  -128.259357    3      2      
iter:   5  14:13:22         -2.17  -128.246761    3      2      
iter:   6  14:13:23         -2.32  -128.238125    3      2      
iter:   7  14:13:23         -2.49  -128.233285    2      2      
iter:   8  14:13:24         -2.60  -128.231052    2      2      
iter:   9  14:13:24         -2.81  -128.229238    2      2      
iter:  10  14:13:25         -2.92  -128.228860    2      2      
iter:  11  14:13:25         -3.13  -128.229822    2      1      
iter:  12  14:13:26         -3.23  -128.227369    2      1      
iter:  13  14:13:26         -3.42  -128.226485    2      1      
iter:  14  14:13:27         -3.60  -128.226735    2      1      
iter:  15  14:13:27         -3.74  -128.226992    2      1      
iter:  16  14:13:28         -3.95  -128.227931    2      1      
iter:  17  14:13:28         -4.03  -128.228562    2      1      

Converged after 17 iterations.

Dipole moment: (0.399257, 0.820608, -0.231952) |e|*Ang

Energy contributions relative to reference atoms: (reference = -24663.074771)

Kinetic:       +202.017016
Potential:     -171.153659
External:        +0.000000
XC:            -161.555740
Entropy (-ST):   -0.428194
Local:           +2.677918
--------------------------
Free energy:   -128.442659
Extrapolated:  -128.228562

Fermi level: -4.83101

 Band  Eigenvalues  Occupancy
    0    -25.97117    2.00000
    1    -25.84045    2.00000
    2    -24.81786    2.00000
    3    -23.81689    2.00000
    4    -23.45062    2.00000
    5    -21.23148    2.00000
    6    -20.38719    2.00000
    7    -19.20944    2.00000
    8    -18.65648    2.00000
    9    -17.79398    2.00000
   10    -16.61103    2.00000
   11    -16.43661    2.00000
   12    -15.59000    2.00000
   13    -15.34121    2.00000
   14    -14.56447    2.00000
   15    -14.27082    2.00000
   16    -13.91494    2.00000
   17    -13.21404    2.00000
   18    -12.83855    2.00000
   19    -12.51513    2.00000
   20    -12.34469    2.00000
   21    -11.90129    2.00000
   22    -11.24831    2.00000
   23    -11.13225    2.00000
   24    -10.91127    2.00000
   25    -10.54173    2.00000
   26     -9.91255    2.00000
   27     -9.67857    2.00000
   28     -9.23202    2.00000
   29     -8.94275    2.00000
   30     -8.80779    2.00000
   31     -8.64430    2.00000
   32     -8.41968    2.00000
   33     -8.12332    2.00000
   34     -7.96442    2.00000
   35     -7.59154    2.00000
   36     -7.25609    2.00000
   37     -6.98594    2.00000
   38     -6.69217    2.00000
   39     -6.34309    2.00000
   40     -6.08792    1.99999
   41     -5.75891    1.99981
   42     -5.68508    1.99961
   43     -5.57342    1.99881
   44     -5.34964    1.98888
   45     -5.25580    1.97181
   46     -5.08525    1.85413
   47     -4.84064    1.04810
   48     -4.80887    0.88976
   49     -4.63472    0.24629
   50     -4.16365    0.00252
   51     -3.90753    0.00020
   52     -3.77775    0.00005
   53     -3.72724    0.00003
   54     -3.53816    0.00000
   55     -3.26814    0.00000
   56     -3.11831    0.00000
   57     -2.83977    0.00000
   58     -2.75448    0.00000
   59     -2.42443    0.00000
   60     -2.00642    0.00000
   61     -1.72812    0.00000
   62     -1.31143    0.00000
   63     -1.11149    0.00000
   64     -1.04752    0.00000
   65     -0.91337    0.00000
   66     -0.59725    0.00000
   67     -0.43241    0.00000
   68     -0.04238    0.00000
   69      0.46752    0.00000
   70      0.63074    0.00000
   71      1.19598    0.00000
   72      1.70565    0.00000
   73      1.86385    0.00000
   74      2.13006    0.00000
   75      2.89320    0.00000
   76      3.29708    0.00000
   77      3.54581    0.00000
   78      3.81466    0.00000
   79      4.73988    0.00000
   80      5.54066    0.00000
   81      5.85625    0.00000
   82      6.38241    0.00000
   83      6.95963    0.00000
   84      7.24846    0.00000
   85      7.47648    0.00000
   86      7.64487    0.00000
   87      7.86551    0.00000
   88      8.10731    0.00000
   89      8.31725    0.00000
   90      8.52870    0.00000
   91      8.61649    0.00000
   92      8.72192    0.00000
   93      8.91782    0.00000
   94      9.10233    0.00000
   95      9.26144    0.00000
   96      9.34980    0.00000
   97      9.45104    0.00000


Forces in eV/Ang:
  0 C   -10.33901    3.04356   -0.98978
  1 C    -1.11897   -3.94175    1.60901
  2 C    -1.55441   -2.57514    0.13046
  3 C    -1.45803   12.63636  -15.71707
  4 C     1.81827    1.67057   -0.59784
  5 C    -3.47608    0.23610    0.04542
  6 C    -5.83901   -1.51136   -0.01729
  7 C     6.19485    0.24255    2.20030
  8 C    -2.26304    1.92201   -1.83405
  9 C    11.34064    0.57748   -0.12065
 10 C    -7.00813    0.74753  -14.81278
 11 C     7.23440   -7.48102    0.39696
 12 C    -6.44220   -2.14326   -2.91189
 13 C    -9.12924   -7.33980   -0.24515
 14 C     7.76589    2.48111    0.66096
 15 C     8.02704   -2.33466    1.97472
 16 C    -7.55360   -6.59241   14.74936
 17 C     0.50173   -3.56436    0.10486
 18 C     8.14069    0.38644    0.13859
 19 C     0.67646   -1.29870    2.59428
 20 C     5.72815   -1.97622   15.55030
 21 C     1.64536    2.50767    0.23993
 22 C     0.34960    2.41654   -1.39423
 23 C    -3.17760   11.95041   -1.69969

System changes: positions 

Initializing position-dependent things.

Density initialized from wave functions
           .--------------------------------------.  
          /|                                      |  
         / |                                      |  
        /  |                                      |  
       /   |                                      |  
      /    |                                      |  
     /     |                                      |  
    /      |                                      |  
   /       |                                      |  
  /        |             CC  C                    |  
 *         |   C C  CC     CC    C                |  
 |         |          C C       C                 |  
 |         .--C----C-CC---------------------------.  
 |        /             C   C C                  /   
 |       /       C    C  C                      /    
 |      /           C                          /     
 |     /                                      /      
 |    /                                      /       
 |   /                                      /        
 |  /                                      /         
 | /                                      /          
 |/                                      /           
 *--------------------------------------*            

Positions:
   0 C      6.292810    9.610743    4.441758
   1 C      8.522814    3.549323    5.704605
   2 C     10.543129   10.226171    4.587315
   3 C      7.316255   12.021633    4.313742
   4 C      8.708321    8.642124    5.087428
   5 C     10.805631    7.979923    4.858426
   6 C      7.036601    3.324652    4.420849
   7 C      7.024725    5.884229    5.317382
   8 C      7.462605    4.637724    4.639006
   9 C      8.771819    4.347039    4.654390
  10 C      3.399561    8.182749    4.276531
  11 C      7.344499    8.878867    4.575036
  12 C      3.932400    9.540389    4.680121
  13 C      6.043581    5.003248    5.556363
  14 C      5.093554    9.843949    5.126376
  15 C      8.474969   11.777977    4.847559
  16 C      6.917546   11.440562    5.216877
  17 C      5.947715    8.259094    5.496962
  18 C      8.110560   10.053863    4.373637
  19 C      5.484557    4.468946    4.297512
  20 C      3.838465    8.186717    5.384661
  21 C     10.227350    5.900351    4.798660
  22 C     10.077282    4.684532    5.297457
  23 C      6.593415    6.982343    4.845661

Unit cell:
           periodic     x           y           z      points  spacing
  1. axis:    yes   16.000000    0.000000    0.000000    80     0.2000
  2. axis:    yes    0.000000   16.000000    0.000000    80     0.2000
  3. axis:    yes    0.000000    0.000000   10.000000    48     0.2083

Effective grid spacing dv^(1/3) = 0.2027

                     log10-error:    total        iterations:
           time      wfs    density  energy       fermi  poisson
iter:   1  14:13:30          +inf  -131.957309    3      5      
iter:   2  14:13:30         -1.63  -131.788517    2      2      
iter:   3  14:13:31         -1.84  -131.756047    2      2      
iter:   4  14:13:31         -1.95  -131.722479    3      2      
iter:   5  14:13:32         -2.12  -131.711504    2      2      
iter:   6  14:13:33         -2.28  -131.706361    2      2      
iter:   7  14:13:33         -2.42  -131.704280    2      2      
iter:   8  14:13:34         -2.60  -131.703765    2      2      
iter:   9  14:13:34         -2.84  -131.702754    2      2      
iter:  10  14:13:35         -2.99  -131.705646    2      1      
iter:  11  14:13:35         -3.14  -131.703671    2      1      
iter:  12  14:13:36         -3.27  -131.702380    2      1      
iter:  13  14:13:36         -3.41  -131.703057    2      1      
iter:  14  14:13:37         -3.56  -131.702560    2      1      
iter:  15  14:13:37         -3.74  -131.701329    2      1      
iter:  16  14:13:38         -3.97  -131.701800    2      1      
iter:  17  14:13:38         -4.05  -131.702620    2      1      

Converged after 17 iterations.

Dipole moment: (0.369655, 0.780657, -0.226744) |e|*Ang

Energy contributions relative to reference atoms: (reference = -24663.074771)

Kinetic:       +176.345054
Potential:     -153.126338
External:        +0.000000
XC:            -157.391937
Entropy (-ST):   -0.412325
Local:           +2.676763
--------------------------
Free energy:   -131.908782
Extrapolated:  -131.702620

Fermi level: -4.85454

 Band  Eigenvalues  Occupancy
    0    -25.57972    2.00000
    1    -25.40568    2.00000
    2    -24.46820    2.00000
    3    -23.71037    2.00000
    4    -22.99647    2.00000
    5    -21.27277    2.00000
    6    -20.31526    2.00000
    7    -19.19451    2.00000
    8    -18.49465    2.00000
    9    -17.72009    2.00000
   10    -16.33023    2.00000
   11    -16.22247    2.00000
   12    -15.47867    2.00000
   13    -15.35870    2.00000
   14    -14.55966    2.00000
   15    -14.06501    2.00000
   16    -13.79320    2.00000
   17    -13.10188    2.00000
   18    -12.74462    2.00000
   19    -12.51800    2.00000
   20    -12.20915    2.00000
   21    -11.77799    2.00000
   22    -11.16014    2.00000
   23    -10.95547    2.00000
   24    -10.85139    2.00000
   25    -10.41475    2.00000
   26     -9.85897    2.00000
   27     -9.69164    2.00000
   28     -9.22882    2.00000
   29     -8.86954    2.00000
   30     -8.78618    2.00000
   31     -8.59255    2.00000
   32     -8.38976    2.00000
   33     -8.15749    2.00000
   34     -8.04317    2.00000
   35     -7.49739    2.00000
   36     -7.32667    2.00000
   37     -7.06932    2.00000
   38     -6.65400    2.00000
   39     -6.30761    2.00000
   40     -6.06307    1.99999
   41     -5.78234    1.99981
   42     -5.73843    1.99971
   43     -5.56127    1.99830
   44     -5.37831    1.98943
   45     -5.28518    1.97340
   46     -5.11188    1.85826
   47     -4.88057    1.12942
   48     -4.82639    0.86019
   49     -4.62813    0.18829
   50     -4.19838    0.00282
   51     -3.97661    0.00031
   52     -3.77115    0.00004
   53     -3.75394    0.00003
   54     -3.49583    0.00000
   55     -3.17607    0.00000
   56     -3.08083    0.00000
   57     -2.83643    0.00000
   58     -2.65326    0.00000
   59     -2.40470    0.00000
   60     -2.12716    0.00000
   61     -1.70396    0.00000
   62     -1.26675    0.00000
   63     -1.14404    0.00000
   64     -1.03411    0.00000
   65     -0.96854    0.00000
   66     -0.63908    0.00000
   67     -0.53258    0.00000
   68     -0.11887    0.00000
   69      0.51550    0.00000
   70      0.64005    0.00000
   71      1.20323    0.00000
   72      1.76718    0.00000
   73      1.89802    0.00000
   74      1.94913    0.00000
   75      2.91245    0.00000
   76      3.22927    0.00000
   77      3.59655    0.00000
   78      3.91695    0.00000
   79      4.68651    0.00000
   80      5.55624    0.00000
   81      6.16757    0.00000
   82      6.50640    0.00000
   83      6.98921    0.00000
   84      7.25475    0.00000
   85      7.40493    0.00000
   86      7.65475    0.00000
   87      7.88437    0.00000
   88      8.10061    0.00000
   89      8.31252    0.00000
   90      8.46916    0.00000
   91      8.59510    0.00000
   92      8.69279    0.00000
   93      8.91802    0.00000
   94      9.06772    0.00000
   95      9.19288    0.00000
   96      9.36085    0.00000
   97      9.44764    0.00000


Forces in eV/Ang:
  0 C    -6.69526    0.64420   -0.83751
  1 C    -1.40077   -3.31911    0.66009
  2 C    -1.71651   -2.65445    0.19651
  3 C     0.47244   11.87072  -14.28280
  4 C     2.37202    1.77352   -0.67345
  5 C    -3.53186    0.13869    0.08478
  6 C    -5.34076   -0.63507    0.25347
  7 C     3.06077    0.54818    1.27915
  8 C     0.31652    1.17641   -1.61335
  9 C     8.40582   -0.05488    0.42505
 10 C    -5.95240    0.85142  -11.93340
 11 C     4.54648   -4.60078   -0.25297
 12 C    -4.00858   -1.47742   -1.93568
 13 C    -6.88929   -4.82698   -0.68081
 14 C     4.24919    1.85580    0.27056
 15 C     5.35351   -2.19510    0.74309
 16 C    -6.88584   -6.40267   14.35444
 17 C     0.43325   -3.11258   -0.24953
 18 C     7.61792   -0.19868    0.55930
 19 C     0.54306   -1.39149    2.42407
 20 C     4.88608   -1.83236   12.62730
 21 C     1.81209    2.81944    0.25469
 22 C     0.55371    2.53197   -1.36481
 23 C    -2.22760    8.53029   -0.24958

System changes: positions 

Initializing position-dependent things.

Density initialized from wave functions
           .--------------------------------------.  
          /|                                      |  
         / |                                      |  
        /  |                                      |  
       /   |                                      |  
      /    |                                      |  
     /     |                                      |  
    /      |                                      |  
   /       |                                      |  
  /        |             CC  C                    |  
 *         |   C C  CC     CC    C                |  
 |         |          C C       C                 |  
 |         .--C----C-CC---------------------------.  
 |        /             C    CC                  /   
 |       /       C    C  C                      /    
 |      /           C                          /     
 |     /                                      /      
 |    /                                      /       
 |   /                                      /        
 |  /                                      /         
 | /                                      /          
 |/                                      /           
 *--------------------------------------*            

Positions:
   0 C      6.282737    9.595746    4.438040
   1 C      8.513529    3.533767    5.703111
   2 C     10.532193   10.211096    4.588592
   3 C      7.309593   12.045007    4.299984
   4 C      8.725697    8.652016    5.083643
   5 C     10.785060    7.980198    4.859197
   6 C      7.008351    3.324944    4.423477
   7 C      7.023557    5.891256    5.319724
   8 C      7.480662    4.639945    4.630675
   9 C      8.802540    4.343845    4.659920
  10 C      3.389522    8.189675    4.270459
  11 C      7.348242    8.872602    4.569549
  12 C      3.925312    9.534799    4.675939
  13 C      6.016665    4.990216    5.549523
  14 C      5.093306    9.850058    5.125126
  15 C      8.481939   11.767678    4.844087
  16 C      6.912468   11.441308    5.237766
  17 C      5.950278    8.244087    5.492995
  18 C      8.150188   10.052158    4.378798
  19 C      5.486934    4.460519    4.310513
  20 C      3.845097    8.178119    5.394510
  21 C     10.238459    5.918027    4.800173
  22 C     10.081568    4.699563    5.289839
  23 C      6.586229    7.010737    4.853358

Unit cell:
           periodic     x           y           z      points  spacing
  1. axis:    yes   16.000000    0.000000    0.000000    80     0.2000
  2. axis:    yes    0.000000   16.000000    0.000000    80     0.2000
  3. axis:    yes    0.000000    0.000000   10.000000    48     0.2083

Effective grid spacing dv^(1/3) = 0.2027

                     log10-error:    total        iterations:
           time      wfs    density  energy       fermi  poisson
iter:   1  14:13:40          +inf  -134.839664    2      5      
iter:   2  14:13:40         -1.60  -134.617166    3      2      
iter:   3  14:13:41         -1.92  -134.589797    2      2      
iter:   4  14:13:41         -2.05  -134.574152    2      2      
iter:   5  14:13:42         -2.16  -134.564273    2      2      
iter:   6  14:13:42         -2.33  -134.559257    2      2      
iter:   7  14:13:43         -2.47  -134.557774    2      2      
iter:   8  14:13:43         -2.61  -134.557720    2      2      
iter:   9  14:13:44         -2.84  -134.557129    2      2      
iter:  10  14:13:44         -3.03  -134.558845    2      1      
iter:  11  14:13:45         -3.21  -134.557749    2      1      
iter:  12  14:13:45         -3.32  -134.556977    2      1      
iter:  13  14:13:46         -3.47  -134.557414    2      1      
iter:  14  14:13:46         -3.64  -134.556830    2      1      
iter:  15  14:13:47         -3.80  -134.556289    2      1      
iter:  16  14:13:47         -3.98  -134.556755    2      1      
iter:  17  14:13:48         -4.12  -134.556619    1      1      

Converged after 17 iterations.

Dipole moment: (0.356547, 0.734994, -0.237335) |e|*Ang

Energy contributions relative to reference atoms: (reference = -24663.074771)

Kinetic:       +158.238967
Potential:     -140.576031
External:        +0.000000
XC:            -154.689784
Entropy (-ST):   -0.412063
Local:           +2.676261
--------------------------
Free energy:   -134.762651
Extrapolated:  -134.556619

Fermi level: -4.88906

 Band  Eigenvalues  Occupancy
    0    -25.29444    2.00000
    1    -25.07072    2.00000
    2    -24.13726    2.00000
    3    -23.59654    2.00000
    4    -22.73393    2.00000
    5    -21.26487    2.00000
    6    -20.26854    2.00000
    7    -19.23221    2.00000
    8    -18.48484    2.00000
    9    -17.64579    2.00000
   10    -16.27668    2.00000
   11    -15.95233    2.00000
   12    -15.40128    2.00000
   13    -15.29905    2.00000
   14    -14.57665    2.00000
   15    -13.94576    2.00000
   16    -13.69204    2.00000
   17    -13.13963    2.00000
   18    -12.64193    2.00000
   19    -12.51796    2.00000
   20    -12.14797    2.00000
   21    -11.73718    2.00000
   22    -11.14660    2.00000
   23    -10.84871    2.00000
   24    -10.75008    2.00000
   25    -10.36151    2.00000
   26     -9.81236    2.00000
   27     -9.70783    2.00000
   28     -9.28221    2.00000
   29     -8.83445    2.00000
   30     -8.73661    2.00000
   31     -8.54005    2.00000
   32     -8.35506    2.00000
   33     -8.20043    2.00000
   34     -8.06033    2.00000
   35     -7.44593    2.00000
   36     -7.35402    2.00000
   37     -7.14595    2.00000
   38     -6.59178    2.00000
   39     -6.30304    2.00000
   40     -6.08898    1.99999
   41     -5.93377    1.99994
   42     -5.74324    1.99961
   43     -5.58392    1.99808
   44     -5.38944    1.98666
   45     -5.29697    1.96672
   46     -5.14278    1.85343
   47     -4.93201    1.21152
   48     -4.84753    0.79531
   49     -4.66117    0.18578
   50     -4.22385    0.00258
   51     -4.01933    0.00033
   52     -3.77594    0.00003
   53     -3.74477    0.00002
   54     -3.43852    0.00000
   55     -3.08384    0.00000
   56     -3.05069    0.00000
   57     -2.81214    0.00000
   58     -2.55617    0.00000
   59     -2.37237    0.00000
   60     -2.12566    0.00000
   61     -1.64572    0.00000
   62     -1.26572    0.00000
   63     -1.15736    0.00000
   64     -1.06362    0.00000
   65     -0.90593    0.00000
   66     -0.69324    0.00000
   67     -0.55281    0.00000
   68     -0.16097    0.00000
   69      0.58099    0.00000
   70      0.70710    0.00000
   71      1.19419    0.00000
   72      1.74159    0.00000
   73      1.85976    0.00000
   74      2.00832    0.00000
   75      2.87637    0.00000
   76      3.08675    0.00000
   77      3.61230    0.00000
   78      4.06990    0.00000
   79      4.67296    0.00000
   80      5.59762    0.00000
   81      6.48207    0.00000
   82      6.59593    0.00000
   83      7.04672    0.00000
   84      7.27423    0.00000
   85      7.31470    0.00000
   86      7.56734    0.00000
   87      7.80854    0.00000
   88      8.03789    0.00000
   89      8.32206    0.00000
   90      8.41062    0.00000
   91      8.58412    0.00000
   92      8.74246    0.00000
   93      8.88034    0.00000
   94      9.01589    0.00000
   95      9.15637    0.00000
   96      9.37649    0.00000
   97      9.43498    0.00000


Forces in eV/Ang:
  0 C    -6.28394    0.19064   -0.42321
  1 C    -1.74763   -3.11639    0.26702
  2 C    -1.85567   -2.71076    0.18842
  3 C    -0.11013    8.93684   -9.83498
  4 C     2.54512    1.98274   -0.85690
  5 C    -3.61606    0.00218    0.13805
  6 C    -4.82548    0.22599    0.44351
  7 C     1.71563   -0.33910    0.67008
  8 C     1.08777    1.04551   -1.37969
  9 C     7.14632   -0.53654    0.63439
 10 C    -5.20863    0.98297   -9.86834
 11 C     4.44999   -3.67311   -0.58216
 12 C    -3.48709   -1.36551   -1.68445
 13 C    -5.63890   -3.45612   -0.68574
 14 C     3.43316    1.76806    0.07982
 15 C     3.81690   -2.27149    0.11583
 16 C    -4.93248   -3.94069   10.35977
 17 C     0.29518   -2.74368   -0.46878
 18 C     7.51510   -0.64238    0.94231
 19 C     0.43287   -1.59673    2.20320
 20 C     4.36667   -1.74760   10.55109
 21 C     1.88580    3.08737    0.33297
 22 C     0.66280    2.70676   -1.41870
 23 C    -1.74312    7.25217    0.34534

System changes: positions 

Initializing position-dependent things.

Density initialized from wave functions
           .--------------------------------------.  
          /|                                      |  
         / |                                      |  
        /  |                                      |  
       /   |                                      |  
      /    |                                      |  
     /     |                                      |  
    /      |                                      |  
   /       |                                      |  
  /        |             CC  C                    |  
 *         |    CC  CC     CC    C                |  
 |         |          C C       C                 |  
 |         .--C----C-CC---------------------------.  
 |        /             C    CC                  /   
 |       /       C    C  C                      /    
 |      /           C                          /     
 |     /                                      /      
 |    /                                      /       
 |   /                                      /        
 |  /                                      /         
 | /                                      /          
 |/                                      /           
 *--------------------------------------*            

Positions:
   0 C      6.267791    9.583126    4.437345
   1 C      8.502112    3.519249    5.700051
   2 C     10.520779   10.195910    4.589744
   3 C      7.302391   12.059708    4.298754
   4 C      8.742867    8.663406    5.078474
   5 C     10.764474    7.979542    4.860280
   6 C      6.984254    3.330924    4.427213
   7 C      7.017183    5.889946    5.318621
   8 C      7.499635    4.642362    4.624159
   9 C      8.827514    4.337732    4.666074
  10 C      3.377760    8.196786    4.260535
  11 C      7.357784    8.867920    4.562784
  12 C      3.917932    9.529484    4.671821
  13 C      5.996744    4.984142    5.543676
  14 C      5.093832    9.856640    5.123236
  15 C      8.483843   11.756331    4.838008
  16 C      6.911358   11.448645    5.247555
  17 C      5.951642    8.231559    5.488159
  18 C      8.189143   10.047023    4.386296
  19 C      5.488590    4.450836    4.321684
  20 C      3.854454    8.169818    5.408076
  21 C     10.249659    5.936916    4.802243
  22 C     10.086283    4.715422    5.281945
  23 C      6.581453    7.034167    4.862898

Unit cell:
           periodic     x           y           z      points  spacing
  1. axis:    yes   16.000000    0.000000    0.000000    80     0.2000
  2. axis:    yes    0.000000   16.000000    0.000000    80     0.2000
  3. axis:    yes    0.000000    0.000000   10.000000    48     0.2083

Effective grid spacing dv^(1/3) = 0.2027

                     log10-error:    total        iterations:
           time      wfs    density  energy       fermi  poisson
iter:   1  14:13:49          +inf  -136.964523    2      5      
iter:   2  14:13:50         -1.68  -136.798218    2      2      
iter:   3  14:13:50         -1.97  -136.777514    2      2      
iter:   4  14:13:51         -2.09  -136.763101    3      2      
iter:   5  14:13:51         -2.22  -136.755564    2      2      
iter:   6  14:13:52         -2.39  -136.752670    2      2      
iter:   7  14:13:52         -2.55  -136.751924    2      2      
iter:   8  14:13:53         -2.68  -136.751241    2      2      
iter:   9  14:13:53         -2.96  -136.751317    2      2      
iter:  10  14:13:54         -3.16  -136.752095    2      1      
iter:  11  14:13:54         -3.31  -136.751913    2      1      
iter:  12  14:13:55         -3.41  -136.751526    2      1      
iter:  13  14:13:55         -3.59  -136.751596    2      1      
iter:  14  14:13:56         -3.81  -136.751284    2      1      
iter:  15  14:13:56         -3.90  -136.751322    2      1      
iter:  16  14:13:57         -4.00  -136.751411    2      1      

Converged after 16 iterations.

Dipole moment: (0.334009, 0.716262, -0.246145) |e|*Ang

Energy contributions relative to reference atoms: (reference = -24663.074771)

Kinetic:       +147.028036
Potential:     -132.911856
External:        +0.000000
XC:            -153.330842
Entropy (-ST):   -0.404217
Local:           +2.665359
--------------------------
Free energy:   -136.953520
Extrapolated:  -136.751411

Fermi level: -4.90840

 Band  Eigenvalues  Occupancy
    0    -25.08482    2.00000
    1    -24.84210    2.00000
    2    -23.95900    2.00000
    3    -23.45473    2.00000
    4    -22.55783    2.00000
    5    -21.28740    2.00000
    6    -20.21869    2.00000
    7    -19.25765    2.00000
    8    -18.46054    2.00000
    9    -17.57001    2.00000
   10    -16.23291    2.00000
   11    -15.75797    2.00000
   12    -15.41266    2.00000
   13    -15.25057    2.00000
   14    -14.60617    2.00000
   15    -13.86755    2.00000
   16    -13.62276    2.00000
   17    -13.18942    2.00000
   18    -12.59613    2.00000
   19    -12.53377    2.00000
   20    -12.08969    2.00000
   21    -11.71910    2.00000
   22    -11.13373    2.00000
   23    -10.81048    2.00000
   24    -10.64166    2.00000
   25    -10.33400    2.00000
   26     -9.77169    2.00000
   27     -9.73526    2.00000
   28     -9.33818    2.00000
   29     -8.82675    2.00000
   30     -8.69429    2.00000
   31     -8.50385    2.00000
   32     -8.32479    2.00000
   33     -8.25485    2.00000
   34     -8.05496    2.00000
   35     -7.44698    2.00000
   36     -7.35244    2.00000
   37     -7.19567    2.00000
   38     -6.51397    2.00000
   39     -6.30086    2.00000
   40     -6.14092    1.99999
   41     -6.07122    1.99998
   42     -5.77453    1.99965
   43     -5.57711    1.99751
   44     -5.40767    1.98652
   45     -5.29083    1.95727
   46     -5.16041    1.85108
   47     -4.97242    1.30959
   48     -4.85187    0.72465
   49     -4.67179    0.17159
   50     -4.20842    0.00182
   51     -4.03048    0.00031
   52     -3.76347    0.00002
   53     -3.72173    0.00001
   54     -3.35773    0.00000
   55     -3.04911    0.00000
   56     -2.97522    0.00000
   57     -2.77674    0.00000
   58     -2.47701    0.00000
   59     -2.30111    0.00000
   60     -2.08628    0.00000
   61     -1.59525    0.00000
   62     -1.29989    0.00000
   63     -1.18614    0.00000
   64     -1.04794    0.00000
   65     -0.84938    0.00000
   66     -0.68761    0.00000
   67     -0.50931    0.00000
   68     -0.14915    0.00000
   69      0.65172    0.00000
   70      0.79449    0.00000
   71      1.17973    0.00000
   72      1.74803    0.00000
   73      1.85909    0.00000
   74      2.17814    0.00000
   75      2.82286    0.00000
   76      3.02069    0.00000
   77      3.67869    0.00000
   78      4.25618    0.00000
   79      4.70835    0.00000
   80      5.63485    0.00000
   81      6.63513    0.00000
   82      6.73559    0.00000
   83      7.13669    0.00000
   84      7.24653    0.00000
   85      7.39174    0.00000
   86      7.51080    0.00000
   87      7.75324    0.00000
   88      8.07173    0.00000
   89      8.33859    0.00000
   90      8.42614    0.00000
   91      8.56659    0.00000
   92      8.78211    0.00000
   93      8.81834    0.00000
   94      9.01953    0.00000
   95      9.15728    0.00000
   96      9.40179    0.00000
   97      9.40995    0.00000


Forces in eV/Ang:
  0 C    -5.31022   -0.66645   -0.04771
  1 C    -2.01264   -2.98397    0.03164
  2 C    -2.00327   -2.77917    0.20960
  3 C    -0.06228    8.05203   -8.49503
  4 C     2.84379    2.10044   -0.98641
  5 C    -3.67771   -0.15793    0.15991
  6 C    -4.44317    0.85147    0.55930
  7 C     1.05227   -0.60164    0.14055
  8 C     1.63104    0.97769   -1.31675
  9 C     6.29214   -0.88832    0.77832
 10 C    -4.21136    1.04743   -7.29489
 11 C     3.74845   -2.59090   -0.86594
 12 C    -2.97715   -1.28215   -1.40403
 13 C    -5.08954   -2.71518   -0.45909
 14 C     2.41054    1.72227   -0.04230
 15 C     3.15079   -2.50619   -0.26782
 16 C    -4.46964   -3.21051    9.26826
 17 C     0.07977   -2.36427   -0.66036
 18 C     7.53434   -1.00024    1.21644
 19 C     0.35035   -1.78435    1.97740
 20 C     3.60665   -1.53651    7.93078
 21 C     1.92434    3.30356    0.39732
 22 C     0.77427    2.89223   -1.49987
 23 C    -1.23958    6.17708    0.70849

System changes: positions 

Initializing position-dependent things.

Density initialized from wave functions
           .--------------------------------------.  
          /|                                      |  
         / |                                      |  
        /  |                                      |  
       /   |                                      |  
      /    |                                      |  
     /     |                                      |  
    /      |                                      |  
   /       |                                      |  
  /        |             CC  C                    |  
 *         |    C   CC     CC    C                |  
 |         |          C C       C                 |  
 |         .--C----C-CC---------------------------.  
 |        /             C    CC                  /   
 |       /       C    C  C                      /    
 |      /           C                          /     
 |     /                                      /      
 |    /                                      /       
 |   /                                      /        
 |  /                                      /         
 | /                                      /          
 |/                                      /           
 *--------------------------------------*            

Positions:
   0 C      6.254386    9.568870    4.439076
   1 C      8.489707    3.505315    5.696940
   2 C     10.509044   10.180900    4.590949
   3 C      7.296052   12.075290    4.295049
   4 C      8.760634    8.675060    5.072679
   5 C     10.744403    7.977896    4.861386
   6 C      6.963116    3.339792    4.431216
   7 C      7.011577    5.886506    5.315178
   8 C      7.517502    4.645382    4.617962
   9 C      8.850093    4.330299    4.672146
  10 C      3.369834    8.203670    4.259425
  11 C      7.366430    8.866487    4.555316
  12 C      3.910603    9.524094    4.668265
  13 C      5.977788    4.979401    5.540552
  14 C      5.092731    9.863706    5.121255
  15 C      8.486591   11.743273    4.831534
  16 C      6.907592   11.454670    5.259445
  17 C      5.951402    8.221557    5.482772
  18 C      8.227614   10.040115    4.394795
  19 C      5.489803    4.440356    4.331021
  20 C      3.861261    8.163095    5.412377
  21 C     10.260426    5.956098    4.804660
  22 C     10.091303    4.731798    5.273733
  23 C      6.579045    7.054312    4.872205

Unit cell:
           periodic     x           y           z      points  spacing
  1. axis:    yes   16.000000    0.000000    0.000000    80     0.2000
  2. axis:    yes    0.000000   16.000000    0.000000    80     0.2000
  3. axis:    yes    0.000000    0.000000   10.000000    48     0.2083

Effective grid spacing dv^(1/3) = 0.2027

                     log10-error:    total        iterations:
           time      wfs    density  energy       fermi  poisson
iter:   1  14:13:58          +inf  -138.821146    2      5      
iter:   2  14:13:59         -1.73  -138.688662    2      2      
iter:   3  14:13:59         -2.02  -138.671298    2      2      
iter:   4  14:14:00         -2.13  -138.660062    2      2      
iter:   5  14:14:00         -2.26  -138.653776    2      2      
iter:   6  14:14:01         -2.43  -138.650346    2      2      
iter:   7  14:14:01         -2.60  -138.649771    2      2      
iter:   8  14:14:02         -2.74  -138.649654    2      2      
iter:   9  14:14:02         -2.97  -138.649762    2      1      
iter:  10  14:14:03         -3.12  -138.649757    1      1      
iter:  11  14:14:03         -3.29  -138.649851    2      1      
iter:  12  14:14:04         -3.44  -138.650076    2      1      
iter:  13  14:14:04         -3.59  -138.650187    2      1      
iter:  14  14:14:05         -3.79  -138.650032    2      1      
iter:  15  14:14:05         -3.95  -138.649973    1      1      
iter:  16  14:14:06         -4.04  -138.649942    2      1      

Converged after 16 iterations.

Dipole moment: (0.312446, 0.693578, -0.255446) |e|*Ang

Energy contributions relative to reference atoms: (reference = -24663.074771)

Kinetic:       +138.500549
Potential:     -127.129064
External:        +0.000000
XC:            -152.492692
Entropy (-ST):   -0.400667
Local:           +2.671598
--------------------------
Free energy:   -138.850276
Extrapolated:  -138.649942

Fermi level: -4.92265

 Band  Eigenvalues  Occupancy
    0    -24.92665    2.00000
    1    -24.64860    2.00000
    2    -23.81248    2.00000
    3    -23.32792    2.00000
    4    -22.40355    2.00000
    5    -21.35198    2.00000
    6    -20.18042    2.00000
    7    -19.27839    2.00000
    8    -18.46763    2.00000
    9    -17.50951    2.00000
   10    -16.19815    2.00000
   11    -15.68085    2.00000
   12    -15.38235    2.00000
   13    -15.19896    2.00000
   14    -14.64749    2.00000
   15    -13.79464    2.00000
   16    -13.53791    2.00000
   17    -13.23692    2.00000
   18    -12.58954    2.00000
   19    -12.51710    2.00000
   20    -12.05646    2.00000
   21    -11.70600    2.00000
   22    -11.16167    2.00000
   23    -10.80418    2.00000
   24    -10.51866    2.00000
   25    -10.31422    2.00000
   26     -9.82049    2.00000
   27     -9.72019    2.00000
   28     -9.39600    2.00000
   29     -8.83439    2.00000
   30     -8.66578    2.00000
   31     -8.47940    2.00000
   32     -8.32971    2.00000
   33     -8.27916    2.00000
   34     -8.03778    2.00000
   35     -7.49880    2.00000
   36     -7.34324    2.00000
   37     -7.21721    2.00000
   38     -6.44629    2.00000
   39     -6.30387    2.00000
   40     -6.21037    1.99999
   41     -6.19158    1.99999
   42     -5.82397    1.99976
   43     -5.55519    1.99643
   44     -5.41574    1.98566
   45     -5.28813    1.94957
   46     -5.17476    1.85122
   47     -5.00285    1.38083
   48     -4.84977    0.65092
   49     -4.69371    0.18401
   50     -4.19011    0.00132
   51     -4.03386    0.00028
   52     -3.75543    0.00002
   53     -3.69638    0.00001
   54     -3.28291    0.00000
   55     -3.02959    0.00000
   56     -2.90306    0.00000
   57     -2.74255    0.00000
   58     -2.41957    0.00000
   59     -2.22457    0.00000
   60     -2.04354    0.00000
   61     -1.55395    0.00000
   62     -1.33428    0.00000
   63     -1.21527    0.00000
   64     -1.01045    0.00000
   65     -0.82513    0.00000
   66     -0.62524    0.00000
   67     -0.44753    0.00000
   68     -0.11163    0.00000
   69      0.72224    0.00000
   70      0.88863    0.00000
   71      1.19470    0.00000
   72      1.73303    0.00000
   73      1.91414    0.00000
   74      2.35640    0.00000
   75      2.77677    0.00000
   76      3.02634    0.00000
   77      3.77568    0.00000
   78      4.43676    0.00000
   79      4.80845    0.00000
   80      5.69432    0.00000
   81      6.64006    0.00000
   82      6.87486    0.00000
   83      7.17772    0.00000
   84      7.23748    0.00000
   85      7.44476    0.00000
   86      7.49306    0.00000
   87      7.72201    0.00000
   88      8.10179    0.00000
   89      8.35163    0.00000
   90      8.43240    0.00000
   91      8.55631    0.00000
   92      8.75889    0.00000
   93      8.81195    0.00000
   94      9.04816    0.00000
   95      9.17329    0.00000
   96      9.37219    0.00000
   97      9.43065    0.00000


Forces in eV/Ang:
  0 C    -4.59206   -1.23926    0.32444
  1 C    -2.18366   -2.87190   -0.16444
  2 C    -2.10854   -2.80557    0.22170
  3 C    -0.03726    6.82174   -6.79925
  4 C     2.99267    2.09494   -1.05528
  5 C    -3.68771   -0.30964    0.18442
  6 C    -4.04296    1.31550    0.65489
  7 C     0.49738   -0.79610   -0.28533
  8 C     2.00772    0.95209   -1.28593
  9 C     5.49282   -1.22610    0.89562
 10 C    -3.96299    0.99224   -6.50543
 11 C     3.35969   -1.82651   -1.10611
 12 C    -2.47761   -1.04591   -1.17325
 13 C    -4.61421   -2.09529   -0.22606
 14 C     1.55237    1.71579   -0.13327
 15 C     2.38844   -2.68719   -0.62940
 16 C    -3.79967   -2.23589    7.77873
 17 C    -0.15422   -1.96979   -0.80533
 18 C     7.41516   -1.10418    1.40594
 19 C     0.33316   -1.93694    1.78047
 20 C     3.47168   -1.43545    7.12610
 21 C     1.90832    3.50102    0.44760
 22 C     0.90442    3.04456   -1.56103
 23 C    -0.72956    5.16161    0.93355

System changes: positions 

Initializing position-dependent things.

Density initialized from wave functions
           .--------------------------------------.  
          /|                                      |  
         / |                                      |  
        /  |                                      |  
       /   |                                      |  
      /    |                                      |  
     /     |                                      |  
    /      |                                      |  
   /       |                                      |  
  /        |             CC  C                    |  
 *         |    C   CC     CC    C                |  
 |         |          C  C      C                 |  
 |         .--C----C-CC-------C-------------------.  
 |        /             C    C                   /   
 |       /       C    C  C                      /    
 |      /           C                          /     
 |     /                                      /      
 |    /                                      /       
 |   /                                      /        
 |  /                                      /         
 | /                                      /          
 |/                                      /           
 *--------------------------------------*            

Positions:
   0 C      6.242597    9.552892    4.443114
   1 C      8.476582    3.491362    5.693517
   2 C     10.496710   10.165664    4.592233
   3 C      7.290515   12.088008    4.294197
   4 C      8.778926    8.686323    5.066626
   5 C     10.724257    7.975277    4.862596
   6 C      6.943929    3.350498    4.435560
   7 C      7.005869    5.882463    5.309913
   8 C      7.535294    4.649038    4.611427
   9 C      8.870549    4.321182    4.678497
  10 C      3.359959    8.209680    4.254596
  11 C      7.374950    8.867157    4.546850
  12 C      3.904550    9.520147    4.665313
  13 C      5.958926    4.975617    5.539654
  14 C      5.088920    9.871496    5.119154
  15 C      8.487817   11.728579    4.823951
  16 C      6.904212   11.462959    5.268717
  17 C      5.949459    8.213781    5.476818
  18 C      8.265977   10.033495    4.403984
  19 C      5.491224    4.428926    4.339337
  20 C      3.870202    8.156693    5.420391
  21 C     10.270899    5.976465    4.807371
  22 C     10.097150    4.749220    5.265012
  23 C      6.579341    7.070959    4.881282

Unit cell:
           periodic     x           y           z      points  spacing
  1. axis:    yes   16.000000    0.000000    0.000000    80     0.2000
  2. axis:    yes    0.000000   16.000000    0.000000    80     0.2000
  3. axis:    yes    0.000000    0.000000   10.000000    48     0.2083

Effective grid spacing dv^(1/3) = 0.2027

                     log10-error:    total        iterations:
           time      wfs    density  energy       fermi  poisson
iter:   1  14:14:07          +inf  -140.619294    2      5      
iter:   2  14:14:08         -1.72  -140.476384    2      2      
iter:   3  14:14:08         -2.03  -140.458276    2      2      
iter:   4  14:14:09         -2.14  -140.445126    2      2      
iter:   5  14:14:09         -2.28  -140.438863    2      2      
iter:   6  14:14:10         -2.45  -140.435688    2      2      
iter:   7  14:14:10         -2.64  -140.435410    2      2      
iter:   8  14:14:11         -2.78  -140.435094    2      2      
iter:   9  14:14:12         -3.01  -140.435135    2      1      
iter:  10  14:14:12         -3.14  -140.434939    2      1      
iter:  11  14:14:12         -3.33  -140.435161    2      1      
iter:  12  14:14:13         -3.46  -140.435599    2      1      
iter:  13  14:14:13         -3.66  -140.436137    2      1      
iter:  14  14:14:14         -3.84  -140.435627    2      1      
iter:  15  14:14:14         -3.89  -140.435410    2      1      
iter:  16  14:14:15         -3.96  -140.435452    2      1      
iter:  17  14:14:15         -4.10  -140.435258    2      1      

Converged after 17 iterations.

Dipole moment: (0.293827, 0.671648, -0.263450) |e|*Ang

Energy contributions relative to reference atoms: (reference = -24663.074771)

Kinetic:       +130.961161
Potential:     -122.033588
External:        +0.000000
XC:            -151.848654
Entropy (-ST):   -0.393028
Local:           +2.682337
--------------------------
Free energy:   -140.631772
Extrapolated:  -140.435258

Fermi level: -4.93059

 Band  Eigenvalues  Occupancy
    0    -24.80299    2.00000
    1    -24.48049    2.00000
    2    -23.70149    2.00000
    3    -23.17637    2.00000
    4    -22.26656    2.00000
    5    -21.39832    2.00000
    6    -20.14631    2.00000
    7    -19.28084    2.00000
    8    -18.47621    2.00000
    9    -17.45445    2.00000
   10    -16.17374    2.00000
   11    -15.72623    2.00000
   12    -15.28757    2.00000
   13    -15.15872    2.00000
   14    -14.70477    2.00000
   15    -13.73492    2.00000
   16    -13.46812    2.00000
   17    -13.27560    2.00000
   18    -12.61845    2.00000
   19    -12.49433    2.00000
   20    -12.02191    2.00000
   21    -11.69436    2.00000
   22    -11.16826    2.00000
   23    -10.79323    2.00000
   24    -10.42313    2.00000
   25    -10.30031    2.00000
   26     -9.88989    2.00000
   27     -9.67526    2.00000
   28     -9.45698    2.00000
   29     -8.85172    2.00000
   30     -8.65047    2.00000
   31     -8.46367    2.00000
   32     -8.37033    2.00000
   33     -8.26400    2.00000
   34     -8.01345    2.00000
   35     -7.55155    2.00000
   36     -7.35819    2.00000
   37     -7.20999    2.00000
   38     -6.43982    2.00000
   39     -6.32986    2.00000
   40     -6.28307    2.00000
   41     -6.24602    2.00000
   42     -5.88354    1.99985
   43     -5.53133    1.99509
   44     -5.43017    1.98656
   45     -5.29782    1.95043
   46     -5.18594    1.85561
   47     -5.02307    1.43202
   48     -4.83997    0.57556
   49     -4.71290    0.20368
   50     -4.16668    0.00096
   51     -4.02326    0.00023
   52     -3.74032    0.00001
   53     -3.66525    0.00001
   54     -3.20076    0.00000
   55     -3.00650    0.00000
   56     -2.84050    0.00000
   57     -2.70858    0.00000
   58     -2.36880    0.00000
   59     -2.16023    0.00000
   60     -1.99110    0.00000
   61     -1.52908    0.00000
   62     -1.35413    0.00000
   63     -1.23996    0.00000
   64     -0.96426    0.00000
   65     -0.80087    0.00000
   66     -0.54350    0.00000
   67     -0.37635    0.00000
   68     -0.04907    0.00000
   69      0.79859    0.00000
   70      0.97636    0.00000
   71      1.22326    0.00000
   72      1.73486    0.00000
   73      1.97339    0.00000
   74      2.50607    0.00000
   75      2.71720    0.00000
   76      3.05455    0.00000
   77      3.88500    0.00000
   78      4.60912    0.00000
   79      4.96384    0.00000
   80      5.73033    0.00000
   81      6.63208    0.00000
   82      6.92885    0.00000
   83      7.16668    0.00000
   84      7.25139    0.00000
   85      7.39179    0.00000
   86      7.58821    0.00000
   87      7.69671    0.00000
   88      8.13136    0.00000
   89      8.32098    0.00000
   90      8.45337    0.00000
   91      8.54257    0.00000
   92      8.68914    0.00000
   93      8.82296    0.00000
   94      9.08207    0.00000
   95      9.19109    0.00000
   96      9.34543    0.00000
   97      9.45096    0.00000


Forces in eV/Ang:
  0 C    -4.07658   -1.69000    0.70401
  1 C    -2.29822   -2.74906   -0.30123
  2 C    -2.17354   -2.80864    0.21520
  3 C     0.09699    6.04710   -5.82256
  4 C     3.11901    1.99018   -1.07051
  5 C    -3.72285   -0.46005    0.20095
  6 C    -3.68141    1.73466    0.75876
  7 C     0.07074   -1.03228   -0.58926
  8 C     2.18729    0.91727   -1.27224
  9 C     4.83242   -1.47113    1.03004
 10 C    -3.43225    0.94068   -5.16679
 11 C     3.20480   -1.21777   -1.26198
 12 C    -2.22232   -0.95760   -0.98675
 13 C    -4.17184   -1.56072   -0.03519
 14 C     0.99358    1.76205   -0.20655
 15 C     1.85490   -2.92537   -0.87695
 16 C    -3.44466   -1.66652    6.93024
 17 C    -0.42787   -1.61052   -0.93016
 18 C     7.21450   -1.11580    1.51437
 19 C     0.36896   -2.08165    1.62371
 20 C     3.10579   -1.22521    5.74172
 21 C     1.85788    3.68361    0.52750
 22 C     0.97367    3.18506   -1.62826
 23 C    -0.27291    4.32649    1.03381

System changes: positions 

Initializing position-dependent things.

Density initialized from wave functions
           .--------------------------------------.  
          /|                                      |  
         / |                                      |  
        /  |                                      |  
       /   |                                      |  
      /    |                                      |  
     /     |                                      |  
    /      |                                      |  
   /       |             C                        |  
  /        |              C  C                    |  
 *         |    C   CC      C    C                |  
 |         |          C  C      C                 |  
 |         .--C----C-CC-------C-------------------.  
 |        /             C    C                   /   
 |       /       C    C  C                      /    
 |      /           C                          /     
 |     /                                      /      
 |    /                                      /       
 |   /                                      /        
 |  /                                      /         
 | /                                      /          
 |/                                      /           
 *--------------------------------------*            

Positions:
   0 C      6.230068    9.535897    4.449608
   1 C      8.462818    3.477224    5.689976
   2 C     10.483799   10.149952    4.593416
   3 C      7.286289   12.100739    4.292280
   4 C      8.798084    8.696616    5.060646
   5 C     10.703054    7.971674    4.863898
   6 C      6.925725    3.363180    4.440582
   7 C      6.999938    5.876798    5.303815
   8 C      7.552277    4.653101    4.604362
   9 C      8.890192    4.310921    4.685687
  10 C      3.351029    8.215197    4.252405
  11 C      7.386097    8.868624    4.537880
  12 C      3.897431    9.516017    4.662543
  13 C      5.940270    4.972801    5.540047
  14 C      5.085044    9.880617    5.116908
  15 C      8.488599   11.711437    4.815790
  16 C      6.899645   11.471454    5.279143
  17 C      5.945484    8.207541    5.470242
  18 C      8.304422   10.027782    4.413438
  19 C      5.493417    4.416268    4.347387
  20 C      3.878921    8.151449    5.425573
  21 C     10.281145    5.998597    4.810784
  22 C     10.103366    4.768103    5.255484
  23 C      6.581804    7.085897    4.889634

Unit cell:
           periodic     x           y           z      points  spacing
  1. axis:    yes   16.000000    0.000000    0.000000    80     0.2000
  2. axis:    yes    0.000000   16.000000    0.000000    80     0.2000
  3. axis:    yes    0.000000    0.000000   10.000000    48     0.2083

Effective grid spacing dv^(1/3) = 0.2027

                     log10-error:    total        iterations:
           time      wfs    density  energy       fermi  poisson
iter:   1  14:14:17          +inf  -142.367708    2      5      
iter:   2  14:14:17         -1.72  -142.220245    2      2      
iter:   3  14:14:18         -2.04  -142.201685    2      2      
iter:   4  14:14:19         -2.15  -142.188787    2      2      
iter:   5  14:14:19         -2.29  -142.182538    2      2      
iter:   6  14:14:20         -2.46  -142.178772    2      2      
iter:   7  14:14:20         -2.67  -142.178723    2      2      
iter:   8  14:14:21         -2.93  -142.177865    2      1      
iter:   9  14:14:21         -3.01  -142.177976    1      1      
iter:  10  14:14:22         -3.18  -142.178265    2      1      
iter:  11  14:14:22         -3.33  -142.178325    2      1      
iter:  12  14:14:22         -3.47  -142.179576    2      1      
iter:  13  14:14:23         -3.70  -142.179170    1      1      
iter:  14  14:14:23         -3.80  -142.179145    2      1      
iter:  15  14:14:24         -3.95  -142.179203    1      1      
iter:  16  14:14:24         -4.15  -142.178981    2      1      

Converged after 16 iterations.

Dipole moment: (0.272427, 0.644057, -0.268068) |e|*Ang

Energy contributions relative to reference atoms: (reference = -24663.074771)

Kinetic:       +123.992803
Potential:     -117.306922
External:        +0.000000
XC:            -151.362649
Entropy (-ST):   -0.387915
Local:           +2.691745
--------------------------
Free energy:   -142.372939
Extrapolated:  -142.178981

Fermi level: -4.93221

 Band  Eigenvalues  Occupancy
    0    -24.69665    2.00000
    1    -24.33564    2.00000
    2    -23.62424    2.00000
    3    -23.01094    2.00000
    4    -22.14167    2.00000
    5    -21.45854    2.00000
    6    -20.11764    2.00000
    7    -19.27400    2.00000
    8    -18.48502    2.00000
    9    -17.40420    2.00000
   10    -16.16403    2.00000
   11    -15.81647    2.00000
   12    -15.22893    2.00000
   13    -15.08750    2.00000
   14    -14.76580    2.00000
   15    -13.69880    2.00000
   16    -13.42026    2.00000
   17    -13.27254    2.00000
   18    -12.65557    2.00000
   19    -12.48166    2.00000
   20    -11.99034    2.00000
   21    -11.68527    2.00000
   22    -11.18541    2.00000
   23    -10.78827    2.00000
   24    -10.34686    2.00000
   25    -10.28870    2.00000
   26     -9.96214    2.00000
   27     -9.63590    2.00000
   28     -9.51941    2.00000
   29     -8.88096    2.00000
   30     -8.65663    2.00000
   31     -8.45226    2.00000
   32     -8.41557    2.00000
   33     -8.24961    2.00000
   34     -7.98399    2.00000
   35     -7.61181    2.00000
   36     -7.38269    2.00000
   37     -7.19626    2.00000
   38     -6.53569    2.00000
   39     -6.40750    2.00000
   40     -6.29059    2.00000
   41     -6.22079    1.99999
   42     -5.93597    1.99991
   43     -5.50528    1.99353
   44     -5.44333    1.98801
   45     -5.31271    1.95645
   46     -5.19211    1.86159
   47     -5.02999    1.45335
   48     -4.82363    0.50481
   49     -4.73364    0.24142
   50     -4.13958    0.00072
   51     -4.01006    0.00020
   52     -3.71730    0.00001
   53     -3.62823    0.00000
   54     -3.11938    0.00000
   55     -2.97517    0.00000
   56     -2.78106    0.00000
   57     -2.67104    0.00000
   58     -2.31430    0.00000
   59     -2.12648    0.00000
   60     -1.94082    0.00000
   61     -1.54560    0.00000
   62     -1.35551    0.00000
   63     -1.23474    0.00000
   64     -0.91464    0.00000
   65     -0.76673    0.00000
   66     -0.46279    0.00000
   67     -0.29936    0.00000
   68      0.03756    0.00000
   69      0.88927    0.00000
   70      1.05231    0.00000
   71      1.31564    0.00000
   72      1.73255    0.00000
   73      2.03715    0.00000
   74      2.52687    0.00000
   75      2.83153    0.00000
   76      3.07578    0.00000
   77      4.02252    0.00000
   78      4.77809    0.00000
   79      5.13849    0.00000
   80      5.76875    0.00000
   81      6.61739    0.00000
   82      6.93339    0.00000
   83      7.11355    0.00000
   84      7.24390    0.00000
   85      7.37557    0.00000
   86      7.61163    0.00000
   87      7.74443    0.00000
   88      8.14954    0.00000
   89      8.27641    0.00000
   90      8.48482    0.00000
   91      8.53394    0.00000
   92      8.64228    0.00000
   93      8.82754    0.00000
   94      9.11150    0.00000
   95      9.21322    0.00000
   96      9.32483    0.00000
   97      9.46140    0.00000


Forces in eV/Ang:
  0 C    -3.40684   -2.17832    1.03560
  1 C    -2.36355   -2.62645   -0.45569
  2 C    -2.24234   -2.76746    0.23976
  3 C     0.23817    5.21071   -4.80662
  4 C     3.21906    1.71795   -1.00493
  5 C    -3.74799   -0.63469    0.20035
  6 C    -3.32034    2.01268    0.77535
  7 C    -0.27945   -1.12458   -0.83427
  8 C     2.34406    0.88349   -1.27033
  9 C     4.17383   -1.63029    1.14741
 10 C    -3.11479    0.82350   -4.31817
 11 C     3.01999   -0.63170   -1.35092
 12 C    -1.87912   -0.77585   -0.76719
 13 C    -3.72051   -1.11304    0.12094
 14 C     0.34709    1.83038   -0.27641
 15 C     1.30934   -3.11080   -1.04974
 16 C    -3.01986   -1.04832    6.00604
 17 C    -0.71506   -1.27531   -1.06742
 18 C     6.83874   -0.94668    1.46758
 19 C     0.39665   -2.19476    1.45455
 20 C     2.94790   -1.05523    4.83961
 21 C     1.75733    3.81739    0.58153
 22 C     1.01856    3.30109   -1.68716
 23 C     0.17706    3.51800    1.10881

System changes: positions 

Initializing position-dependent things.

Density initialized from wave functions
           .--------------------------------------.  
          /|                                      |  
         / |                                      |  
        /  |                                      |  
       /   |                                      |  
      /    |                                      |  
     /     |                                      |  
    /      |                                      |  
   /       |             C                        |  
  /        |              C  C                    |  
 *         |    C   CC      C    C                |  
 |         |          C  C      C                 |  
 |         .--C----C-CC-------C-------------------.  
 |        /             C    C                   /   
 |       /       C    C  C                      /    
 |      /           C                          /     
 |     /                                      /      
 |    /                                      /       
 |   /                                      /        
 |  /                                      /         
 | /                                      /          
 |/                                      /           
 *--------------------------------------*            

Positions:
   0 C      6.218587    9.515804    4.458392
   1 C      8.447997    3.462084    5.685748
   2 C     10.469381   10.133281    4.594980
   3 C      7.283023   12.113164    4.290402
   4 C      8.819190    8.704749    5.055244
   5 C     10.679575    7.966545    4.865167
   6 C      6.907438    3.377182    4.445549
   7 C      6.993988    5.870852    5.296956
   8 C      7.569672    4.657757    4.596261
   9 C      8.909923    4.299825    4.693987
  10 C      3.340871    8.219922    4.249190
  11 C      7.399469    8.871385    4.528529
  12 C      3.890184    9.512524    4.660341
  13 C      5.921031    4.970063    5.541345
  14 C      5.079192    9.891780    5.114345
  15 C      8.488600   11.691431    4.807296
  16 C      6.894755   11.481629    5.289855
  17 C      5.939115    8.202206    5.462392
  18 C      8.343345   10.024427    4.422022
  19 C      5.496279    4.401934    4.355420
  20 C      3.889670    8.146637    5.431650
  21 C     10.291270    6.023291    4.814789
  22 C     10.110060    4.789358    5.244649
  23 C      6.586587    7.099991    4.897799

Unit cell:
           periodic     x           y           z      points  spacing
  1. axis:    yes   16.000000    0.000000    0.000000    80     0.2000
  2. axis:    yes    0.000000   16.000000    0.000000    80     0.2000
  3. axis:    yes    0.000000    0.000000   10.000000    48     0.2083

Effective grid spacing dv^(1/3) = 0.2027

                     log10-error:    total        iterations:
           time      wfs    density  energy       fermi  poisson
iter:   1  14:14:26          +inf  -144.178645    3      5      
iter:   2  14:14:27         -1.69  -144.004311    2      2      
iter:   3  14:14:27         -2.01  -143.981522    2      2      
iter:   4  14:14:28         -2.13  -143.967048    2      2      
iter:   5  14:14:28         -2.27  -143.959667    2      2      
iter:   6  14:14:29         -2.45  -143.956012    2      2      
iter:   7  14:14:29         -2.67  -143.956057    1      2      
iter:   8  14:14:30         -2.82  -143.955945    2      2      
iter:   9  14:14:30         -3.02  -143.954806    2      1      
iter:  10  14:14:31         -3.21  -143.955501    2      1      
iter:  11  14:14:31         -3.33  -143.956101    2      1      
iter:  12  14:14:32         -3.50  -143.955955    2      1      
iter:  13  14:14:32         -3.71  -143.956557    2      1      
iter:  14  14:14:33         -3.80  -143.956495    2      1      
iter:  15  14:14:33         -3.97  -143.956232    2      1      
iter:  16  14:14:33         -4.15  -143.956395    2      1      

Converged after 16 iterations.

Dipole moment: (0.251149, 0.609582, -0.267633) |e|*Ang

Energy contributions relative to reference atoms: (reference = -24663.074771)

Kinetic:       +116.842790
Potential:     -112.410439
External:        +0.000000
XC:            -150.880455
Entropy (-ST):   -0.383760
Local:           +2.683589
--------------------------
Free energy:   -144.148275
Extrapolated:  -143.956395

Fermi level: -4.93078

 Band  Eigenvalues  Occupancy
    0    -24.59666    2.00000
    1    -24.20128    2.00000
    2    -23.54857    2.00000
    3    -22.84284    2.00000
    4    -22.02310    2.00000
    5    -21.49892    2.00000
    6    -20.08729    2.00000
    7    -19.25629    2.00000
    8    -18.49280    2.00000
    9    -17.36065    2.00000
   10    -16.17437    2.00000
   11    -15.91723    2.00000
   12    -15.25255    2.00000
   13    -14.97478    2.00000
   14    -14.82145    2.00000
   15    -13.70686    2.00000
   16    -13.40369    2.00000
   17    -13.21192    2.00000
   18    -12.69863    2.00000
   19    -12.48019    2.00000
   20    -11.95820    2.00000
   21    -11.67168    2.00000
   22    -11.18987    2.00000
   23    -10.78017    2.00000
   24    -10.32001    2.00000
   25    -10.25344    2.00000
   26    -10.02718    2.00000
   27     -9.61603    2.00000
   28     -9.56255    2.00000
   29     -8.92332    2.00000
   30     -8.68099    2.00000
   31     -8.45789    2.00000
   32     -8.44239    2.00000
   33     -8.24002    2.00000
   34     -7.94741    2.00000
   35     -7.66754    2.00000
   36     -7.41101    2.00000
   37     -7.19121    2.00000
   38     -6.66418    2.00000
   39     -6.48213    2.00000
   40     -6.31065    2.00000
   41     -6.16086    1.99999
   42     -5.98696    1.99995
   43     -5.48774    1.99240
   44     -5.45815    1.98980
   45     -5.33271    1.96470
   46     -5.19475    1.86674
   47     -5.02863    1.45363
   48     -4.80894    0.45644
   49     -4.74742    0.27562
   50     -4.10674    0.00053
   51     -3.99584    0.00017
   52     -3.67973    0.00001
   53     -3.58502    0.00000
   54     -3.04283    0.00000
   55     -2.93100    0.00000
   56     -2.72022    0.00000
   57     -2.62662    0.00000
   58     -2.25059    0.00000
   59     -2.12048    0.00000
   60     -1.89572    0.00000
   61     -1.58746    0.00000
   62     -1.35378    0.00000
   63     -1.19227    0.00000
   64     -0.87061    0.00000
   65     -0.72444    0.00000
   66     -0.37457    0.00000
   67     -0.21938    0.00000
   68      0.14368    0.00000
   69      1.00059    0.00000
   70      1.13192    0.00000
   71      1.45811    0.00000
   72      1.73359    0.00000
   73      2.10595    0.00000
   74      2.47975    0.00000
   75      3.02999    0.00000
   76      3.10349    0.00000
   77      4.18874    0.00000
   78      4.94180    0.00000
   79      5.29899    0.00000
   80      5.79149    0.00000
   81      6.59506    0.00000
   82      6.90227    0.00000
   83      7.00587    0.00000
   84      7.23640    0.00000
   85      7.37651    0.00000
   86      7.57473    0.00000
   87      7.82643    0.00000
   88      8.10065    0.00000
   89      8.25939    0.00000
   90      8.47280    0.00000
   91      8.55149    0.00000
   92      8.63020    0.00000
   93      8.82056    0.00000
   94      9.11830    0.00000
   95      9.24188    0.00000
   96      9.31670    0.00000
   97      9.45668    0.00000


Forces in eV/Ang:
  0 C    -2.83195   -2.60497    1.41477
  1 C    -2.37514   -2.45631   -0.56041
  2 C    -2.31196   -2.70823    0.19848
  3 C     0.41618    4.46584   -3.93449
  4 C     3.30435    1.32961   -0.90764
  5 C    -3.78334   -0.82328    0.20719
  6 C    -2.94810    2.26965    0.84613
  7 C    -0.59571   -1.18372   -1.03359
  8 C     2.37707    0.79038   -1.22336
  9 C     3.54644   -1.74714    1.25648
 10 C    -2.72188    0.67576   -3.36027
 11 C     2.97064   -0.15045   -1.36508
 12 C    -1.59470   -0.61954   -0.55656
 13 C    -3.29148   -0.72063    0.25611
 14 C    -0.14328    1.94470   -0.39252
 15 C     0.82898   -3.27864   -1.18150
 16 C    -2.64407   -0.52685    5.19657
 17 C    -1.04131   -0.97358   -1.21218
 18 C     6.40281   -0.59575    1.33847
 19 C     0.47399   -2.30764    1.30002
 20 C     2.74362   -0.82977    3.76717
 21 C     1.62032    3.97687    0.64646
 22 C     1.06387    3.41287   -1.71867
 23 C     0.58150    2.68948    1.15101

System changes: positions 

Initializing position-dependent things.

[...]
    5    -20.26802    2.00000
    6    -19.75042    2.00000
    7    -19.39451    2.00000
    8    -18.47760    2.00000
    9    -18.22702    2.00000
   10    -17.28383    2.00000
   11    -17.13139    2.00000
   12    -16.31165    2.00000
   13    -15.89016    2.00000
   14    -15.25839    2.00000
   15    -14.92417    2.00000
   16    -14.35504    2.00000
   17    -13.68765    2.00000
   18    -13.40461    2.00000
   19    -13.22302    2.00000
   20    -12.77455    2.00000
   21    -11.83045    2.00000
   22    -11.23275    2.00000
   23    -10.77377    2.00000
   24    -10.68401    2.00000
   25    -10.53235    2.00000
   26    -10.46441    2.00000
   27    -10.10433    2.00000
   28     -9.83891    2.00000
   29     -9.72322    2.00000
   30     -9.47794    2.00000
   31     -9.16574    2.00000
   32     -8.90881    2.00000
   33     -8.82897    2.00000
   34     -8.39777    2.00000
   35     -7.84168    2.00000
   36     -7.65232    2.00000
   37     -7.35242    2.00000
   38     -7.23164    2.00000
   39     -6.74712    2.00000
   40     -6.53713    2.00000
   41     -6.21224    2.00000
   42     -5.78281    2.00000
   43     -5.69191    1.99999
   44     -5.48951    1.99992
   45     -5.17264    1.99800
   46     -4.93666    1.97904
   47     -4.61061    1.56742
   48     -4.35971    0.45531
   49     -3.60590    0.00031
   50     -3.30815    0.00002
   51     -2.78764    0.00000
   52     -2.62157    0.00000
   53     -2.17451    0.00000
   54     -1.99803    0.00000
   55     -1.62412    0.00000
   56     -1.13576    0.00000
   57     -1.10812    0.00000
   58     -0.85842    0.00000
   59     -0.18973    0.00000
   60      0.71536    0.00000
   61      1.47624    0.00000
   62      2.21917    0.00000
   63      2.52698    0.00000
   64      2.77634    0.00000
   65      2.86198    0.00000
   66      3.40631    0.00000
   67      3.98422    0.00000
   68      4.48055    0.00000
   69      4.62244    0.00000
   70      4.73305    0.00000
   71      4.80437    0.00000
   72      5.96263    0.00000
   73      6.01958    0.00000
   74      6.24274    0.00000
   75      6.54923    0.00000
   76      6.80118    0.00000
   77      7.17108    0.00000
   78      7.49919    0.00000
   79      7.87022    0.00000
   80      7.95408    0.00000
   81      8.30588    0.00000
   82      8.39433    0.00000
   83      8.60744    0.00000
   84      8.73099    0.00000
   85      8.87576    0.00000
   86      9.04995    0.00000
   87      9.07761    0.00000
   88      9.32871    0.00000
   89      9.40075    0.00000
   90      9.50760    0.00000
   91      9.62470    0.00000
   92      9.73612    0.00000
   93      9.76821    0.00000
   94      9.99806    0.00000
   95     10.08233    0.00000
   96     10.16445    0.00000
   97     10.29585    0.00000


Forces in eV/Ang:
  0 C     0.07525   -0.07590    0.00909
  1 C    -0.03290    0.04552   -0.00437
  2 C     0.08380   -0.06120   -0.02319
  3 C     0.00600   -0.00611    0.01149
  4 C    -0.03179   -0.00013   -0.03100
  5 C     0.03653   -0.00853    0.00142
  6 C     0.03328   -0.05698    0.02693
  7 C    -0.03247   -0.02570    0.04024
  8 C     0.05323   -0.00514    0.09298
  9 C    -0.07977    0.08775   -0.02949
 10 C     0.09903   -0.00643   -0.03487
 11 C    -0.08084    0.01395   -0.04985
 12 C     0.08500   -0.03468    0.13065
 13 C     0.03094    0.07917   -0.04571
 14 C    -0.06289   -0.09282   -0.00415
 15 C    -0.02651    0.02433   -0.05368
 16 C    -0.07808    0.06546    0.02952
 17 C     0.02876   -0.03244   -0.02551
 18 C    -0.07514    0.01203    0.02739
 19 C    -0.05376   -0.03207   -0.02820
 20 C     0.04702    0.15203   -0.04911
 21 C    -0.00554    0.01385   -0.02036
 22 C     0.02250   -0.00411    0.06957
 23 C    -0.05531   -0.14968   -0.02078

System changes: positions 

Initializing position-dependent things.

Density initialized from wave functions
           .--------------------------------------.  
          /|                                      |  
         / |                                      |  
        /  |                                      |  
       /   |                                      |  
      /    |                                      |  
     /     |                                      |  
    /      |                                      |  
   /       |                                      |  
  /        |               C  C                   |  
 *         |   C C   C  C      CC                 |  
 |         |   C  C  C  C  C  C                   |  
 |         .--------CC---------C------------------.  
 |        /       C    CC C  C                   /   
 |       /       C   C                          /    
 |      /                                      /     
 |     /                                      /      
 |    /                                      /       
 |   /                                      /        
 |  /                                      /         
 | /                                      /          
 |/                                      /           
 *--------------------------------------*            

Positions:
   0 C      5.987734    9.043860    4.865779
   1 C      8.583923    3.332658    5.493836
   2 C      9.720546    9.384323    4.803987
   3 C      7.565853   11.841095    4.317387
   4 C      8.571522    8.480000    4.908487
   5 C      9.947779    8.020792    4.936727
   6 C      7.321275    3.379387    4.797185
   7 C      6.535729    5.626374    5.020781
   8 C      7.714351    4.799872    4.586619
   9 C      9.121570    4.566488    4.959607
  10 C      3.489504    9.177785    4.808170
  11 C      7.229752    8.227556    4.916054
  12 C      3.984770   10.365951    4.597393
  13 C      5.633099    4.531999    5.298489
  14 C      5.439430   10.350953    4.592112
  15 C      8.876350   11.554198    4.424429
  16 C      6.398804   11.367483    4.402037
  17 C      5.159044    7.870179    5.107363
  18 C      9.857643   10.753982    4.578652
  19 C      5.912301    3.280828    5.055112
  20 C      3.742509    7.905442    5.129618
  21 C     10.458627    6.729952    4.993683
  22 C     10.119991    5.519416    5.040541
  23 C      6.366255    7.008756    5.078966

Unit cell:
           periodic     x           y           z      points  spacing
  1. axis:    yes   16.000000    0.000000    0.000000    80     0.2000
  2. axis:    yes    0.000000   16.000000    0.000000    80     0.2000
  3. axis:    yes    0.000000    0.000000   10.000000    48     0.2083

Effective grid spacing dv^(1/3) = 0.2027

                     log10-error:    total        iterations:
           time      wfs    density  energy       fermi  poisson
iter:   1  14:28:37          +inf  -179.673391    3      5      
iter:   2  14:28:38         -2.22  -179.671286    3      2      
iter:   3  14:28:38         -2.69  -179.668721    2      1      
iter:   4  14:28:39         -2.75  -179.666740    2      2      
iter:   5  14:28:39         -2.96  -179.675264    2      2      
iter:   6  14:28:40         -2.74  -179.663004    3      2      
iter:   7  14:28:40         -2.68  -179.669571    2      1      
iter:   8  14:28:41         -3.49  -179.669112    2      1      
iter:   9  14:28:41         -3.17  -179.666792    2      1      
iter:  10  14:28:42         -3.85  -179.667537    2      1      
iter:  11  14:28:42         -3.92  -179.668283    2      1      
iter:  12  14:28:43         -3.68  -179.666865    2      1      
iter:  13  14:28:43         -3.88  -179.667426    2      1      
iter:  14  14:28:44         -4.26  -179.668278    2      1      

Converged after 14 iterations.

Dipole moment: (0.538985, 0.184692, -0.191250) |e|*Ang

Energy contributions relative to reference atoms: (reference = -24663.074771)

Kinetic:       +108.771537
Potential:     -114.544449
External:        +0.000000
XC:            -176.777093
Entropy (-ST):   -0.223670
Local:           +2.993562
--------------------------
Free energy:   -179.780113
Extrapolated:  -179.668278

Fermi level: -4.47648

 Band  Eigenvalues  Occupancy
    0    -23.48306    2.00000
    1    -23.01459    2.00000
    2    -22.46330    2.00000
    3    -20.94612    2.00000
    4    -20.66884    2.00000
    5    -20.26797    2.00000
    6    -19.75302    2.00000
    7    -19.38962    2.00000
    8    -18.47860    2.00000
    9    -18.21974    2.00000
   10    -17.28528    2.00000
   11    -17.13419    2.00000
   12    -16.30793    2.00000
   13    -15.89091    2.00000
   14    -15.25112    2.00000
   15    -14.91784    2.00000
   16    -14.35631    2.00000
   17    -13.71012    2.00000
   18    -13.42759    2.00000
   19    -13.22876    2.00000
   20    -12.78643    2.00000
   21    -11.82727    2.00000
   22    -11.22699    2.00000
   23    -10.79256    2.00000
   24    -10.69195    2.00000
   25    -10.53812    2.00000
   26    -10.45936    2.00000
   27    -10.10412    2.00000
   28     -9.84465    2.00000
   29     -9.72626    2.00000
   30     -9.48018    2.00000
   31     -9.17159    2.00000
   32     -8.90699    2.00000
   33     -8.82302    2.00000
   34     -8.40118    2.00000
   35     -7.83198    2.00000
   36     -7.65338    2.00000
   37     -7.34852    2.00000
   38     -7.23373    2.00000
   39     -6.76341    2.00000
   40     -6.54704    2.00000
   41     -6.21271    2.00000
   42     -5.76848    2.00000
   43     -5.67619    1.99999
   44     -5.48561    1.99992
   45     -5.15418    1.99772
   46     -4.94070    1.98091
   47     -4.60621    1.57076
   48     -4.35291    0.45038
   49     -3.59946    0.00031
   50     -3.29760    0.00002
   51     -2.75384    0.00000
   52     -2.60771    0.00000
   53     -2.17227    0.00000
   54     -2.00754    0.00000
   55     -1.62022    0.00000
   56     -1.14326    0.00000
   57     -1.12643    0.00000
   58     -0.84317    0.00000
   59     -0.18581    0.00000
   60      0.73180    0.00000
   61      1.49482    0.00000
   62      2.23339    0.00000
   63      2.50750    0.00000
   64      2.78596    0.00000
   65      2.85371    0.00000
   66      3.41964    0.00000
   67      3.99931    0.00000
   68      4.47546    0.00000
   69      4.59867    0.00000
   70      4.75823    0.00000
   71      4.81052    0.00000
   72      5.97691    0.00000
   73      6.02820    0.00000
   74      6.31578    0.00000
   75      6.55041    0.00000
   76      6.82369    0.00000
   77      7.20340    0.00000
   78      7.54389    0.00000
   79      7.92995    0.00000
   80      7.97086    0.00000
   81      8.33459    0.00000
   82      8.41151    0.00000
   83      8.62709    0.00000
   84      8.73451    0.00000
   85      8.89731    0.00000
   86      9.07880    0.00000
   87      9.09683    0.00000
   88      9.33532    0.00000
   89      9.41165    0.00000
   90      9.51355    0.00000
   91      9.63968    0.00000
   92      9.74488    0.00000
   93      9.77074    0.00000
   94     10.02032    0.00000
   95     10.09311    0.00000
   96     10.18304    0.00000
   97     10.29649    0.00000


Forces in eV/Ang:
  0 C     0.03245   -0.05811   -0.01370
  1 C     0.04420    0.04106    0.04936
  2 C    -0.02573   -0.00881   -0.00032
  3 C     0.02563   -0.01050    0.02550
  4 C     0.00111   -0.00171   -0.04476
  5 C     0.01662   -0.00236    0.00458
  6 C    -0.01594   -0.04175   -0.05298
  7 C    -0.01742   -0.01622   -0.00610
  8 C    -0.01078   -0.02974    0.02859
  9 C     0.02304    0.03077    0.04169
 10 C     0.01185   -0.01272    0.01630
 11 C    -0.03886   -0.01783   -0.02430
 12 C     0.06486    0.00898    0.09538
 13 C    -0.01745   -0.01292   -0.01599
 14 C    -0.05012   -0.07198    0.01445
 15 C    -0.00365    0.00910   -0.06900
 16 C    -0.00627    0.08195   -0.00058
 17 C     0.02284   -0.00426   -0.04140
 18 C    -0.00481    0.02080    0.01558
 19 C    -0.06288   -0.03079   -0.01714
 20 C     0.00425   -0.00928   -0.01573
 21 C     0.01051   -0.04475   -0.03015
 22 C     0.00835   -0.02594    0.04801
 23 C     0.00605   -0.01718   -0.02043

System changes: positions 

Initializing position-dependent things.

Density initialized from wave functions
           .--------------------------------------.  
          /|                                      |  
         / |                                      |  
        /  |                                      |  
       /   |                                      |  
      /    |                                      |  
     /     |                                      |  
    /      |                                      |  
   /       |                                      |  
  /        |               C  C                   |  
 *         |   C C   C  C      CC                 |  
 |         |   C  C  C  C  C  C                   |  
 |         .--------CC-------C-C------------------.  
 |        /       C    CC C                      /   
 |       /       C   C                          /    
 |      /                                      /     
 |     /                                      /      
 |    /                                      /       
 |   /                                      /        
 |  /                                      /         
 | /                                      /          
 |/                                      /           
 *--------------------------------------*            

Positions:
   0 C      5.988752    9.043438    4.863422
   1 C      8.580673    3.334335    5.503484
   2 C      9.721505    9.380944    4.800813
   3 C      7.564152   11.838793    4.313457
   4 C      8.572593    8.476473    4.904548
   5 C      9.947792    8.018003    4.936453
   6 C      7.320537    3.378046    4.800394
   7 C      6.536797    5.626146    5.016586
   8 C      7.715027    4.797719    4.587054
   9 C      9.121038    4.565636    4.965094
  10 C      3.489378    9.179550    4.819958
  11 C      7.230239    8.226525    4.909780
  12 C      3.986011   10.366462    4.603937
  13 C      5.633942    4.533144    5.295719
  14 C      5.439184   10.351118    4.591976
  15 C      8.874343   11.553152    4.421375
  16 C      6.395010   11.369702    4.395245
  17 C      5.160162    7.869728    5.104890
  18 C      9.854080   10.751014    4.574948
  19 C      5.910198    3.280344    5.054687
  20 C      3.744090    7.904226    5.127230
  21 C     10.461556    6.727274    4.998818
  22 C     10.118727    5.518071    5.047515
  23 C      6.367704    7.007898    5.072951

Unit cell:
           periodic     x           y           z      points  spacing
  1. axis:    yes   16.000000    0.000000    0.000000    80     0.2000
  2. axis:    yes    0.000000   16.000000    0.000000    80     0.2000
  3. axis:    yes    0.000000    0.000000   10.000000    48     0.2083

Effective grid spacing dv^(1/3) = 0.2027

                     log10-error:    total        iterations:
           time      wfs    density  energy       fermi  poisson
iter:   1  14:28:46          +inf  -179.663953    2      5      
iter:   2  14:28:46         -2.47  -179.667254    3      1      
iter:   3  14:28:46         -3.13  -179.669133    2      1      
iter:   4  14:28:47         -3.19  -179.666253    2      1      
iter:   5  14:28:47         -3.06  -179.675786    3      1      
iter:   6  14:28:48         -2.78  -179.676070    2      1      
iter:   7  14:28:48         -2.80  -179.668816    2      1      
iter:   8  14:28:49         -3.88  -179.669951    2      1      
iter:   9  14:28:49         -3.41  -179.668813    2      1      
iter:  10  14:28:50         -3.97  -179.668308    2      1      
iter:  11  14:28:50         -4.07  -179.669155    2      1      

Converged after 11 iterations.

Dipole moment: (0.539511, 0.186978, -0.189542) |e|*Ang

Energy contributions relative to reference atoms: (reference = -24663.074771)

Kinetic:       +108.891954
Potential:     -114.630832
External:        +0.000000
XC:            -176.808052
Entropy (-ST):   -0.225811
Local:           +2.990680
--------------------------
Free energy:   -179.782061
Extrapolated:  -179.669155

Fermi level: -4.47729

 Band  Eigenvalues  Occupancy
    0    -23.48384    2.00000
    1    -23.02118    2.00000
    2    -22.46240    2.00000
    3    -20.94678    2.00000
    4    -20.66769    2.00000
    5    -20.26571    2.00000
    6    -19.75280    2.00000
    7    -19.38612    2.00000
    8    -18.48245    2.00000
    9    -18.21543    2.00000
   10    -17.28265    2.00000
   11    -17.13323    2.00000
   12    -16.30509    2.00000
   13    -15.89333    2.00000
   14    -15.25178    2.00000
   15    -14.91042    2.00000
   16    -14.35622    2.00000
   17    -13.71116    2.00000
   18    -13.43090    2.00000
   19    -13.22936    2.00000
   20    -12.78986    2.00000
   21    -11.82623    2.00000
   22    -11.22777    2.00000
   23    -10.79627    2.00000
   24    -10.68839    2.00000
   25    -10.54050    2.00000
   26    -10.45859    2.00000
   27    -10.10381    2.00000
   28     -9.84224    2.00000
   29     -9.72490    2.00000
   30     -9.47879    2.00000
   31     -9.17009    2.00000
   32     -8.90837    2.00000
   33     -8.82146    2.00000
   34     -8.40162    2.00000
   35     -7.83072    2.00000
   36     -7.65235    2.00000
   37     -7.34866    2.00000
   38     -7.23234    2.00000
   39     -6.76254    2.00000
   40     -6.54813    2.00000
   41     -6.21491    2.00000
   42     -5.76688    1.99999
   43     -5.67207    1.99999
   44     -5.48378    1.99991
   45     -5.15592    1.99774
   46     -4.93898    1.98043
   47     -4.60481    1.56326
   48     -4.35600    0.45836
   49     -3.59515    0.00030
   50     -3.29618    0.00001
   51     -2.75462    0.00000
   52     -2.60645    0.00000
   53     -2.17350    0.00000
   54     -2.01208    0.00000
   55     -1.61756    0.00000
   56     -1.14446    0.00000
   57     -1.12315    0.00000
   58     -0.84047    0.00000
   59     -0.18769    0.00000
   60      0.72622    0.00000
   61      1.49893    0.00000
   62      2.23872    0.00000
   63      2.51461    0.00000
   64      2.78214    0.00000
   65      2.85481    0.00000
   66      3.42267    0.00000
   67      4.00547    0.00000
   68      4.47621    0.00000
   69      4.59984    0.00000
   70      4.76657    0.00000
   71      4.81853    0.00000
   72      5.98721    0.00000
   73      6.02932    0.00000
   74      6.33015    0.00000
   75      6.54769    0.00000
   76      6.82206    0.00000
   77      7.20001    0.00000
   78      7.55346    0.00000
   79      7.93240    0.00000
   80      7.97510    0.00000
   81      8.34097    0.00000
   82      8.41076    0.00000
   83      8.62907    0.00000
   84      8.73355    0.00000
   85      8.89990    0.00000
   86      9.08495    0.00000
   87      9.10136    0.00000
   88      9.33616    0.00000
   89      9.41485    0.00000
   90      9.51471    0.00000
   91      9.64400    0.00000
   92      9.75011    0.00000
   93      9.77162    0.00000
   94     10.02045    0.00000
   95     10.09239    0.00000
   96     10.18175    0.00000
   97     10.29868    0.00000


Forces in eV/Ang:
  0 C     0.02238   -0.04260   -0.02795
  1 C     0.03275    0.06166    0.02811
  2 C    -0.02666    0.02872   -0.00280
  3 C    -0.01334    0.00583    0.02755
  4 C    -0.02579    0.00344   -0.05712
  5 C     0.05263   -0.04856    0.00903
  6 C    -0.01763   -0.03958   -0.04566
  7 C    -0.01378   -0.01702    0.00191
  8 C    -0.00073   -0.03693    0.01549
  9 C    -0.00912   -0.01163    0.06768
 10 C     0.02992    0.01125   -0.00374
 11 C    -0.00637   -0.01768   -0.01369
 12 C     0.01590   -0.02527    0.08769
 13 C    -0.03067   -0.05600   -0.01001
 14 C    -0.03450   -0.07058    0.02129
 15 C     0.02751   -0.01046   -0.07589
 16 C     0.01911    0.07737    0.01538
 17 C     0.04592   -0.00607   -0.05063
 18 C    -0.00644    0.00490    0.02305
 19 C    -0.06196   -0.01414   -0.01589
 20 C     0.01176    0.01786   -0.01395
 21 C     0.00318   -0.00543   -0.02964
 22 C     0.03141   -0.00378    0.05142
 23 C    -0.01745   -0.00194   -0.00461

