
  ___ ___ ___ _ _ _  
 |   |   |_  | | | | 
 | | | | | . | | | | 
 |__ |  _|___|_____|  1.3.0b1
 |___|_|             

User:   esb@s65n12.grendel.cscaa.dk
Date:   Thu Nov  9 11:33:17 2017
Arch:   x86_64
Pid:    21121
Python: 2.7.13
gpaw:   /home/esb/DFT/gpaw_git/gpaw
_gpaw:  /home/esb/DFT/gpaw_git/build/bin.linux-x86_64-2.7/gpaw-python
ase:    /home/esb/DFT/ase_git/ase (version 3.15.0b1)
numpy:  /comm/swstack/core/python/2.7.13/lib/python2.7/site-packages/numpy (version 1.13.3)
scipy:  /comm/swstack/core/python/2.7.13/lib/python2.7/site-packages/scipy (version 0.19.1)
units:  Angstrom and eV
cores:  16
Extra parameters: {'blacs': True}

Input parameters:
  basis: dzp
  gpts: [80 80 48]
  kpts: [1 1 1]
  maxiter: 99
  mixer: {backend: pulay,
          beta: 0.05,
          method: separate,
          nmaxold: 5,
          weight: 75}
  mode: lcao
  nbands: -50
  occupations: {name: fermi-dirac,
                width: 0.1}
  poissonsolver: {eps: 1e-07,
                  name: fd,
                  nn: 3,
                  relax: GS}
  xc: PBE

System changes: positions, numbers, cell, pbc, initial_charges, initial_magmoms 

Initialize ...

C-setup:
  name: Carbon
  id: 4aa54d4b901d75f77cc0ea3eec22967b
  Z: 6
  valence: 4
  core: 2
  charge: 0.0
  file: /home/esb/DFT/gpaw-setups-0.8.7929/C.PBE.gz
  cutoffs: 0.64(comp), 1.14(filt), 1.14(core), lmax=2
  valence states:
                energy  radius
    2s(2.00)   -13.751   0.635
    2p(2.00)    -5.284   0.635
    *s          13.461   0.635
    *p          21.927   0.635
    *d           0.000   0.635

  LCAO basis set for C:
    Name: dzp
    File: /home/esb/DFT/gpaw-setups-0.8.7929/C.dzp.basis.gz
    Number of radial functions: 5
    Number of spherical harmonics: 13
      l=0, rc=5.5469 Bohr: 2s-sz confined orbital
      l=1, rc=6.6719 Bohr: 2p-sz confined orbital
      l=0, rc=3.0312 Bohr: 2s-dz split-valence wave
      l=1, rc=3.7500 Bohr: 2p-dz split-valence wave
      l=2, rc=6.6719 Bohr: d-type Gaussian polarization

Reference energy: -24663.074771

Spin-paired calculation

Occupation numbers:
  Fermi-Dirac: width=0.1000 eV

Convergence criteria:
  Maximum total energy change: 0.0005 eV / electron
  Maximum integral of absolute density change: 0.0001 electrons
  Maximum integral of absolute eigenstate change: 4e-08 eV^2
  Maximum number of iterations: 99

Symmetries present (total): 1

  ( 1  0  0)
  ( 0  1  0)
  ( 0  0  1)

1 k-point (Gamma)
1 k-point in the irreducible part of the Brillouin zone
       k-points in crystal coordinates                weights
   0:     0.00000000    0.00000000    0.00000000          1/1

Wave functions: LCAO
  Diagonalizer: Serial LAPACK
  Atomic Correction: dense with blas
  Datatype: float
  Eigensolver: None 

LCAO using direct dense diagonalizer 

Densities:
  Coarse grid: 80*80*48 grid
  Fine grid: 160*160*96 grid
  Total Charge: 0.000000 

Density mixing:
  Method: separate
  Backend: pulay
  Linear mixing parameter: 0.05
  Mixing with 5 old densities
  Damping of long wave oscillations: 75 

Hamiltonian:
  XC and Coulomb potentials evaluated on a 160*160*96 grid
  Using the PBE Exchange-Correlation functional
  Interpolation: tri-quintic (5. degree polynomial)
  Poisson solver: Gauss-Seidel solver with 6 multi-grid levels
    Coarsest grid: 5 x 5 x 3 points
    Stencil: 6*3+1=19 point O(h^6) finite-difference Laplacian
    Max iterations: 1000
    Tolerance: 1.000000e-07 

Memory estimate:
  Process memory now: 77.57 MiB
  Calculator: 15.59 MiB
    Density: 6.13 MiB
      Arrays: 3.81 MiB
      Localized functions: 0.86 MiB
      Mixer: 1.46 MiB
    Hamiltonian: 5.40 MiB
      Arrays: 2.49 MiB
      XC: 0.00 MiB
      Poisson: 2.85 MiB
      vbar: 0.07 MiB
    Wavefunctions: 4.05 MiB
      C [qnM]: 0.23 MiB
      S, T [2 x qmm]: 1.49 MiB
      P [aqMi]: 0.01 MiB
      TCI: 0.00 MiB
      BasisFunctions: 2.33 MiB
      Eigensolver: 0.00 MiB

Total number of cores used: 16
Domain decomposition: 2 x 4 x 2

Number of atoms: 24
Number of atomic orbitals: 312
Number of bands in calculation: 98
Bands to converge: occupied states only
Number of valence electrons: 96

... initialized

Initializing position-dependent things.

Density initialized from atomic densities
           .--------------------------------------.  
          /|                                      |  
         / |                                      |  
        /  |                                      |  
       /   |                                      |  
      /    |                                      |  
     /     |                                      |  
    /      |                                      |  
   /       |                                      |  
  /        |                                      |  
 *        C|C  C          C  C                    |  
 |         |      C  C  C  C    C                 |  
 |         .---C--C---C-------C-C-----------------.  
 |        /   C   C     C   C                    /   
 |       /   C      C  C   C C                  /    
 |      /                                      /     
 |     /                                      /      
 |    /                                      /       
 |   /                                      /        
 |  /                                      /         
 | /                                      /          
 |/                                      /           
 *--------------------------------------*            

Positions:
   0 C      4.214690    3.144905    5.337802
   1 C      4.187190    4.473572    5.215507
   2 C      5.161497    6.854795    4.894499
   3 C      4.415156    5.721384    5.084039
   4 C      4.736463    8.283314    4.961586
   5 C      5.892099    9.065230    4.743615
   6 C      1.050936    9.712789    5.163518
   7 C      3.437843    8.730295    5.114046
   8 C      2.293020    9.242548    5.189941
   9 C      7.545008    7.469398    5.484831
  10 C     10.359173    4.563178    4.382357
  11 C      7.252239    6.043942    5.461289
  12 C      8.744317    8.020017    5.153980
  13 C     10.366398    9.405956    4.387809
  14 C      9.626277    3.499931    4.446701
  15 C      7.036266    3.069328    4.960335
  16 C     10.796407    8.178112    4.309688
  17 C      9.878865    7.165717    4.772173
  18 C      9.646979    5.747938    4.760416
  19 C      8.238096    3.703530    4.855152
  20 C      8.269004    5.191823    5.106994
  21 C      7.809452   10.175471    4.986225
  22 C      9.016181    9.454922    4.850008
  23 C      5.843413    3.635617    5.220171

Unit cell:
           periodic     x           y           z      points  spacing
  1. axis:    yes   16.000000    0.000000    0.000000    80     0.2000
  2. axis:    yes    0.000000   16.000000    0.000000    80     0.2000
  3. axis:    yes    0.000000    0.000000   10.000000    48     0.2083

Effective grid spacing dv^(1/3) = 0.2027

                     log10-error:    total        iterations:
           time      wfs    density  energy       fermi  poisson
iter:   1  11:33:18          +inf  -171.890624    3      6      
iter:   2  11:33:19         -0.90  -170.809848    3      3      
iter:   3  11:33:19         -0.94  -168.982030    3      3      
iter:   4  11:33:20         -1.05  -167.998113    34     3      
iter:   5  11:33:20         -1.23  -167.782431    34     3      
iter:   6  11:33:21         -1.46  -167.686164    4      3      
iter:   7  11:33:22         -1.64  -167.690297    3      3      
iter:   8  11:33:22         -1.81  -167.668174    3      2      
iter:   9  11:33:23         -1.92  -167.645521    3      2      
iter:  10  11:33:23         -2.08  -167.628293    3      2      
iter:  11  11:33:24         -2.30  -167.625529    3      2      
iter:  12  11:33:24         -2.46  -167.628156    3      2      
iter:  13  11:33:25         -2.74  -167.622677    3      2      
iter:  14  11:33:25         -2.82  -167.618920    2      2      
iter:  15  11:33:26         -3.10  -167.619341    2      1      
iter:  16  11:33:26         -3.19  -167.622240    2      1      
iter:  17  11:33:27         -3.35  -167.619771    2      1      
iter:  18  11:33:27         -3.43  -167.614207    2      1      
iter:  19  11:33:28         -3.63  -167.619166    2      1      
iter:  20  11:33:28         -3.71  -167.620246    2      1      
iter:  21  11:33:29         -3.80  -167.618952    2      1      
iter:  22  11:33:29         -3.92  -167.622050    2      1      
iter:  23  11:33:30         -4.18  -167.619565    2      1      

Converged after 23 iterations.

Dipole moment: (-1.651614, -0.065386, -0.015879) |e|*Ang

Energy contributions relative to reference atoms: (reference = -24663.074771)

Kinetic:        +89.471492
Potential:     -100.027386
External:        +0.000000
XC:            -159.796061
Entropy (-ST):   -0.330884
Local:           +2.897831
--------------------------
Free energy:   -167.785007
Extrapolated:  -167.619565

Fermi level: -4.69853

 Band  Eigenvalues  Occupancy
    0    -22.60243    2.00000
    1    -22.01745    2.00000
    2    -21.62028    2.00000
    3    -21.23745    2.00000
    4    -20.06532    2.00000
    5    -19.85458    2.00000
    6    -19.75860    2.00000
    7    -18.94960    2.00000
    8    -18.54245    2.00000
    9    -17.78872    2.00000
   10    -17.20063    2.00000
   11    -17.13674    2.00000
   12    -16.63136    2.00000
   13    -15.96427    2.00000
   14    -15.02823    2.00000
   15    -14.69084    2.00000
   16    -14.47597    2.00000
   17    -13.79333    2.00000
   18    -13.29474    2.00000
   19    -12.65088    2.00000
   20    -12.44884    2.00000
   21    -11.36231    2.00000
   22    -11.22580    2.00000
   23    -10.84625    2.00000
   24    -10.36486    2.00000
   25    -10.26788    2.00000
   26    -10.01832    2.00000
   27     -9.82965    2.00000
   28     -9.60855    2.00000
   29     -9.42073    2.00000
   30     -9.07567    2.00000
   31     -8.59724    2.00000
   32     -8.38085    2.00000
   33     -8.02220    2.00000
   34     -7.86009    2.00000
   35     -7.62415    2.00000
   36     -7.25019    2.00000
   37     -6.69874    2.00000
   38     -6.52938    2.00000
   39     -6.48606    2.00000
   40     -6.31407    2.00000
   41     -6.17113    2.00000
   42     -6.06877    2.00000
   43     -5.99289    2.00000
   44     -5.67861    1.99989
   45     -5.34992    1.99704
   46     -5.08204    1.95772
   47     -4.78364    1.40162
   48     -4.55992    0.40008
   49     -4.48588    0.21310
   50     -4.24057    0.02031
   51     -4.16440    0.00953
   52     -3.89366    0.00064
   53     -3.69283    0.00009
   54     -3.22198    0.00000
   55     -2.87863    0.00000
   56     -2.47902    0.00000
   57     -2.12212    0.00000
   58     -2.07214    0.00000
   59     -1.25089    0.00000
   60     -0.51871    0.00000
   61     -0.06687    0.00000
   62      0.07341    0.00000
   63      0.56901    0.00000
   64      1.64160    0.00000
   65      2.21055    0.00000
   66      2.33468    0.00000
   67      2.61282    0.00000
   68      2.85290    0.00000
   69      3.33629    0.00000
   70      3.55652    0.00000
   71      4.04899    0.00000
   72      4.73166    0.00000
   73      5.05918    0.00000
   74      5.43859    0.00000
   75      5.73272    0.00000
   76      5.86542    0.00000
   77      6.59610    0.00000
   78      6.99444    0.00000
   79      7.59971    0.00000
   80      7.86480    0.00000
   81      7.94934    0.00000
   82      8.09354    0.00000
   83      8.21594    0.00000
   84      8.61982    0.00000
   85      8.64884    0.00000
   86      8.88720    0.00000
   87      9.03260    0.00000
   88      9.06967    0.00000
   89      9.26661    0.00000
   90      9.34882    0.00000
   91      9.51097    0.00000
   92      9.60494    0.00000
   93      9.66689    0.00000
   94      9.91289    0.00000
   95     10.02969    0.00000
   96     10.12188    0.00000
   97     10.14219    0.00000


Forces in eV/Ang:
  0 C     3.53320   -0.33301    0.16461
  1 C     0.74246   -1.54705   -0.10635
  2 C    -3.56881   -3.86622    1.23465
  3 C     1.54903    6.96876   -1.32965
  4 C     1.04428   -0.85098    0.41318
  5 C     3.09566   -0.23472    0.25883
  6 C    -0.49725    0.20737    0.05046
  7 C     2.91263   -1.06801   -0.40931
  8 C    -1.95244    0.81874    0.15432
  9 C    -1.67242   -2.18194   -0.48001
 10 C    -0.50077   -1.04785   -0.13792
 11 C    -0.03461    4.28268    0.11682
 12 C    -0.62757   -0.51434   -0.03821
 13 C     1.40236   -1.12108   -0.35298
 14 C    -0.50740    0.04819    0.35496
 15 C    -2.46629    1.49996    0.21172
 16 C    -0.21365    1.41591    0.04972
 17 C    -0.15441   -1.39387    0.01901
 18 C    -0.48276    1.23569    0.32281
 19 C     2.56456    0.38573   -0.57544
 20 C     0.66753    1.17378   -0.31556
 21 C     0.77118    0.31218   -0.13502
 22 C    -2.79736    0.49594    0.28474
 23 C    -2.73561   -4.63314    0.13739

System changes: positions 

Initializing position-dependent things.

Density initialized from wave functions
           .--------------------------------------.  
          /|                                      |  
         / |                                      |  
        /  |                                      |  
       /   |                                      |  
      /    |                                      |  
     /     |                                      |  
    /      |                                      |  
   /       |                                      |  
  /        |                                      |  
 *        C|C  C          C  C                    |  
 |         |      C  C  C  C    C                 |  
 |         .---C--C---C-------C-C-----------------.  
 |        /   C  C      C   C                    /   
 |       /   C      C  C   C C                  /    
 |      /                                      /     
 |     /                                      /      
 |    /                                      /       
 |   /                                      /        
 |  /                                      /         
 | /                                      /          
 |/                                      /           
 *--------------------------------------*            

Positions:
   0 C      4.234153    3.143071    5.338709
   1 C      4.191280    4.465050    5.214921
   2 C      5.141839    6.833498    4.901300
   3 C      4.423688    5.759771    5.076714
   4 C      4.742215    8.278627    4.963862
   5 C      5.909151    9.063937    4.745041
   6 C      1.048197    9.713931    5.163796
   7 C      3.453887    8.724412    5.111791
   8 C      2.282266    9.247058    5.190791
   9 C      7.535796    7.457378    5.482187
  10 C     10.356415    4.557406    4.381598
  11 C      7.252048    6.067533    5.461933
  12 C      8.740860    8.017184    5.153769
  13 C     10.374123    9.399781    4.385865
  14 C      9.623482    3.500197    4.448656
  15 C      7.022681    3.077590    4.961501
  16 C     10.795231    8.185911    4.309961
  17 C      9.878015    7.158039    4.772278
  18 C      9.644320    5.754745    4.762194
  19 C      8.252222    3.705655    4.851982
  20 C      8.272681    5.198289    5.105256
  21 C      7.813700   10.177191    4.985482
  22 C      9.000772    9.457654    4.851577
  23 C      5.828344    3.610095    5.220928

Unit cell:
           periodic     x           y           z      points  spacing
  1. axis:    yes   16.000000    0.000000    0.000000    80     0.2000
  2. axis:    yes    0.000000   16.000000    0.000000    80     0.2000
  3. axis:    yes    0.000000    0.000000   10.000000    48     0.2083

Effective grid spacing dv^(1/3) = 0.2027

                     log10-error:    total        iterations:
           time      wfs    density  energy       fermi  poisson
iter:   1  11:33:31          +inf  -168.761295    3      5      
iter:   2  11:33:32         -1.72  -168.608611    3      2      
iter:   3  11:33:32         -2.05  -168.580372    3      2      
iter:   4  11:33:33         -2.18  -168.560756    3      2      
iter:   5  11:33:33         -2.35  -168.554604    3      2      
iter:   6  11:33:34         -2.52  -168.552404    3      2      
iter:   7  11:33:34         -2.73  -168.552863    2      2      
iter:   8  11:33:35         -2.84  -168.552819    2      2      
iter:   9  11:33:35         -3.04  -168.553168    2      2      
iter:  10  11:33:36         -3.25  -168.552612    2      1      
iter:  11  11:33:36         -3.41  -168.552990    2      1      
iter:  12  11:33:37         -3.54  -168.552842    2      1      
iter:  13  11:33:37         -3.70  -168.552549    2      1      
iter:  14  11:33:38         -3.86  -168.553190    2      1      
iter:  15  11:33:38         -3.93  -168.553350    2      1      
iter:  16  11:33:39         -4.07  -168.553054    2      1      

Converged after 16 iterations.

Dipole moment: (-1.654231, -0.171203, -0.011839) |e|*Ang

Energy contributions relative to reference atoms: (reference = -24663.074771)

Kinetic:        +88.477470
Potential:      -99.525636
External:        +0.000000
XC:            -160.233786
Entropy (-ST):   -0.322688
Local:           +2.890243
--------------------------
Free energy:   -168.714398
Extrapolated:  -168.553054

Fermi level: -4.67432

 Band  Eigenvalues  Occupancy
    0    -22.59257    2.00000
    1    -21.99125    2.00000
    2    -21.65149    2.00000
    3    -21.28122    2.00000
    4    -20.07367    2.00000
    5    -19.80930    2.00000
    6    -19.67743    2.00000
    7    -18.98506    2.00000
    8    -18.76114    2.00000
    9    -17.81193    2.00000
   10    -17.26403    2.00000
   11    -17.07772    2.00000
   12    -16.68499    2.00000
   13    -15.97589    2.00000
   14    -14.99648    2.00000
   15    -14.66609    2.00000
   16    -14.46456    2.00000
   17    -13.75642    2.00000
   18    -13.32954    2.00000
   19    -12.75966    2.00000
   20    -12.52571    2.00000
   21    -11.36634    2.00000
   22    -11.21035    2.00000
   23    -10.89580    2.00000
   24    -10.38436    2.00000
   25    -10.27663    2.00000
   26     -9.99734    2.00000
   27     -9.83293    2.00000
   28     -9.59668    2.00000
   29     -9.41462    2.00000
   30     -9.07588    2.00000
   31     -8.78262    2.00000
   32     -8.29735    2.00000
   33     -8.07953    2.00000
   34     -7.89861    2.00000
   35     -7.58123    2.00000
   36     -7.32965    2.00000
   37     -6.72619    2.00000
   38     -6.52507    2.00000
   39     -6.40875    2.00000
   40     -6.33630    2.00000
   41     -6.20917    2.00000
   42     -6.11664    2.00000
   43     -6.05281    2.00000
   44     -5.70962    1.99994
   45     -5.35997    1.99790
   46     -5.19031    1.98858
   47     -4.75085    1.36498
   48     -4.52868    0.37803
   49     -4.47363    0.23697
   50     -4.23808    0.02517
   51     -4.12138    0.00791
   52     -3.83908    0.00047
   53     -3.63320    0.00006
   54     -3.13760    0.00000
   55     -2.77382    0.00000
   56     -2.36258    0.00000
   57     -1.97933    0.00000
   58     -1.95654    0.00000
   59     -1.17962    0.00000
   60     -0.51957    0.00000
   61     -0.08717    0.00000
   62      0.00304    0.00000
   63      0.54521    0.00000
   64      1.62202    0.00000
   65      2.18390    0.00000
   66      2.24951    0.00000
   67      2.64437    0.00000
   68      3.06269    0.00000
   69      3.35832    0.00000
   70      3.52607    0.00000
   71      3.99634    0.00000
   72      4.78658    0.00000
   73      4.94420    0.00000
   74      5.50911    0.00000
   75      5.62688    0.00000
   76      5.90403    0.00000
   77      6.59744    0.00000
   78      6.96991    0.00000
   79      7.56183    0.00000
   80      7.89418    0.00000
   81      7.93127    0.00000
   82      8.16273    0.00000
   83      8.25103    0.00000
   84      8.60321    0.00000
   85      8.64939    0.00000
   86      8.96379    0.00000
   87      9.03616    0.00000
   88      9.07193    0.00000
   89      9.29016    0.00000
   90      9.41042    0.00000
   91      9.50692    0.00000
   92      9.66106    0.00000
   93      9.68464    0.00000
   94      9.85268    0.00000
   95      9.95352    0.00000
   96     10.10899    0.00000
   97     10.12830    0.00000


Forces in eV/Ang:
  0 C     3.24033   -0.13868    0.15023
  1 C     1.28611    0.71676   -0.31751
  2 C    -2.31245   -1.15079    0.90813
  3 C    -0.29633    1.66046   -0.66328
  4 C     1.70089   -0.78725    0.25215
  5 C     2.79315   -0.42734    0.34711
  6 C    -0.77197    0.30631    0.03860
  7 C     0.75807   -0.11523   -0.22560
  8 C     0.24603   -0.09183    0.03108
  9 C    -1.25684   -1.39187   -0.54392
 10 C    -0.35868   -0.55882   -0.09192
 11 C     0.32165    3.17687   -0.04526
 12 C    -0.70378   -0.53400   -0.01726
 13 C     0.52402   -0.37298   -0.11824
 14 C    -0.32389   -0.24935    0.22737
 15 C    -1.38322    1.65810    0.16171
 16 C    -0.07548    0.48991    0.09939
 17 C    -0.14612   -0.61262   -0.02676
 18 C    -0.35496    0.60476    0.21757
 19 C     1.19475    0.28635   -0.28822
 20 C     0.27992    1.19118   -0.16431
 21 C     0.27612    0.52645   -0.12627
 22 C    -1.73813    0.04672    0.09379
 23 C    -2.79000   -4.18037    0.07127

System changes: positions 

Initializing position-dependent things.

Density initialized from wave functions
           .--------------------------------------.  
          /|                                      |  
         / |                                      |  
        /  |                                      |  
       /   |                                      |  
      /    |                                      |  
     /     |                                      |  
    /      |                                      |  
   /       |                                      |  
  /        |                                      |  
 *        C|C  C          C  C                    |  
 |         |      C  C  C  C    C                 |  
 |         .---C--C---C-------C-C-----------------.  
 |        /   C  C      C   C                    /   
 |       /   C      C  C   C C                  /    
 |      /                                      /     
 |     /                                      /      
 |    /                                      /       
 |   /                                      /        
 |  /                                      /         
 | /                                      /          
 |/                                      /           
 *--------------------------------------*            

Positions:
   0 C      4.259892    3.142093    5.339901
   1 C      4.201946    4.472333    5.212235
   2 C      5.124185    6.826140    4.908347
   3 C      4.420056    5.769439    5.071860
   4 C      4.756279    8.272368    4.965771
   5 C      5.931304    9.060385    4.747880
   6 C      1.041829    9.716451    5.164097
   7 C      3.458485    8.724140    5.110111
   8 C      2.285736    9.245701    5.190956
   9 C      7.526018    7.446776    5.477790
  10 C     10.353640    4.553266    4.380893
  11 C      7.254866    6.092209    5.461460
  12 C      8.735174    8.012895    5.153645
  13 C     10.377718    9.397306    4.385079
  14 C      9.621015    3.497997    4.450389
  15 C      7.012347    3.090971    4.962762
  16 C     10.794721    8.189201    4.310791
  17 C      9.876851    7.153668    4.772032
  18 C      9.641565    5.759155    4.763864
  19 C      8.260851    3.707879    4.849871
  20 C      8.274657    5.207836    5.104044
  21 C      7.815573   10.181551    4.984477
  22 C      8.987581    9.457721    4.852197
  23 C      5.805973    3.576940    5.221453

Unit cell:
           periodic     x           y           z      points  spacing
  1. axis:    yes   16.000000    0.000000    0.000000    80     0.2000
  2. axis:    yes    0.000000   16.000000    0.000000    80     0.2000
  3. axis:    yes    0.000000    0.000000   10.000000    48     0.2083

Effective grid spacing dv^(1/3) = 0.2027

                     log10-error:    total        iterations:
           time      wfs    density  energy       fermi  poisson
iter:   1  11:33:40          +inf  -169.365106    3      5      
iter:   2  11:33:41         -1.74  -169.227599    3      2      
iter:   3  11:33:41         -2.05  -169.193384    3      2      
iter:   4  11:33:42         -2.25  -169.180007    3      2      
iter:   5  11:33:42         -2.46  -169.176826    3      2      
iter:   6  11:33:43         -2.61  -169.174247    3      2      
iter:   7  11:33:43         -2.85  -169.172108    2      1      
iter:   8  11:33:44         -2.93  -169.175087    2      2      
iter:   9  11:33:44         -3.13  -169.173072    2      1      
iter:  10  11:33:45         -3.32  -169.172071    2      1      
iter:  11  11:33:45         -3.49  -169.175763    2      1      
iter:  12  11:33:46         -3.59  -169.175937    2      1      
iter:  13  11:33:46         -3.73  -169.174786    2      1      
iter:  14  11:33:47         -3.89  -169.175519    2      1      
iter:  15  11:33:47         -3.95  -169.175856    2      1      
iter:  16  11:33:48         -4.11  -169.175032    2      1      

Converged after 16 iterations.

Dipole moment: (-1.726739, -0.198934, -0.006027) |e|*Ang

Energy contributions relative to reference atoms: (reference = -24663.074771)

Kinetic:        +89.229634
Potential:     -100.273369
External:        +0.000000
XC:            -160.864334
Entropy (-ST):   -0.329232
Local:           +2.897653
--------------------------
Free energy:   -169.339648
Extrapolated:  -169.175032

Fermi level: -4.65343

 Band  Eigenvalues  Occupancy
    0    -22.57886    2.00000
    1    -21.94460    2.00000
    2    -21.69064    2.00000
    3    -21.30107    2.00000
    4    -20.12822    2.00000
    5    -19.78267    2.00000
    6    -19.65668    2.00000
    7    -18.99290    2.00000
    8    -18.84015    2.00000
    9    -17.81548    2.00000
   10    -17.29473    2.00000
   11    -17.03010    2.00000
   12    -16.71075    2.00000
   13    -16.03278    2.00000
   14    -14.99397    2.00000
   15    -14.64731    2.00000
   16    -14.42778    2.00000
   17    -13.70925    2.00000
   18    -13.33825    2.00000
   19    -12.84265    2.00000
   20    -12.57157    2.00000
   21    -11.35046    2.00000
   22    -11.16225    2.00000
   23    -10.88805    2.00000
   24    -10.39448    2.00000
   25    -10.27799    2.00000
   26     -9.97891    2.00000
   27     -9.84329    2.00000
   28     -9.59148    2.00000
   29     -9.41065    2.00000
   30     -9.08715    2.00000
   31     -8.96125    2.00000
   32     -8.32479    2.00000
   33     -8.11758    2.00000
   34     -7.94189    2.00000
   35     -7.57671    2.00000
   36     -7.37932    2.00000
   37     -6.73770    2.00000
   38     -6.51916    2.00000
   39     -6.45661    2.00000
   40     -6.33198    2.00000
   41     -6.20083    2.00000
   42     -6.12054    2.00000
   43     -6.07364    2.00000
   44     -5.68253    1.99993
   45     -5.37020    1.99846
   46     -5.24259    1.99449
   47     -4.72012    1.32163
   48     -4.51059    0.38672
   49     -4.46500    0.26381
   50     -4.22136    0.02623
   51     -4.10527    0.00829
   52     -3.79665    0.00038
   53     -3.61676    0.00006
   54     -3.06480    0.00000
   55     -2.74741    0.00000
   56     -2.30514    0.00000
   57     -1.88097    0.00000
   58     -1.75461    0.00000
   59     -1.11565    0.00000
   60     -0.51543    0.00000
   61     -0.01937    0.00000
   62      0.07334    0.00000
   63      0.60033    0.00000
   64      1.57596    0.00000
   65      2.15379    0.00000
   66      2.26223    0.00000
   67      2.69596    0.00000
   68      3.36664    0.00000
   69      3.50918    0.00000
   70      3.53160    0.00000
   71      3.99918    0.00000
   72      4.71801    0.00000
   73      5.02433    0.00000
   74      5.54937    0.00000
   75      5.62360    0.00000
   76      5.94926    0.00000
   77      6.59610    0.00000
   78      6.96790    0.00000
   79      7.48977    0.00000
   80      7.86436    0.00000
   81      7.96356    0.00000
   82      8.13178    0.00000
   83      8.24374    0.00000
   84      8.58179    0.00000
   85      8.66776    0.00000
   86      8.97265    0.00000
   87      9.04262    0.00000
   88      9.09027    0.00000
   89      9.29598    0.00000
   90      9.42093    0.00000
   91      9.50298    0.00000
   92      9.65436    0.00000
   93      9.68897    0.00000
   94      9.79425    0.00000
   95      9.91573    0.00000
   96     10.06140    0.00000
   97     10.12184    0.00000


Forces in eV/Ang:
  0 C     3.02474    0.40331    0.09862
  1 C     1.13355    0.17978   -0.23119
  2 C    -1.51465    0.12990    0.74694
  3 C    -0.98635    0.24028   -0.43850
  4 C     1.55770   -0.37816    0.20945
  5 C     2.60608   -0.62163    0.47721
  6 C    -0.23184    0.10256    0.04372
  7 C     1.02946   -0.16500   -0.26307
  8 C    -0.17883    0.06802    0.00640
  9 C    -0.93896   -0.32324   -0.58252
 10 C    -0.32100   -0.39367   -0.06466
 11 C     0.26450    1.93355   -0.17635
 12 C    -0.58116   -0.42222   -0.07944
 13 C     0.01869   -0.07331    0.05179
 14 C    -0.03206   -0.27287    0.11265
 15 C    -0.60169    1.61493    0.11549
 16 C    -0.04003    0.12356    0.11772
 17 C    -0.20449   -0.10780   -0.00673
 18 C    -0.25227    0.23429    0.14961
 19 C     0.09495    0.40239   -0.04519
 20 C     0.07396    0.90128   -0.09277
 21 C    -0.14905    0.69097   -0.14203
 22 C    -1.04293   -0.35150   -0.04802
 23 C    -2.68470   -3.88338    0.00547

System changes: positions 

Initializing position-dependent things.

Density initialized from wave functions
           .--------------------------------------.  
          /|                                      |  
         / |                                      |  
        /  |                                      |  
       /   |                                      |  
      /    |                                      |  
     /     |                                      |  
    /      |                                      |  
   /       |                                      |  
  /        |                                      |  
 *        C|C  C          C  C                    |  
 |         |      C  C  C  C    C                 |  
 |         .---C--C----C------C-C-----------------.  
 |        /   C         C   C                    /   
 |       /   C   C  C  C   C C                  /    
 |      /                                      /     
 |     /                                      /      
 |    /                                      /       
 |   /                                      /        
 |  /                                      /         
 | /                                      /          
 |/                                      /           
 *--------------------------------------*            

Positions:
   0 C      4.285544    3.145527    5.340732
   1 C      4.211299    4.472898    5.210375
   2 C      5.111043    6.826438    4.914758
   3 C      4.412291    5.773230    5.067939
   4 C      4.769177    8.269219    4.967596
   5 C      5.953424    9.055166    4.751905
   6 C      1.040070    9.717244    5.164472
   7 C      3.468057    8.722374    5.107810
   8 C      2.283313    9.246651    5.191052
   9 C      7.517977    7.443935    5.472881
  10 C     10.350878    4.549781    4.380334
  11 C      7.256958    6.108757    5.460006
  12 C      8.730310    8.009352    5.152954
  13 C     10.378119    9.396456    4.385458
  14 C      9.620726    3.495798    4.451370
  15 C      7.006989    3.104560    4.963749
  16 C     10.794336    8.190531    4.311771
  17 C      9.875108    7.152551    4.771996
  18 C      9.639402    5.761309    4.765157
  19 C      8.261976    3.711341    4.849423
  20 C      8.275392    5.215399    5.103215
  21 C      7.814423   10.187343    4.983270
  22 C      8.978485    9.454847    4.851838
  23 C      5.783309    3.543981    5.221512

Unit cell:
           periodic     x           y           z      points  spacing
  1. axis:    yes   16.000000    0.000000    0.000000    80     0.2000
  2. axis:    yes    0.000000   16.000000    0.000000    80     0.2000
  3. axis:    yes    0.000000    0.000000   10.000000    48     0.2083

Effective grid spacing dv^(1/3) = 0.2027

                     log10-error:    total        iterations:
           time      wfs    density  energy       fermi  poisson
iter:   1  11:33:49          +inf  -169.825150    3      5      
iter:   2  11:33:50         -1.78  -169.701529    3      2      
iter:   3  11:33:51         -2.10  -169.665342    3      2      
iter:   4  11:33:51         -2.34  -169.653895    3      2      
iter:   5  11:33:52         -2.55  -169.652012    2      2      
iter:   6  11:33:52         -2.70  -169.649968    3      2      
iter:   7  11:33:53         -2.93  -169.647096    2      1      
iter:   8  11:33:53         -3.02  -169.650263    2      2      
iter:   9  11:33:54         -3.22  -169.648332    2      1      
iter:  10  11:33:54         -3.41  -169.648490    2      1      
iter:  11  11:33:55         -3.55  -169.650744    2      1      
iter:  12  11:33:55         -3.67  -169.650959    2      1      
iter:  13  11:33:56         -3.78  -169.650219    2      1      
iter:  14  11:33:56         -3.89  -169.650598    2      1      
iter:  15  11:33:57         -3.97  -169.650523    2      1      
iter:  16  11:33:57         -4.24  -169.650499    2      1      

Converged after 16 iterations.

Dipole moment: (-1.743757, -0.230907, -0.002862) |e|*Ang

Energy contributions relative to reference atoms: (reference = -24663.074771)

Kinetic:        +89.754452
Potential:     -100.733385
External:        +0.000000
XC:            -161.405576
Entropy (-ST):   -0.334560
Local:           +2.901290
--------------------------
Free energy:   -169.817779
Extrapolated:  -169.650499

Fermi level: -4.64900

 Band  Eigenvalues  Occupancy
    0    -22.57798    2.00000
    1    -21.93757    2.00000
    2    -21.77963    2.00000
    3    -21.36806    2.00000
    4    -20.16648    2.00000
    5    -19.77296    2.00000
    6    -19.62398    2.00000
    7    -18.99070    2.00000
    8    -18.89766    2.00000
    9    -17.82155    2.00000
   10    -17.30897    2.00000
   11    -17.02301    2.00000
   12    -16.72567    2.00000
   13    -16.09302    2.00000
   14    -15.00010    2.00000
   15    -14.63508    2.00000
   16    -14.41602    2.00000
   17    -13.69167    2.00000
   18    -13.35007    2.00000
   19    -12.91788    2.00000
   20    -12.60250    2.00000
   21    -11.35975    2.00000
   22    -11.13346    2.00000
   23    -10.91552    2.00000
   24    -10.41298    2.00000
   25    -10.28794    2.00000
   26     -9.98751    2.00000
   27     -9.87050    2.00000
   28     -9.61859    2.00000
   29     -9.43518    2.00000
   30     -9.16939    2.00000
   31     -9.07849    2.00000
   32     -8.35754    2.00000
   33     -8.10768    2.00000
   34     -7.96767    2.00000
   35     -7.59001    2.00000
   36     -7.40433    2.00000
   37     -6.74760    2.00000
   38     -6.51899    2.00000
   39     -6.43181    2.00000
   40     -6.34550    2.00000
   41     -6.23528    2.00000
   42     -6.14550    2.00000
   43     -6.02322    2.00000
   44     -5.66923    1.99993
   45     -5.38526    1.99873
   46     -5.27219    1.99608
   47     -4.70900    1.29131
   48     -4.51153    0.40370
   49     -4.46538    0.27500
   50     -4.21820    0.02656
   51     -4.10127    0.00833
   52     -3.77170    0.00031
   53     -3.60590    0.00006
   54     -3.02390    0.00000
   55     -2.73701    0.00000
   56     -2.27821    0.00000
   57     -1.82601    0.00000
   58     -1.56659    0.00000
   59     -1.08392    0.00000
   60     -0.48082    0.00000
   61      0.04070    0.00000
   62      0.11470    0.00000
   63      0.65785    0.00000
   64      1.55251    0.00000
   65      2.11365    0.00000
   66      2.26845    0.00000
   67      2.73633    0.00000
   68      3.42503    0.00000
   69      3.52040    0.00000
   70      3.82423    0.00000
   71      4.04521    0.00000
   72      4.60883    0.00000
   73      5.13054    0.00000
   74      5.51368    0.00000
   75      5.65567    0.00000
   76      5.97475    0.00000
   77      6.58855    0.00000
   78      6.96218    0.00000
   79      7.46573    0.00000
   80      7.81328    0.00000
   81      7.99551    0.00000
   82      8.13954    0.00000
   83      8.25686    0.00000
   84      8.55110    0.00000
   85      8.66978    0.00000
   86      8.97585    0.00000
   87      9.04290    0.00000
   88      9.10688    0.00000
   89      9.29004    0.00000
   90      9.42302    0.00000
   91      9.50045    0.00000
   92      9.61540    0.00000
   93      9.67580    0.00000
   94      9.76840    0.00000
   95      9.90612    0.00000
   96     10.02209    0.00000
   97     10.12049    0.00000


Forces in eV/Ang:
  0 C     2.65500    0.24654    0.10598
  1 C     0.97465    0.37939   -0.23344
  2 C    -1.14712    0.47129    0.69109
  3 C    -1.22442   -0.40200   -0.33839
  4 C     1.49650   -0.08857    0.16935
  5 C     2.62788   -0.77922    0.59721
  6 C    -0.22677    0.10081    0.04055
  7 C     0.40104    0.16154   -0.22036
  8 C     0.57697   -0.25739   -0.05708
  9 C    -0.80824    0.43042   -0.61339
 10 C    -0.27823   -0.24959   -0.04425
 11 C     0.14535    1.07611   -0.24172
 12 C    -0.44276   -0.31257   -0.13274
 13 C    -0.21747   -0.00740    0.14701
 14 C     0.00317   -0.31265    0.07856
 15 C    -0.43247    1.44245    0.12113
 16 C    -0.05092    0.03927    0.12100
 17 C    -0.23496    0.06951    0.01807
 18 C    -0.17640    0.09721    0.10218
 19 C    -0.37516    0.56661    0.07044
 20 C    -0.03654    0.69964   -0.06141
 21 C    -0.34565    0.67774   -0.16656
 22 C    -0.77663   -0.45460   -0.11467
 23 C    -2.12058   -3.61862   -0.06725

System changes: positions 

Initializing position-dependent things.

Density initialized from wave functions
           .--------------------------------------.  
          /|                                      |  
         / |                                      |  
        /  |                                      |  
       /   |                                      |  
      /    |                                      |  
     /     |                                      |  
    /      |                                      |  
   /       |                                      |  
  /        |                                      |  
 *        C|C  C          C  C                    |  
 |         |      C  C  C  C    C                 |  
 |         .---C--C----C------C-C-----------------.  
 |        /   C         C   C                    /   
 |       /   C   C  C  C   C C                  /    
 |      /                                      /     
 |     /                                      /      
 |    /                                      /       
 |   /                                      /        
 |  /                                      /         
 | /                                      /          
 |/                                      /           
 *--------------------------------------*            

Positions:
   0 C      4.310889    3.146999    5.341810
   1 C      4.219754    4.474171    5.208364
   2 C      5.098366    6.826860    4.921825
   3 C      4.403239    5.776603    5.063800
   4 C      4.782593    8.268406    4.969400
   5 C      5.979065    9.047906    4.757561
   6 C      1.037887    9.718220    5.164866
   7 C      3.473662    8.723147    5.105551
   8 C      2.287273    9.244829    5.190599
   9 C      7.509667    7.447285    5.467099
  10 C     10.348068    4.546833    4.379860
  11 C      7.257739    6.120178    5.457919
  12 C      8.726297    8.006473    5.151629
  13 C     10.377248    9.395262    4.386559
  14 C      9.620349    3.493174    4.452325
  15 C      7.001088    3.117893    4.965013
  16 C     10.793624    8.192290    4.312850
  17 C      9.872854    7.152056    4.772251
  18 C      9.637582    5.763154    4.766254
  19 C      8.260357    3.717029    4.849700
  20 C      8.275554    5.221973    5.102420
  21 C      7.811816   10.193383    4.981645
  22 C      8.969535    9.451254    4.851007
  23 C      5.763884    3.509019    5.220903

Unit cell:
           periodic     x           y           z      points  spacing
  1. axis:    yes   16.000000    0.000000    0.000000    80     0.2000
  2. axis:    yes    0.000000   16.000000    0.000000    80     0.2000
  3. axis:    yes    0.000000    0.000000   10.000000    48     0.2083

Effective grid spacing dv^(1/3) = 0.2027

                     log10-error:    total        iterations:
           time      wfs    density  energy       fermi  poisson
iter:   1  11:33:59          +inf  -170.203720    3      5      
iter:   2  11:33:59         -1.87  -170.117347    3      2      
iter:   3  11:34:00         -2.16  -170.087151    3      2      
iter:   4  11:34:00         -2.39  -170.078299    3      2      
iter:   5  11:34:01         -2.59  -170.076662    2      2      
iter:   6  11:34:01         -2.74  -170.074808    3      2      
iter:   7  11:34:02         -2.98  -170.072938    2      1      
iter:   8  11:34:02         -3.06  -170.075139    2      2      
iter:   9  11:34:03         -3.28  -170.073268    2      1      
iter:  10  11:34:03         -3.47  -170.073900    2      1      
iter:  11  11:34:04         -3.60  -170.075717    2      1      
iter:  12  11:34:04         -3.72  -170.075824    2      1      
iter:  13  11:34:05         -3.84  -170.075343    2      1      
iter:  14  11:34:05         -3.94  -170.075526    2      1      
iter:  15  11:34:06         -4.02  -170.075427    2      1      

Converged after 15 iterations.

Dipole moment: (-1.783865, -0.237170, -0.001272) |e|*Ang

Energy contributions relative to reference atoms: (reference = -24663.074771)

Kinetic:        +90.228580
Potential:     -101.154511
External:        +0.000000
XC:            -161.885459
Entropy (-ST):   -0.339748
Local:           +2.905836
--------------------------
Free energy:   -170.245301
Extrapolated:  -170.075427

Fermi level: -4.64116

 Band  Eigenvalues  Occupancy
    0    -22.57028    2.00000
    1    -21.97502    2.00000
    2    -21.81385    2.00000
    3    -21.39617    2.00000
    4    -20.17679    2.00000
    5    -19.77793    2.00000
    6    -19.60005    2.00000
    7    -18.98690    2.00000
    8    -18.92465    2.00000
    9    -17.81900    2.00000
   10    -17.30679    2.00000
   11    -17.00963    2.00000
   12    -16.72923    2.00000
   13    -16.13417    2.00000
   14    -15.00124    2.00000
   15    -14.62231    2.00000
   16    -14.39741    2.00000
   17    -13.67819    2.00000
   18    -13.34425    2.00000
   19    -12.96359    2.00000
   20    -12.60699    2.00000
   21    -11.36085    2.00000
   22    -11.10202    2.00000
   23    -10.93310    2.00000
   24    -10.41981    2.00000
   25    -10.28878    2.00000
   26    -10.00007    2.00000
   27     -9.88529    2.00000
   28     -9.66120    2.00000
   29     -9.45563    2.00000
   30     -9.30888    2.00000
   31     -9.09419    2.00000
   32     -8.38528    2.00000
   33     -8.10395    2.00000
   34     -7.99602    2.00000
   35     -7.59703    2.00000
   36     -7.41056    2.00000
   37     -6.75468    2.00000
   38     -6.51367    2.00000
   39     -6.46461    2.00000
   40     -6.35152    2.00000
   41     -6.29415    2.00000
   42     -6.14584    2.00000
   43     -5.94815    2.00000
   44     -5.65000    1.99992
   45     -5.38789    1.99886
   46     -5.28314    1.99675
   47     -4.69493    1.26255
   48     -4.51142    0.42920
   49     -4.45819    0.27655
   50     -4.21411    0.02756
   51     -4.09304    0.00829
   52     -3.75011    0.00027
   53     -3.58121    0.00005
   54     -2.98902    0.00000
   55     -2.72161    0.00000
   56     -2.24340    0.00000
   57     -1.76869    0.00000
   58     -1.37499    0.00000
   59     -1.05675    0.00000
   60     -0.45188    0.00000
   61      0.11044    0.00000
   62      0.16973    0.00000
   63      0.73407    0.00000
   64      1.51765    0.00000
   65      2.07700    0.00000
   66      2.28588    0.00000
   67      2.78982    0.00000
   68      3.45172    0.00000
   69      3.53088    0.00000
   70      3.94749    0.00000
   71      4.19861    0.00000
   72      4.52944    0.00000
   73      5.29569    0.00000
   74      5.47926    0.00000
   75      5.70363    0.00000
   76      6.02544    0.00000
   77      6.59785    0.00000
   78      6.96283    0.00000
   79      7.45101    0.00000
   80      7.75471    0.00000
   81      8.02607    0.00000
   82      8.10543    0.00000
   83      8.26961    0.00000
   84      8.53156    0.00000
   85      8.66809    0.00000
   86      8.98310    0.00000
   87      9.05369    0.00000
   88      9.13664    0.00000
   89      9.27726    0.00000
   90      9.42746    0.00000
   91      9.49137    0.00000
   92      9.54790    0.00000
   93      9.64763    0.00000
   94      9.77025    0.00000
   95      9.90004    0.00000
   96      9.99949    0.00000
   97     10.12900    0.00000


Forces in eV/Ang:
  0 C     2.06734    0.18961    0.13512
  1 C     0.80696    0.40698   -0.22129
  2 C    -0.81612    0.84993    0.65076
  3 C    -1.42713   -0.99027   -0.25770
  4 C     1.34685    0.19038    0.16321
  5 C     2.68707   -0.94742    0.73605
  6 C     0.08282   -0.01431    0.04483
  7 C     0.55764    0.16685   -0.23691
  8 C     0.34116   -0.18158   -0.07117
  9 C    -0.83558    0.86596   -0.65630
 10 C    -0.25576   -0.14597   -0.02456
 11 C     0.03877    0.61931   -0.27675
 12 C    -0.32970   -0.22257   -0.16791
 13 C    -0.42261    0.08844    0.23284
 14 C    -0.01810   -0.31651    0.06740
 15 C    -0.18400    1.23167    0.10237
 16 C    -0.03705   -0.07771    0.11400
 17 C    -0.22942    0.18358    0.03472
 18 C    -0.10365    0.00129    0.06264
 19 C    -0.68639    0.64168    0.13216
 20 C    -0.10865    0.58673   -0.03523
 21 C    -0.51594    0.62841   -0.20871
 22 C    -0.58181   -0.47709   -0.16198
 23 C    -1.40534   -3.22681   -0.14811

System changes: positions 

Initializing position-dependent things.

Density initialized from wave functions
           .--------------------------------------.  
          /|                                      |  
         / |                                      |  
        /  |                                      |  
       /   |                                      |  
      /    |                                      |  
     /     |                                      |  
    /      |                                      |  
   /       |                                      |  
  /        |                                      |  
 *        C|C  C          C  C                    |  
 |         |      C  C  C  C    C                 |  
 |         .---C--C----C------C-C-----------------.  
 |        /   C         C   C                    /   
 |       /    C  C  C  C   C C                  /    
 |      /                                      /     
 |     /                                      /      
 |    /                                      /       
 |   /                                      /        
 |  /                                      /         
 | /                                      /          
 |/                                      /           
 *--------------------------------------*            

Positions:
   0 C      4.334257    3.147424    5.343508
   1 C      4.228009    4.476257    5.206051
   2 C      5.085690    6.829315    4.929987
   3 C      4.391696    5.776959    5.059376
   4 C      4.796719    8.269855    4.971588
   5 C      6.010199    9.037841    4.765543
   6 C      1.038396    9.718227    5.165381
   7 C      3.483016    8.723577    5.102660
   8 C      2.288191    9.244006    5.190042
   9 C      7.498835    7.453776    5.459886
  10 C     10.344909    4.544134    4.379470
  11 C      7.257560    6.131233    5.455349
  12 C      8.722602    8.003875    5.149809
  13 C     10.374895    9.394417    4.388492
  14 C      9.619124    3.490174    4.453547
  15 C      6.995696    3.131239    4.966330
  16 C     10.792910    8.193682    4.313992
  17 C      9.870412    7.151772    4.772694
  18 C      9.636065    5.764966    4.767237
  19 C      8.257118    3.724226    4.850215
  20 C      8.275370    5.229035    5.101639
  21 C      7.807633   10.199609    4.979273
  22 C      8.959872    9.447565    4.849781
  23 C      5.748963    3.471937    5.219398

Unit cell:
           periodic     x           y           z      points  spacing
  1. axis:    yes   16.000000    0.000000    0.000000    80     0.2000
  2. axis:    yes    0.000000   16.000000    0.000000    80     0.2000
  3. axis:    yes    0.000000    0.000000   10.000000    48     0.2083

Effective grid spacing dv^(1/3) = 0.2027

                     log10-error:    total        iterations:
           time      wfs    density  energy       fermi  poisson
iter:   1  11:34:07          +inf  -170.599034    3      5      
iter:   2  11:34:08         -1.87  -170.516473    3      2      
iter:   3  11:34:08         -2.19  -170.493533    3      2      
iter:   4  11:34:09         -2.38  -170.484660    3      2      
iter:   5  11:34:09         -2.59  -170.483017    2      2      
iter:   6  11:34:10         -2.74  -170.481485    3      2      
iter:   7  11:34:10         -2.97  -170.478627    2      1      
iter:   8  11:34:11         -3.06  -170.481564    2      2      
iter:   9  11:34:11         -3.31  -170.480820    2      1      
iter:  10  11:34:12         -3.49  -170.480226    2      1      
iter:  11  11:34:12         -3.65  -170.482022    2      1      
iter:  12  11:34:13         -3.75  -170.482385    2      1      
iter:  13  11:34:13         -3.86  -170.481772    2      1      
iter:  14  11:34:14         -4.00  -170.482066    2      1      

Converged after 14 iterations.

Dipole moment: (-1.783331, -0.240252, -0.002272) |e|*Ang

Energy contributions relative to reference atoms: (reference = -24663.074771)

Kinetic:        +90.383470
Potential:     -101.318671
External:        +0.000000
XC:            -162.283171
Entropy (-ST):   -0.345186
Local:           +2.908898
--------------------------
Free energy:   -170.654659
Extrapolated:  -170.482066

Fermi level: -4.64643

 Band  Eigenvalues  Occupancy
    0    -22.57163    2.00000
    1    -22.04002    2.00000
    2    -21.81252    2.00000
    3    -21.42386    2.00000
    4    -20.18540    2.00000
    5    -19.78281    2.00000
    6    -19.57567    2.00000
    7    -18.99749    2.00000
    8    -18.93502    2.00000
    9    -17.82163    2.00000
   10    -17.31086    2.00000
   11    -17.01553    2.00000
   12    -16.73935    2.00000
   13    -16.17871    2.00000
   14    -15.01186    2.00000
   15    -14.62195    2.00000
   16    -14.38787    2.00000
   17    -13.68020    2.00000
   18    -13.34127    2.00000
   19    -13.00519    2.00000
   20    -12.61349    2.00000
   21    -11.37503    2.00000
   22    -11.08085    2.00000
   23    -10.96331    2.00000
   24    -10.43365    2.00000
   25    -10.29791    2.00000
   26    -10.03531    2.00000
   27     -9.90134    2.00000
   28     -9.72568    2.00000
   29     -9.48532    2.00000
   30     -9.41319    2.00000
   31     -9.09833    2.00000
   32     -8.40538    2.00000
   33     -8.09211    2.00000
   34     -8.01202    2.00000
   35     -7.61299    2.00000
   36     -7.41340    2.00000
   37     -6.77838    2.00000
   38     -6.51318    2.00000
   39     -6.46305    2.00000
   40     -6.38037    2.00000
   41     -6.35756    2.00000
   42     -6.14649    2.00000
   43     -5.87468    1.99999
   44     -5.63442    1.99990
   45     -5.40063    1.99894
   46     -5.29735    1.99703
   47     -4.69326    1.22994
   48     -4.52617    0.46202
   49     -4.46310    0.27568
   50     -4.22194    0.02827
   51     -4.09433    0.00797
   52     -3.74135    0.00023
   53     -3.54719    0.00003
   54     -2.97456    0.00000
   55     -2.69535    0.00000
   56     -2.21331    0.00000
   57     -1.71284    0.00000
   58     -1.20048    0.00000
   59     -1.03511    0.00000
   60     -0.40951    0.00000
   61      0.14550    0.00000
   62      0.27954    0.00000
   63      0.81365    0.00000
   64      1.49070    0.00000
   65      2.04477    0.00000
   66      2.29323    0.00000
   67      2.85037    0.00000
   68      3.44816    0.00000
   69      3.54867    0.00000
   70      3.96988    0.00000
   71      4.29725    0.00000
   72      4.46636    0.00000
   73      5.38597    0.00000
   74      5.50182    0.00000
   75      5.73548    0.00000
   76      6.09146    0.00000
   77      6.60742    0.00000
   78      6.94122    0.00000
   79      7.43421    0.00000
   80      7.68776    0.00000
   81      8.03563    0.00000
   82      8.11737    0.00000
   83      8.28768    0.00000
   84      8.51069    0.00000
   85      8.65532    0.00000
   86      8.97722    0.00000
   87      9.05916    0.00000
   88      9.16616    0.00000
   89      9.22980    0.00000
   90      9.41872    0.00000
   91      9.47299    0.00000
   92      9.49156    0.00000
   93      9.62627    0.00000
   94      9.76252    0.00000
   95      9.90368    0.00000
   96      9.99173    0.00000
   97     10.13708    0.00000


Forces in eV/Ang:
  0 C     1.26607    0.20965    0.16480
  1 C     0.60243    0.18269   -0.18308
  2 C    -0.62641    0.89285    0.61357
  3 C    -1.40338   -1.08110   -0.23646
  4 C     1.27036    0.37420    0.11419
  5 C     2.82486   -1.15573    0.91484
  6 C     0.12789   -0.03364    0.04554
  7 C     0.27541    0.37951   -0.20988
  8 C     0.73224   -0.36196   -0.11086
  9 C    -0.87133    1.28641   -0.73344
 10 C    -0.25910   -0.08761   -0.00416
 11 C    -0.05674    0.23313   -0.33078
 12 C    -0.27214   -0.15349   -0.18282
 13 C    -0.57516    0.11148    0.31044
 14 C    -0.02606   -0.27038    0.06222
 15 C     0.14693    0.98020    0.07283
 16 C    -0.03494   -0.11526    0.10286
 17 C    -0.21510    0.29046    0.05160
 18 C    -0.03934   -0.08804    0.02740
 19 C    -0.89671    0.67183    0.18390
 20 C    -0.18615    0.48984   -0.00829
 21 C    -0.68205    0.53203   -0.26477
 22 C    -0.45360   -0.46421   -0.21813
 23 C    -0.64717   -2.77969   -0.18411

System changes: positions 

Initializing position-dependent things.

Density initialized from wave functions
           .--------------------------------------.  
          /|                                      |  
         / |                                      |  
        /  |                                      |  
       /   |                                      |  
      /    |                                      |  
     /     |                                      |  
    /      |                                      |  
   /       |                                      |  
  /        |                                      |  
 *        C|C  C          C  C                    |  
 |         |      C  C  C  C    C                 |  
 |         .---C--C----C------C-C-----------------.  
 |        /   C         C   C                    /   
 |       /    C  C  C  C   C C                  /    
 |      /                                      /     
 |     /                                      /      
 |    /                                      /       
 |   /                                      /        
 |  /                                      /         
 | /                                      /          
 |/                                      /           
 *--------------------------------------*            

Positions:
   0 C      4.353034    3.148564    5.345689
   1 C      4.235608    4.475704    5.203862
   2 C      5.072273    6.831181    4.938890
   3 C      4.379872    5.778560    5.054322
   4 C      4.812150    8.272408    4.973558
   5 C      6.046530    9.024805    4.776038
   6 C      1.038810    9.718264    5.165964
   7 C      3.491097    8.725890    5.099692
   8 C      2.292782    9.241465    5.189115
   9 C      7.486045    7.463406    5.451051
  10 C     10.341198    4.541295    4.379190
  11 C      7.256750    6.141928    5.452048
  12 C      8.718588    8.001341    5.147789
  13 C     10.371371    9.393442    4.391191
  14 C      9.617610    3.487425    4.454954
  15 C      6.992685    3.144066    4.967484
  16 C     10.792139    8.195174    4.315150
  17 C      9.867905    7.152107    4.773294
  18 C      9.634808    5.766425    4.768107
  19 C      8.252667    3.732111    4.851022
  20 C      8.274631    5.236514    5.100964
  21 C      7.801768   10.205588    4.976097
  22 C      8.949596    9.443854    4.847987
  23 C      5.738446    3.434269    5.217611

Unit cell:
           periodic     x           y           z      points  spacing
  1. axis:    yes   16.000000    0.000000    0.000000    80     0.2000
  2. axis:    yes    0.000000   16.000000    0.000000    80     0.2000
  3. axis:    yes    0.000000    0.000000   10.000000    48     0.2083

Effective grid spacing dv^(1/3) = 0.2027

                     log10-error:    total        iterations:
           time      wfs    density  energy       fermi  poisson
iter:   1  11:34:15          +inf  -170.964483    3      5      
iter:   2  11:34:16         -1.90  -170.897644    3      2      
iter:   3  11:34:16         -2.21  -170.879813    3      2      
iter:   4  11:34:17         -2.39  -170.872433    3      2      
iter:   5  11:34:17         -2.60  -170.870981    2      2      
iter:   6  11:34:18         -2.75  -170.869493    3      2      
iter:   7  11:34:19         -2.97  -170.866937    2      1      
iter:   8  11:34:19         -3.07  -170.869845    2      2      
iter:   9  11:34:20         -3.35  -170.870044    2      1      
iter:  10  11:34:20         -3.45  -170.868484    2      1      
iter:  11  11:34:20         -3.69  -170.870349    2      1      
iter:  12  11:34:21         -3.77  -170.870718    2      1      
iter:  13  11:34:21         -3.87  -170.869882    2      1      
iter:  14  11:34:22         -4.02  -170.870341    2      1      

Converged after 14 iterations.

Dipole moment: (-1.796725, -0.240089, -0.003438) |e|*Ang

Energy contributions relative to reference atoms: (reference = -24663.074771)

Kinetic:        +90.346160
Potential:     -101.319066
External:        +0.000000
XC:            -162.631344
Entropy (-ST):   -0.352130
Local:           +2.909975
--------------------------
Free energy:   -171.046405
Extrapolated:  -170.870341

Fermi level: -4.64526

 Band  Eigenvalues  Occupancy
    0    -22.56747    2.00000
    1    -22.09866    2.00000
    2    -21.79706    2.00000
    3    -21.43165    2.00000
    4    -20.18319    2.00000
    5    -19.79234    2.00000
    6    -19.56043    2.00000
    7    -18.99954    2.00000
    8    -18.93758    2.00000
    9    -17.81764    2.00000
   10    -17.30716    2.00000
   11    -17.00641    2.00000
   12    -16.74042    2.00000
   13    -16.20376    2.00000
   14    -15.01959    2.00000
   15    -14.62055    2.00000
   16    -14.37936    2.00000
   17    -13.68485    2.00000
   18    -13.33131    2.00000
   19    -13.02634    2.00000
   20    -12.61157    2.00000
   21    -11.41295    2.00000
   22    -11.06933    2.00000
   23    -11.00017    2.00000
   24    -10.43474    2.00000
   25    -10.30254    2.00000
   26    -10.07561    2.00000
   27     -9.90822    2.00000
   28     -9.77544    2.00000
   29     -9.51822    2.00000
   30     -9.46122    2.00000
   31     -9.09413    2.00000
   32     -8.41763    2.00000
   33     -8.09206    2.00000
   34     -8.02445    2.00000
   35     -7.62663    2.00000
   36     -7.41285    2.00000
   37     -6.81017    2.00000
   38     -6.51789    2.00000
   39     -6.49319    2.00000
   40     -6.45559    2.00000
   41     -6.36079    2.00000
   42     -6.14083    2.00000
   43     -5.81466    1.99998
   44     -5.61489    1.99988
   45     -5.39867    1.99893
   46     -5.30374    1.99724
   47     -4.68349    1.18885
   48     -4.53505    0.49869
   49     -4.46301    0.27826
   50     -4.22841    0.03048
   51     -4.08656    0.00746
   52     -3.72780    0.00021
   53     -3.50001    0.00002
   54     -2.96637    0.00000
   55     -2.63400    0.00000
   56     -2.16196    0.00000
   57     -1.63989    0.00000
   58     -1.07427    0.00000
   59     -0.99839    0.00000
   60     -0.35407    0.00000
   61      0.16965    0.00000
   62      0.39899    0.00000
   63      0.88783    0.00000
   64      1.46141    0.00000
   65      2.01755    0.00000
   66      2.30046    0.00000
   67      2.92492    0.00000
   68      3.44329    0.00000
   69      3.58013    0.00000
   70      3.98506    0.00000
   71      4.24992    0.00000
   72      4.50701    0.00000
   73      5.35270    0.00000
   74      5.59367    0.00000
   75      5.75615    0.00000
   76      6.16670    0.00000
   77      6.63156    0.00000
   78      6.90952    0.00000
   79      7.42114    0.00000
   80      7.64223    0.00000
   81      7.99803    0.00000
   82      8.14251    0.00000
   83      8.30016    0.00000
   84      8.49616    0.00000
   85      8.63993    0.00000
   86      8.95707    0.00000
   87      9.04461    0.00000
   88      9.16103    0.00000
   89      9.21040    0.00000
   90      9.40603    0.00000
   91      9.42009    0.00000
   92      9.49501    0.00000
   93      9.62175    0.00000
   94      9.74714    0.00000
   95      9.91314    0.00000
   96      9.99696    0.00000
   97     10.14826    0.00000


Forces in eV/Ang:
  0 C     0.42156    0.08415    0.22234
  1 C     0.41863    0.26236   -0.18590
  2 C    -0.41922    1.09194    0.61573
  3 C    -1.48292   -1.46465   -0.18451
  4 C     1.17583    0.56139    0.08725
  5 C     2.95428   -1.39186    1.12671
  6 C     0.33961   -0.11714    0.04950
  7 C     0.37398    0.42346   -0.21029
  8 C     0.63986   -0.34035   -0.13073
  9 C    -0.93146    1.61609   -0.82204
 10 C    -0.23353    0.01269    0.01199
 11 C    -0.14538   -0.03385   -0.36093
 12 C    -0.22124   -0.08825   -0.18999
 13 C    -0.70944    0.12800    0.38086
 14 C    -0.09011   -0.25660    0.06790
 15 C     0.29287    0.70122    0.03856
 16 C    -0.02681   -0.15032    0.09002
 17 C    -0.20316    0.35294    0.07105
 18 C     0.01104   -0.14018   -0.00412
 19 C    -0.94669    0.72067    0.22539
 20 C    -0.25642    0.41759    0.01047
 21 C    -0.85244    0.35996   -0.33431
 22 C    -0.34404   -0.39774   -0.27646
 23 C     0.17749   -2.30357   -0.26877

System changes: positions 

Initializing position-dependent things.

Density initialized from wave functions
           .--------------------------------------.  
          /|                                      |  
         / |                                      |  
        /  |                                      |  
       /   |                                      |  
      /    |                                      |  
     /     |                                      |  
    /      |                                      |  
   /       |                                      |  
  /        |                                      |  
 *        C|C  C          C  C                    |  
 |         |      C  C  C  C    C                 |  
 |         .---C--C----C------C-C-----------------.  
 |        /   C         C   C                    /   
 |       /    C  C  C  C   C C                  /    
 |      /                                      /     
 |     /                                      /      
 |    /                                      /       
 |   /                                      /        
 |  /                                      /         
 | /                                      /          
 |/                                      /           
 *--------------------------------------*            

Positions:
   0 C      4.365885    3.148549    5.348223
   1 C      4.241998    4.476316    5.201620
   2 C      5.060014    6.833645    4.947658
   3 C      4.368369    5.778320    5.049680
   4 C      4.826582    8.275479    4.975318
   5 C      6.082260    9.010891    4.787428
   6 C      1.040401    9.717814    5.166552
   7 C      3.500265    8.727964    5.096812
   8 C      2.295746    9.239554    5.188177
   9 C      7.473194    7.473490    5.441978
  10 C     10.337813    4.539105    4.378981
  11 C      7.255616    6.152016    5.448824
  12 C      8.714771    7.999132    5.145930
  13 C     10.367623    9.392349    4.394051
  14 C      9.615535    3.484867    4.456430
  15 C      6.989864    3.154711    4.968357
  16 C     10.791450    8.196674    4.316168
  17 C      9.865608    7.152416    4.773970
  18 C      9.633753    5.767821    4.768825
  19 C      8.249406    3.739804    4.851863
  20 C      8.273633    5.243587    5.100365
  21 C      7.795350   10.209934    4.972591
  22 C      8.939888    9.441079    4.845968
  23 C      5.733018    3.400866    5.215375

Unit cell:
           periodic     x           y           z      points  spacing
  1. axis:    yes   16.000000    0.000000    0.000000    80     0.2000
  2. axis:    yes    0.000000   16.000000    0.000000    80     0.2000
  3. axis:    yes    0.000000    0.000000   10.000000    48     0.2083

Effective grid spacing dv^(1/3) = 0.2027

                     log10-error:    total        iterations:
           time      wfs    density  energy       fermi  poisson
iter:   1  11:34:24          +inf  -171.276433    3      5      
iter:   2  11:34:24         -1.97  -171.231263    3      2      
iter:   3  11:34:25         -2.30  -171.220024    2      1      
iter:   4  11:34:25         -2.44  -171.217879    2      2      
iter:   5  11:34:26         -2.66  -171.216487    2      2      
iter:   6  11:34:26         -2.78  -171.217071    3      2      
iter:   7  11:34:27         -2.85  -171.215939    2      2      
iter:   8  11:34:27         -3.15  -171.213534    2      1      
iter:   9  11:34:28         -3.31  -171.213918    2      1      
iter:  10  11:34:28         -3.50  -171.215571    2      1      
iter:  11  11:34:29         -3.64  -171.215885    2      1      
iter:  12  11:34:29         -3.80  -171.216246    2      1      
iter:  13  11:34:30         -3.87  -171.216244    2      1      
iter:  14  11:34:30         -3.94  -171.215848    2      1      
iter:  15  11:34:31         -4.18  -171.216067    2      1      

Converged after 15 iterations.

Dipole moment: (-1.787429, -0.239099, -0.005628) |e|*Ang

Energy contributions relative to reference atoms: (reference = -24663.074771)

Kinetic:        +89.992015
Potential:     -101.073317
External:        +0.000000
XC:            -162.864330
Entropy (-ST):   -0.357576
Local:           +2.908353
--------------------------
Free energy:   -171.394856
Extrapolated:  -171.216067

Fermi level: -4.65109

 Band  Eigenvalues  Occupancy
    0    -22.57047    2.00000
    1    -22.11374    2.00000
    2    -21.78696    2.00000
    3    -21.43543    2.00000
    4    -20.18702    2.00000
    5    -19.79729    2.00000
    6    -19.54857    2.00000
    7    -18.99978    2.00000
    8    -18.94125    2.00000
    9    -17.82072    2.00000
   10    -17.31193    2.00000
   11    -17.00365    2.00000
   12    -16.74481    2.00000
   13    -16.22761    2.00000
   14    -15.03260    2.00000
   15    -14.62635    2.00000
   16    -14.37493    2.00000
   17    -13.69710    2.00000
   18    -13.32562    2.00000
   19    -13.03966    2.00000
   20    -12.61357    2.00000
   21    -11.46136    2.00000
   22    -11.09452    2.00000
   23    -11.00180    2.00000
   24    -10.43317    2.00000
   25    -10.31151    2.00000
   26    -10.11421    2.00000
   27     -9.91736    2.00000
   28     -9.80808    2.00000
   29     -9.54447    2.00000
   30     -9.47982    2.00000
   31     -9.08754    2.00000
   32     -8.42535    2.00000
   33     -8.09330    2.00000
   34     -8.02409    2.00000
   35     -7.64541    2.00000
   36     -7.41324    2.00000
   37     -6.87041    2.00000
   38     -6.56038    2.00000
   39     -6.50860    2.00000
   40     -6.48114    2.00000
   41     -6.36532    2.00000
   42     -6.13967    2.00000
   43     -5.77680    1.99997
   44     -5.59921    1.99985
   45     -5.39857    1.99887
   46     -5.31293    1.99733
   47     -4.68187    1.15270
   48     -4.54935    0.53106
   49     -4.47005    0.28118
   50     -4.23991    0.03223
   51     -4.08005    0.00660
   52     -3.72372    0.00019
   53     -3.45591    0.00001
   54     -2.97135    0.00000
   55     -2.56812    0.00000
   56     -2.09978    0.00000
   57     -1.57122    0.00000
   58     -1.04357    0.00000
   59     -0.89738    0.00000
   60     -0.28835    0.00000
   61      0.18248    0.00000
   62      0.51545    0.00000
   63      0.95016    0.00000
   64      1.43927    0.00000
   65      1.99796    0.00000
   66      2.30081    0.00000
   67      2.98761    0.00000
   68      3.43670    0.00000
   69      3.60478    0.00000
   70      3.99055    0.00000
   71      4.15391    0.00000
   72      4.54952    0.00000
   73      5.31554    0.00000
   74      5.63412    0.00000
   75      5.75740    0.00000
   76      6.22260    0.00000
   77      6.64224    0.00000
   78      6.87053    0.00000
   79      7.36984    0.00000
   80      7.61981    0.00000
   81      7.95619    0.00000
   82      8.17558    0.00000
   83      8.30633    0.00000
   84      8.48596    0.00000
   85      8.62156    0.00000
   86      8.91558    0.00000
   87      8.97587    0.00000
   88      9.13515    0.00000
   89      9.24425    0.00000
   90      9.37489    0.00000
   91      9.41497    0.00000
   92      9.50361    0.00000
   93      9.62351    0.00000
   94      9.72834    0.00000
   95      9.92893    0.00000
   96     10.00489    0.00000
   97     10.15816    0.00000


Forces in eV/Ang:
  0 C    -0.23769    0.10777    0.22544
  1 C     0.24831    0.09540   -0.16004
  2 C    -0.26599    1.09903    0.56802
  3 C    -1.41490   -1.50558   -0.14851
  4 C     1.08496    0.69095    0.06517
  5 C     3.08956   -1.60314    1.34228
  6 C     0.42723   -0.15560    0.05110
  7 C     0.26606    0.54707   -0.19177
  8 C     0.80811   -0.41762   -0.16031
  9 C    -0.97527    1.94220   -0.91903
 10 C    -0.23193    0.06955    0.02697
 11 C    -0.21959   -0.29923   -0.38239
 12 C    -0.18168   -0.02480   -0.19401
 13 C    -0.82166    0.16668    0.43197
 14 C    -0.10355   -0.21380    0.06638
 15 C     0.55653    0.47083    0.00386
 16 C    -0.01485   -0.20693    0.08141
 17 C    -0.19565    0.43034    0.08705
 18 C     0.04499   -0.18834   -0.02936
 19 C    -1.03039    0.75148    0.25435
 20 C    -0.31872    0.36598    0.02559
 21 C    -1.04622    0.18321   -0.40630
 22 C    -0.26800   -0.36811   -0.33226
 23 C     0.73732   -1.95628   -0.30980

System changes: positions 

Initializing position-dependent things.

Density initialized from wave functions
           .--------------------------------------.  
          /|                                      |  
         / |                                      |  
        /  |                                      |  
       /   |                                      |  
      /    |                                      |  
     /     |                                      |  
    /      |                                      |  
   /       |                                      |  
  /        |                                      |  
 *        C|C  C          C  C                    |  
 |         |      C   C C  C    C                 |  
 |         .---C--C----C------C-C-----------------.  
 |        /   C         C   C                    /   
 |       /    C  C  C  C   C C                  /    
 |      /                                      /     
 |     /                                      /      
 |    /                                      /       
 |   /                                      /        
 |  /                                      /         
 | /                                      /          
 |/                                      /           
 *--------------------------------------*            

Positions:
   0 C      4.375485    3.149083    5.350526
   1 C      4.247510    4.475691    5.199607
   2 C      5.048572    6.835419    4.955769
   3 C      4.358135    5.778838    5.045353
   4 C      4.840178    8.278633    4.976952
   5 C      6.117503    8.996427    4.799624
   6 C      1.042041    9.717297    5.167124
   7 C      3.508449    8.730593    5.094168
   8 C      2.299639    9.237294    5.187132
   9 C      7.460497    7.484255    5.432629
  10 C     10.334490    4.537133    4.378836
  11 C      7.254331    6.161194    5.445706
  12 C      8.711086    7.997225    5.144200
  13 C     10.363660    9.391548    4.396939
  14 C      9.613524    3.482699    4.457861
  15 C      6.988625    3.163995    4.968987
  16 C     10.790892    8.197765    4.317118
  17 C      9.863437    7.153023    4.774678
  18 C      9.632769    5.769060    4.769444
  19 C      8.246343    3.747205    4.852690
  20 C      8.272424    5.250447    5.099827
  21 C      7.788111   10.212978    4.968787
  22 C      8.930599    9.438599    4.843750
  23 C      5.729494    3.369919    5.213138

Unit cell:
           periodic     x           y           z      points  spacing
  1. axis:    yes   16.000000    0.000000    0.000000    80     0.2000
  2. axis:    yes    0.000000   16.000000    0.000000    80     0.2000
  3. axis:    yes    0.000000    0.000000   10.000000    48     0.2083

Effective grid spacing dv^(1/3) = 0.2027

                     log10-error:    total        iterations:
           time      wfs    density  energy       fermi  poisson
iter:   1  11:34:32          +inf  -171.592236    3      5      
iter:   2  11:34:33         -2.02  -171.556469    3      2      
iter:   3  11:34:33         -2.33  -171.547121    3      1      
iter:   4  11:34:34         -2.46  -171.545134    3      2      
iter:   5  11:34:34         -2.70  -171.543999    3      2      
iter:   6  11:34:35         -2.82  -171.544263    2      2      
iter:   7  11:34:35         -2.88  -171.543458    3      2      
iter:   8  11:34:36         -3.17  -171.540700    2      1      
iter:   9  11:34:36         -3.37  -171.542380    2      1      
iter:  10  11:34:37         -3.53  -171.543519    2      1      
iter:  11  11:34:37         -3.62  -171.543546    2      1      
iter:  12  11:34:38         -3.75  -171.543805    2      1      
iter:  13  11:34:38         -3.82  -171.543606    2      1      
iter:  14  11:34:39         -3.90  -171.542752    2      1      
iter:  15  11:34:39         -4.25  -171.543646    2      1      

Converged after 15 iterations.

Dipole moment: (-1.784941, -0.242372, -0.006697) |e|*Ang

Energy contributions relative to reference atoms: (reference = -24663.074771)

Kinetic:        +89.493105
Potential:     -100.718096
External:        +0.000000
XC:            -163.046449
Entropy (-ST):   -0.361958
Local:           +2.908773
--------------------------
Free energy:   -171.724625
Extrapolated:  -171.543646

Fermi level: -4.65482

 Band  Eigenvalues  Occupancy
    0    -22.57159    2.00000
    1    -22.11950    2.00000
    2    -21.77717    2.00000
    3    -21.43236    2.00000
    4    -20.18654    2.00000
    5    -19.80276    2.00000
    6    -19.54081    2.00000
    7    -18.99486    2.00000
    8    -18.94490    2.00000
    9    -17.81831    2.00000
   10    -17.31476    2.00000
   11    -16.99489    2.00000
   12    -16.74500    2.00000
   13    -16.24018    2.00000
   14    -15.04502    2.00000
   15    -14.63209    2.00000
   16    -14.37065    2.00000
   17    -13.70827    2.00000
   18    -13.31805    2.00000
   19    -13.04147    2.00000
   20    -12.61206    2.00000
   21    -11.52683    2.00000
   22    -11.13026    2.00000
   23    -10.98794    2.00000
   24    -10.42526    2.00000
   25    -10.31805    2.00000
   26    -10.14773    2.00000
   27     -9.92525    2.00000
   28     -9.82819    2.00000
   29     -9.55717    2.00000
   30     -9.48947    2.00000
   31     -9.07963    2.00000
   32     -8.43097    2.00000
   33     -8.09812    2.00000
   34     -8.02397    2.00000
   35     -7.66208    2.00000
   36     -7.41393    2.00000
   37     -6.95775    2.00000
   38     -6.60130    2.00000
   39     -6.51117    2.00000
   40     -6.49682    2.00000
   41     -6.36668    2.00000
   42     -6.13453    2.00000
   43     -5.75045    1.99997
   44     -5.58293    1.99981
   45     -5.39148    1.99874
   46     -5.31544    1.99730
   47     -4.67921    1.12134
   48     -4.56024    0.55949
   49     -4.47475    0.28353
   50     -4.24910    0.03401
   51     -4.06786    0.00563
   52     -3.71751    0.00017
   53     -3.41307    0.00001
   54     -2.97818    0.00000
   55     -2.49962    0.00000
   56     -2.01172    0.00000
   57     -1.50443    0.00000
   58     -1.03513    0.00000
   59     -0.80075    0.00000
   60     -0.20628    0.00000
   61      0.19623    0.00000
   62      0.60838    0.00000
   63      1.00002    0.00000
   64      1.42094    0.00000
   65      1.98306    0.00000
   66      2.29986    0.00000
   67      3.03882    0.00000
   68      3.43509    0.00000
   69      3.63150    0.00000
   70      3.99554    0.00000
   71      4.06426    0.00000
   72      4.58300    0.00000
   73      5.28166    0.00000
   74      5.64531    0.00000
   75      5.75907    0.00000
   76      6.26644    0.00000
   77      6.63945    0.00000
   78      6.84681    0.00000
   79      7.30396    0.00000
   80      7.61398    0.00000
   81      7.90319    0.00000
   82      8.20127    0.00000
   83      8.30816    0.00000
   84      8.47560    0.00000
   85      8.60314    0.00000
   86      8.83328    0.00000
   87      8.92317    0.00000
   88      9.13326    0.00000
   89      9.28001    0.00000
   90      9.35678    0.00000
   91      9.41796    0.00000
   92      9.51294    0.00000
   93      9.63191    0.00000
   94      9.70987    0.00000
   95      9.93783    0.00000
   96     10.01697    0.00000
   97     10.16729    0.00000


Forces in eV/Ang:
  0 C    -0.81258    0.09503    0.25194
  1 C     0.12455    0.09477   -0.15880
  2 C    -0.15128    1.23963    0.56299
  3 C    -1.41418   -1.67466   -0.11309
  4 C     1.05566    0.78186    0.03340
  5 C     3.14564   -1.79372    1.53063
  6 C     0.54902   -0.20526    0.05411
  7 C     0.31457    0.62132   -0.19967
  8 C     0.82517   -0.43141   -0.18367
  9 C    -1.04650    2.16873   -1.00050
 10 C    -0.22955    0.13815    0.04069
 11 C    -0.28216   -0.46670   -0.42154
 12 C    -0.14711    0.02777   -0.19033
 13 C    -0.90967    0.17018    0.47315
 14 C    -0.13136   -0.19256    0.06846
 15 C     0.67567    0.28661    0.00384
 16 C    -0.00648   -0.22540    0.07456
 17 C    -0.19283    0.48049    0.09938
 18 C     0.07643   -0.21895   -0.05253
 19 C    -1.03245    0.76416    0.26689
 20 C    -0.36795    0.34043    0.03731
 21 C    -1.18927   -0.00219   -0.45674
 22 C    -0.21316   -0.31576   -0.38379
 23 C     1.26647   -1.66218   -0.33699

System changes: positions 

Initializing position-dependent things.

Density initialized from wave functions
           .--------------------------------------.  
          /|                                      |  
         / |                                      |  
        /  |                                      |  
       /   |                                      |  
      /    |                                      |  
     /     |                                      |  
    /      |                                      |  
   /       |                                      |  
  /        |                                      |  
 *        C|C  C          C  C                    |  
 |         |      C   C C  C    C                 |  
 |         .---C--C----C------C-C-----------------.  
[...]
Free energy:   -178.390159
Extrapolated:  -178.284783

Fermi level: -4.56914

 Band  Eigenvalues  Occupancy
    0    -22.90692    2.00000
    1    -21.92221    2.00000
    2    -21.52675    2.00000
    3    -20.71071    2.00000
    4    -20.46876    2.00000
    5    -20.04469    2.00000
    6    -19.70858    2.00000
    7    -19.18940    2.00000
    8    -18.70149    2.00000
    9    -17.90920    2.00000
   10    -17.36944    2.00000
   11    -17.18799    2.00000
   12    -16.80239    2.00000
   13    -16.18621    2.00000
   14    -15.52802    2.00000
   15    -14.91118    2.00000
   16    -14.44327    2.00000
   17    -13.93134    2.00000
   18    -13.73395    2.00000
   19    -13.36704    2.00000
   20    -12.95946    2.00000
   21    -12.32499    2.00000
   22    -11.81057    2.00000
   23    -10.92224    2.00000
   24    -10.86936    2.00000
   25    -10.46772    2.00000
   26    -10.20382    2.00000
   27     -9.90519    2.00000
   28     -9.70093    2.00000
   29     -9.57456    2.00000
   30     -9.34309    2.00000
   31     -9.12737    2.00000
   32     -8.89428    2.00000
   33     -8.13139    2.00000
   34     -8.09135    2.00000
   35     -7.94559    2.00000
   36     -7.73474    2.00000
   37     -7.42002    2.00000
   38     -6.66711    2.00000
   39     -6.43581    2.00000
   40     -6.29480    2.00000
   41     -6.22358    2.00000
   42     -5.89730    2.00000
   43     -5.84287    1.99999
   44     -5.62719    1.99995
   45     -5.18854    1.99592
   46     -5.02741    1.97975
   47     -4.73509    1.68034
   48     -4.39409    0.29595
   49     -4.18372    0.04150
   50     -3.99473    0.00638
   51     -3.63363    0.00017
   52     -3.48210    0.00004
   53     -2.97627    0.00000
   54     -2.84648    0.00000
   55     -2.04483    0.00000
   56     -1.08797    0.00000
   57     -1.00918    0.00000
   58     -0.44028    0.00000
   59     -0.16559    0.00000
   60      0.45344    0.00000
   61      1.37992    0.00000
   62      1.40756    0.00000
   63      1.55055    0.00000
   64      2.37302    0.00000
   65      3.13115    0.00000
   66      3.54524    0.00000
   67      3.86336    0.00000
   68      4.17426    0.00000
   69      4.39082    0.00000
   70      4.76192    0.00000
   71      5.06189    0.00000
   72      5.55555    0.00000
   73      5.97936    0.00000
   74      6.53030    0.00000
   75      6.96092    0.00000
   76      7.15800    0.00000
   77      7.51140    0.00000
   78      7.67931    0.00000
   79      7.73433    0.00000
   80      8.02896    0.00000
   81      8.19193    0.00000
   82      8.48017    0.00000
   83      8.62123    0.00000
   84      8.64357    0.00000
   85      8.84382    0.00000
   86      9.08680    0.00000
   87      9.11387    0.00000
   88      9.38675    0.00000
   89      9.40313    0.00000
   90      9.58348    0.00000
   91      9.61823    0.00000
   92      9.72650    0.00000
   93     10.03679    0.00000
   94     10.06837    0.00000
   95     10.09150    0.00000
   96     10.25769    0.00000
   97     10.40995    0.00000


Forces in eV/Ang:
  0 C    -0.10512    0.02651   -0.02511
  1 C    -0.00534   -0.06067    0.03694
  2 C     0.04967    0.01623   -0.00751
  3 C    -0.03240   -0.05318   -0.01363
  4 C     0.01889   -0.03610   -0.05002
  5 C    -0.00134   -0.04735    0.02297
  6 C    -0.02058    0.02539   -0.02300
  7 C    -0.00163    0.02299    0.01393
  8 C     0.07481   -0.04595    0.00423
  9 C     0.00428    0.03518    0.01010
 10 C    -0.04934   -0.02272   -0.06828
 11 C     0.06746   -0.02245   -0.03497
 12 C    -0.00709    0.00514   -0.01341
 13 C     0.01045    0.04424    0.03284
 14 C    -0.05053    0.01792    0.02409
 15 C     0.00942    0.03905    0.01840
 16 C    -0.03233   -0.00542    0.04386
 17 C     0.00356   -0.01260   -0.01897
 18 C     0.01766    0.00165    0.03773
 19 C    -0.03103   -0.00528    0.00383
 20 C     0.00457   -0.01967   -0.00192
 21 C    -0.01856   -0.04067    0.01358
 22 C    -0.00367    0.02819   -0.04754
 23 C     0.03716    0.06015    0.01545

System changes: positions 

Initializing position-dependent things.

Density initialized from wave functions
           .--------------------------------------.  
          /|                                      |  
         / |                                      |  
        /  |                                      |  
       /   |                                      |  
      /    |                                      |  
     /     |                                      |  
    /      |                                      |  
   /       |                                      |  
  /        | C                                    |  
 *         |   CC       C  C                      |  
 |         |   C  C  C C  C   C                   |  
 |         .--C-------C------C-C------------------.  
 |        /   C          C  C                    /   
 |       /      C C  C  C   C C                 /    
 |      /                                      /     
 |     /                                      /      
 |    /                                      /       
 |   /                                      /        
 |  /                                      /         
 | /                                      /          
 |/                                      /           
 *--------------------------------------*            

Positions:
   0 C      5.128022    3.376051    5.261228
   1 C      4.337374    4.363326    5.345214
   2 C      4.091369    6.926852    5.347992
   3 C      4.026002    5.675923    5.381001
   4 C      4.683469    8.206805    5.172908
   5 C      6.129272    8.284011    4.936616
   6 C      2.216422   11.340521    4.931154
   7 C      3.902608    9.332392    5.117110
   8 C      3.079975   10.328829    5.016952
   9 C      7.077969    7.145416    5.073445
  10 C     10.558531    4.698775    4.502911
  11 C      7.197193    5.757296    5.123540
  12 C      8.337958    7.782643    5.224728
  13 C      9.575820    9.520606    4.472853
  14 C     10.075170    3.495533    4.621417
  15 C      7.571698    2.714498    4.981251
  16 C     10.181215    8.394480    4.232107
  17 C      9.611844    7.195883    4.821096
  18 C      9.648723    5.783726    4.743470
  19 C      8.678100    3.557847    4.881837
  20 C      8.356629    5.066837    4.968224
  21 C      6.870262    9.488181    4.714002
  22 C      8.213883    9.285927    4.903237
  23 C      6.311085    2.756750    5.126506

Unit cell:
           periodic     x           y           z      points  spacing
  1. axis:    yes   16.000000    0.000000    0.000000    80     0.2000
  2. axis:    yes    0.000000   16.000000    0.000000    80     0.2000
  3. axis:    yes    0.000000    0.000000   10.000000    48     0.2083

Effective grid spacing dv^(1/3) = 0.2027

                     log10-error:    total        iterations:
           time      wfs    density  energy       fermi  poisson
iter:   1  11:46:49          +inf  -178.291804    3      5      
iter:   2  11:46:50         -2.40  -178.287047    3      1      
iter:   3  11:46:50         -2.68  -178.286464    2      1      
iter:   4  11:46:51         -2.85  -178.284537    2      2      
iter:   5  11:46:51         -3.04  -178.284662    2      1      
iter:   6  11:46:52         -3.17  -178.285033    2      2      
iter:   7  11:46:52         -3.40  -178.284090    2      1      
iter:   8  11:46:53         -3.16  -178.284639    2      1      
iter:   9  11:46:53         -3.85  -178.284644    2      1      
iter:  10  11:46:54         -3.86  -178.284556    2      1      
iter:  11  11:46:54         -3.89  -178.284764    2      1      
iter:  12  11:46:55         -4.04  -178.284692    2      1      

Converged after 12 iterations.

Dipole moment: (0.041898, -0.761736, 0.163750) |e|*Ang

Energy contributions relative to reference atoms: (reference = -24663.074771)

Kinetic:       +108.179279
Potential:     -116.878640
External:        +0.000000
XC:            -172.482783
Entropy (-ST):   -0.211668
Local:           +3.003286
--------------------------
Free energy:   -178.390525
Extrapolated:  -178.284692

Fermi level: -4.56924

 Band  Eigenvalues  Occupancy
    0    -22.91506    2.00000
    1    -21.94286    2.00000
    2    -21.53185    2.00000
    3    -20.70918    2.00000
    4    -20.47372    2.00000
    5    -20.04863    2.00000
    6    -19.70839    2.00000
    7    -19.18263    2.00000
    8    -18.70208    2.00000
    9    -17.91688    2.00000
   10    -17.37707    2.00000
   11    -17.19900    2.00000
   12    -16.79276    2.00000
   13    -16.18045    2.00000
   14    -15.52447    2.00000
   15    -14.92130    2.00000
   16    -14.44581    2.00000
   17    -13.94261    2.00000
   18    -13.72502    2.00000
   19    -13.37224    2.00000
   20    -12.97439    2.00000
   21    -12.34327    2.00000
   22    -11.82549    2.00000
   23    -10.93568    2.00000
   24    -10.87179    2.00000
   25    -10.48081    2.00000
   26    -10.21326    2.00000
   27     -9.90617    2.00000
   28     -9.70588    2.00000
   29     -9.57620    2.00000
   30     -9.34728    2.00000
   31     -9.13211    2.00000
   32     -8.89780    2.00000
   33     -8.12780    2.00000
   34     -8.08457    2.00000
   35     -7.94241    2.00000
   36     -7.73039    2.00000
   37     -7.41899    2.00000
   38     -6.66865    2.00000
   39     -6.44097    2.00000
   40     -6.30952    2.00000
   41     -6.22183    2.00000
   42     -5.89058    2.00000
   43     -5.84059    1.99999
   44     -5.63693    1.99995
   45     -5.18737    1.99587
   46     -5.02399    1.97903
   47     -4.73405    1.67724
   48     -4.39656    0.30199
   49     -4.18039    0.04013
   50     -3.98154    0.00559
   51     -3.62846    0.00016
   52     -3.47784    0.00004
   53     -2.96432    0.00000
   54     -2.82849    0.00000
   55     -2.05078    0.00000
   56     -1.07385    0.00000
   57     -1.00455    0.00000
   58     -0.45360    0.00000
   59     -0.17302    0.00000
   60      0.44761    0.00000
   61      1.37056    0.00000
   62      1.38507    0.00000
   63      1.52391    0.00000
   64      2.37375    0.00000
   65      3.12559    0.00000
   66      3.54122    0.00000
   67      3.86071    0.00000
   68      4.16550    0.00000
   69      4.40708    0.00000
   70      4.76026    0.00000
   71      5.07689    0.00000
   72      5.57387    0.00000
   73      5.96707    0.00000
   74      6.53067    0.00000
   75      6.95746    0.00000
   76      7.18000    0.00000
   77      7.48708    0.00000
   78      7.69694    0.00000
   79      7.74346    0.00000
   80      8.02091    0.00000
   81      8.20365    0.00000
   82      8.47137    0.00000
   83      8.62553    0.00000
   84      8.64514    0.00000
   85      8.84708    0.00000
   86      9.08863    0.00000
   87      9.11723    0.00000
   88      9.38698    0.00000
   89      9.40920    0.00000
   90      9.56558    0.00000
   91      9.61289    0.00000
   92      9.72494    0.00000
   93     10.03371    0.00000
   94     10.07215    0.00000
   95     10.08850    0.00000
   96     10.25011    0.00000
   97     10.40618    0.00000


Forces in eV/Ang:
  0 C    -0.01207   -0.08409   -0.00153
  1 C    -0.03321   -0.00376    0.04054
  2 C     0.02845   -0.01448    0.00360
  3 C    -0.02712   -0.04364   -0.00497
  4 C     0.11332   -0.03327   -0.06884
  5 C     0.05577    0.01219    0.03638
  6 C     0.11192   -0.14376    0.00206
  7 C    -0.08733    0.06233    0.00594
  8 C    -0.04011    0.12936   -0.00786
  9 C    -0.01247   -0.00499   -0.01266
 10 C     0.03449   -0.02740   -0.03121
 11 C    -0.02787    0.01179    0.01930
 12 C    -0.05700    0.00761   -0.02694
 13 C    -0.00079    0.01175    0.00094
 14 C    -0.01204   -0.01993   -0.00861
 15 C    -0.03304   -0.02135    0.01784
 16 C     0.01491    0.04848    0.01402
 17 C    -0.02934    0.02272    0.02938
 18 C    -0.02816   -0.03092    0.00222
 19 C     0.05432   -0.02152   -0.00995
 20 C     0.00910    0.09533   -0.02177
 21 C    -0.01499   -0.07931    0.02382
 22 C     0.00844   -0.00341    0.00034
 23 C    -0.00453    0.10262    0.01267

System changes: positions 

Initializing position-dependent things.

Density initialized from wave functions
           .--------------------------------------.  
          /|                                      |  
         / |                                      |  
        /  |                                      |  
       /   |                                      |  
      /    |                                      |  
     /     |                                      |  
    /      |                                      |  
   /       |                                      |  
  /        |  C                                   |  
 *         |   CC       C  C                      |  
 |         |   C  C  C C  C   C                   |  
 |         .--C-------C------C-C------------------.  
 |        /   C          C  C                    /   
 |       /      C C  C  C   C C                 /    
 |      /                                      /     
 |     /                                      /      
 |    /                                      /       
 |   /                                      /        
 |  /                                      /         
 | /                                      /          
 |/                                      /           
 *--------------------------------------*            

Positions:
   0 C      5.129739    3.371812    5.265672
   1 C      4.338715    4.359669    5.348239
   2 C      4.090813    6.923636    5.348117
   3 C      4.027546    5.672429    5.382621
   4 C      4.681837    8.204152    5.170791
   5 C      6.127323    8.282401    4.937068
   6 C      2.231162   11.349785    4.934442
   7 C      3.901558    9.331307    5.114312
   8 C      3.086346   10.333661    5.013821
   9 C      7.074804    7.143452    5.071488
  10 C     10.559514    4.701097    4.505456
  11 C      7.194014    5.755146    5.122170
  12 C      8.333838    7.781672    5.223176
  13 C      9.571643    9.519948    4.472426
  14 C     10.076551    3.497357    4.620029
  15 C      7.574520    2.711805    4.981764
  16 C     10.179093    8.395222    4.232429
  17 C      9.608178    7.196459    4.820785
  18 C      9.646184    5.784201    4.743137
  19 C      8.679895    3.557195    4.880507
  20 C      8.354840    5.067099    4.966011
  21 C      6.867061    9.487053    4.715860
  22 C      8.210445    9.285117    4.904634
  23 C      6.313914    2.757077    5.129032

Unit cell:
           periodic     x           y           z      points  spacing
  1. axis:    yes   16.000000    0.000000    0.000000    80     0.2000
  2. axis:    yes    0.000000   16.000000    0.000000    80     0.2000
  3. axis:    yes    0.000000    0.000000   10.000000    48     0.2083

Effective grid spacing dv^(1/3) = 0.2027

                     log10-error:    total        iterations:
           time      wfs    density  energy       fermi  poisson
iter:   1  11:46:57          +inf  -178.287204    2      5      
iter:   2  11:46:57         -2.96  -178.286311    2      1      
iter:   3  11:46:58         -3.14  -178.285981    2      1      
iter:   4  11:46:58         -3.31  -178.286002    2      1      
iter:   5  11:46:58         -3.49  -178.285738    2      1      
iter:   6  11:46:59         -3.40  -178.286415    2      1      
iter:   7  11:46:59         -3.89  -178.286863    2      1      
iter:   8  11:47:00         -3.57  -178.286511    2      1      
iter:   9  11:47:00         -4.22  -178.286700    2      1      

Converged after 9 iterations.

Dipole moment: (0.039119, -0.764580, 0.163232) |e|*Ang

Energy contributions relative to reference atoms: (reference = -24663.074771)

Kinetic:       +108.399408
Potential:     -117.053526
External:        +0.000000
XC:            -172.531898
Entropy (-ST):   -0.211411
Local:           +3.005022
--------------------------
Free energy:   -178.392406
Extrapolated:  -178.286700

Fermi level: -4.56937

 Band  Eigenvalues  Occupancy
    0    -22.91697    2.00000
    1    -21.94021    2.00000
    2    -21.53229    2.00000
    3    -20.71078    2.00000
    4    -20.47393    2.00000
    5    -20.04889    2.00000
    6    -19.71094    2.00000
    7    -19.18797    2.00000
    8    -18.70409    2.00000
    9    -17.91555    2.00000
   10    -17.37818    2.00000
   11    -17.19790    2.00000
   12    -16.79805    2.00000
   13    -16.18382    2.00000
   14    -15.52717    2.00000
   15    -14.92095    2.00000
   16    -14.44564    2.00000
   17    -13.94126    2.00000
   18    -13.72770    2.00000
   19    -13.37350    2.00000
   20    -12.97124    2.00000
   21    -12.33944    2.00000
   22    -11.82356    2.00000
   23    -10.93308    2.00000
   24    -10.87023    2.00000
   25    -10.47923    2.00000
   26    -10.21234    2.00000
   27     -9.90791    2.00000
   28     -9.70576    2.00000
   29     -9.57632    2.00000
   30     -9.34716    2.00000
   31     -9.13185    2.00000
   32     -8.89822    2.00000
   33     -8.12984    2.00000
   34     -8.08922    2.00000
   35     -7.94621    2.00000
   36     -7.73152    2.00000
   37     -7.42162    2.00000
   38     -6.66913    2.00000
   39     -6.44054    2.00000
   40     -6.30002    2.00000
   41     -6.22205    2.00000
   42     -5.89258    2.00000
   43     -5.84025    1.99999
   44     -5.63574    1.99995
   45     -5.18791    1.99589
   46     -5.02580    1.97938
   47     -4.73437    1.67780
   48     -4.39608    0.30044
   49     -4.18179    0.04063
   50     -3.98386    0.00571
   51     -3.63016    0.00017
   52     -3.47901    0.00004
   53     -2.96875    0.00000
   54     -2.83414    0.00000
   55     -2.04952    0.00000
   56     -1.06702    0.00000
   57     -1.00505    0.00000
   58     -0.44894    0.00000
   59     -0.17765    0.00000
   60      0.45063    0.00000
   61      1.37815    0.00000
   62      1.39169    0.00000
   63      1.53918    0.00000
   64      2.37562    0.00000
   65      3.13057    0.00000
   66      3.54603    0.00000
   67      3.86297    0.00000
   68      4.17348    0.00000
   69      4.39983    0.00000
   70      4.76128    0.00000
   71      5.06987    0.00000
   72      5.56912    0.00000
   73      5.97569    0.00000
   74      6.53714    0.00000
   75      6.96226    0.00000
   76      7.17549    0.00000
   77      7.49630    0.00000
   78      7.69655    0.00000
   79      7.74225    0.00000
   80      8.02921    0.00000
   81      8.20261    0.00000
   82      8.47356    0.00000
   83      8.62261    0.00000
   84      8.64387    0.00000
   85      8.85097    0.00000
   86      9.08986    0.00000
   87      9.12169    0.00000
   88      9.38743    0.00000
   89      9.41007    0.00000
   90      9.56992    0.00000
   91      9.61369    0.00000
   92      9.72594    0.00000
   93     10.03490    0.00000
   94     10.07088    0.00000
   95     10.08760    0.00000
   96     10.25499    0.00000
   97     10.40785    0.00000


Forces in eV/Ang:
  0 C    -0.06666   -0.02044   -0.00577
  1 C    -0.00987   -0.02755    0.03492
  2 C     0.02326   -0.01093   -0.00347
  3 C    -0.03024   -0.03615   -0.00822
  4 C     0.05172   -0.01076   -0.05202
  5 C     0.02807   -0.00510    0.02692
  6 C     0.06078   -0.01465   -0.00023
  7 C    -0.05235    0.01457   -0.00030
  8 C     0.02448    0.02443    0.00210
  9 C     0.00287    0.00707   -0.00627
 10 C     0.03363   -0.02039   -0.02302
 11 C    -0.03106    0.00161    0.00213
 12 C    -0.03237    0.00528   -0.02393
 13 C    -0.00849    0.01557    0.00248
 14 C    -0.00996   -0.03854   -0.01390
 15 C    -0.03261   -0.00500    0.01490
 16 C     0.01136    0.03898    0.02760
 17 C    -0.01359    0.01373    0.02087
 18 C    -0.00502   -0.01606   -0.00058
 19 C     0.01522   -0.01541   -0.00674
 20 C     0.01759    0.04725   -0.01495
 21 C    -0.01260   -0.06244    0.01140
 22 C     0.00381    0.00213   -0.00779
 23 C     0.02963    0.06755    0.00699

