
  ___ ___ ___ _ _ _  
 |   |   |_  | | | | 
 | | | | | . | | | | 
 |__ |  _|___|_____|  1.3.0b1
 |___|_|             

User:   esb@s65n71.grendel.cscaa.dk
Date:   Wed Nov  8 15:13:06 2017
Arch:   x86_64
Pid:    56127
Python: 2.7.13
gpaw:   /home/esb/DFT/gpaw_git/gpaw
_gpaw:  /home/esb/DFT/gpaw_git/build/bin.linux-x86_64-2.7/gpaw-python
ase:    /home/esb/DFT/ase_git/ase (version 3.15.0b1)
numpy:  /comm/swstack/core/python/2.7.13/lib/python2.7/site-packages/numpy (version 1.13.3)
scipy:  /comm/swstack/core/python/2.7.13/lib/python2.7/site-packages/scipy (version 0.19.1)
units:  Angstrom and eV
cores:  16
Extra parameters: {'blacs': True}

Input parameters:
  basis: dzp
  gpts: [80 80 48]
  kpts: [1 1 1]
  maxiter: 99
  mixer: {backend: pulay,
          beta: 0.05,
          method: separate,
          nmaxold: 5,
          weight: 75}
  mode: lcao
  nbands: -50
  occupations: {name: fermi-dirac,
                width: 0.1}
  poissonsolver: {eps: 1e-07,
                  name: fd,
                  nn: 3,
                  relax: GS}
  xc: PBE

System changes: positions, numbers, cell, pbc, initial_charges, initial_magmoms 

Initialize ...

C-setup:
  name: Carbon
  id: 4aa54d4b901d75f77cc0ea3eec22967b
  Z: 6
  valence: 4
  core: 2
  charge: 0.0
  file: /home/esb/DFT/gpaw-setups-0.8.7929/C.PBE.gz
  cutoffs: 0.64(comp), 1.14(filt), 1.14(core), lmax=2
  valence states:
                energy  radius
    2s(2.00)   -13.751   0.635
    2p(2.00)    -5.284   0.635
    *s          13.461   0.635
    *p          21.927   0.635
    *d           0.000   0.635

  LCAO basis set for C:
    Name: dzp
    File: /home/esb/DFT/gpaw-setups-0.8.7929/C.dzp.basis.gz
    Number of radial functions: 5
    Number of spherical harmonics: 13
      l=0, rc=5.5469 Bohr: 2s-sz confined orbital
      l=1, rc=6.6719 Bohr: 2p-sz confined orbital
      l=0, rc=3.0312 Bohr: 2s-dz split-valence wave
      l=1, rc=3.7500 Bohr: 2p-dz split-valence wave
      l=2, rc=6.6719 Bohr: d-type Gaussian polarization

Reference energy: -24663.074771

Spin-paired calculation

Occupation numbers:
  Fermi-Dirac: width=0.1000 eV

Convergence criteria:
  Maximum total energy change: 0.0005 eV / electron
  Maximum integral of absolute density change: 0.0001 electrons
  Maximum integral of absolute eigenstate change: 4e-08 eV^2
  Maximum number of iterations: 99

Symmetries present (total): 1

  ( 1  0  0)
  ( 0  1  0)
  ( 0  0  1)

1 k-point (Gamma)
1 k-point in the irreducible part of the Brillouin zone
       k-points in crystal coordinates                weights
   0:     0.00000000    0.00000000    0.00000000          1/1

Wave functions: LCAO
  Diagonalizer: Serial LAPACK
  Atomic Correction: dense with blas
  Datatype: float
  Eigensolver: None 

LCAO using direct dense diagonalizer 

Densities:
  Coarse grid: 80*80*48 grid
  Fine grid: 160*160*96 grid
  Total Charge: 0.000000 

Density mixing:
  Method: separate
  Backend: pulay
  Linear mixing parameter: 0.05
  Mixing with 5 old densities
  Damping of long wave oscillations: 75 

Hamiltonian:
  XC and Coulomb potentials evaluated on a 160*160*96 grid
  Using the PBE Exchange-Correlation functional
  Interpolation: tri-quintic (5. degree polynomial)
  Poisson solver: Gauss-Seidel solver with 6 multi-grid levels
    Coarsest grid: 5 x 5 x 3 points
    Stencil: 6*3+1=19 point O(h^6) finite-difference Laplacian
    Max iterations: 1000
    Tolerance: 1.000000e-07 

Memory estimate:
  Process memory now: 77.59 MiB
  Calculator: 15.59 MiB
    Density: 6.13 MiB
      Arrays: 3.81 MiB
      Localized functions: 0.86 MiB
      Mixer: 1.46 MiB
    Hamiltonian: 5.40 MiB
      Arrays: 2.49 MiB
      XC: 0.00 MiB
      Poisson: 2.85 MiB
      vbar: 0.07 MiB
    Wavefunctions: 4.05 MiB
      C [qnM]: 0.23 MiB
      S, T [2 x qmm]: 1.49 MiB
      P [aqMi]: 0.01 MiB
      TCI: 0.00 MiB
      BasisFunctions: 2.33 MiB
      Eigensolver: 0.00 MiB

Total number of cores used: 16
Domain decomposition: 2 x 4 x 2

Number of atoms: 24
Number of atomic orbitals: 312
Number of bands in calculation: 98
Bands to converge: occupied states only
Number of valence electrons: 96

... initialized

Initializing position-dependent things.

Density initialized from atomic densities
           .--------------------------------------.  
          /|                                      |  
         / |                                      |  
        /  |                                      |  
       /   |                                      |  
      /    |                                      |  
     /     |                                      |  
    /      |                                      |  
   /       |                C                     |  
  /        |     C       C  C                     |  
 *         |           C C    C   C               |  
 |         |    CC      C      CC C               |  
 |         .---C-----C-----C----C-----------------.  
 |        /     C     C  CC  C                   /   
 |       /         C                            /    
 |      /                                      /     
 |     /                                      /      
 |    /                                      /       
 |   /                                      /        
 |  /                                      /         
 | /                                      /          
 |/                                      /           
 *--------------------------------------*            

Positions:
   0 C      7.526224    4.283557    5.028561
   1 C      6.301740   10.752036    4.783200
   2 C      6.310243    7.499682    4.824957
   3 C      8.618784   10.364209    5.406035
   4 C      7.508154    8.256990    5.042147
   5 C      7.935361   12.511924    5.010073
   6 C     12.080157    6.457487    5.861338
   7 C      7.416248    9.756505    5.013305
   8 C      6.746221   12.087455    4.794291
   9 C      8.437416    5.146799    5.216975
  10 C      6.220952    4.376574    4.754138
  11 C     11.313607    5.774373    5.072100
  12 C     10.056407    5.001855    5.263634
  13 C      3.612157    9.312026    4.607643
  14 C      4.595847    5.718686    4.542000
  15 C     10.649089    8.379017    5.152954
  16 C     10.502130    7.003269    5.223303
  17 C      9.240496    3.908575    5.237569
  18 C     10.902976    9.718310    5.197789
  19 C      9.241639    6.274004    5.365018
  20 C      3.662129   10.546018    4.960730
  21 C      4.457848    8.192534    4.651800
  22 C      4.058217    6.864453    4.413628
  23 C      9.476877    9.461116    5.164852

Unit cell:
           periodic     x           y           z      points  spacing
  1. axis:    yes   16.000000    0.000000    0.000000    80     0.2000
  2. axis:    yes    0.000000   16.000000    0.000000    80     0.2000
  3. axis:    yes    0.000000    0.000000   10.000000    48     0.2083

Effective grid spacing dv^(1/3) = 0.2027

                     log10-error:    total        iterations:
           time      wfs    density  energy       fermi  poisson
iter:   1  15:13:08          +inf  -157.598345    3      6      
iter:   2  15:13:09         -0.89  -156.296981    3      3      
iter:   3  15:13:09         -0.93  -155.535342    3      3      
iter:   4  15:13:10         -0.97  -154.095329    4      3      
iter:   5  15:13:11         -1.11  -153.666686    3      3      
iter:   6  15:13:11         -1.22  -153.325030    4      3      
iter:   7  15:13:12         -1.41  -153.182288    33     3      
iter:   8  15:13:13         -1.67  -153.176406    3      2      
iter:   9  15:13:13         -1.76  -153.170800    2      2      
iter:  10  15:13:14         -1.84  -153.164585    3      3      
iter:  11  15:13:15         -1.98  -153.160688    3      2      
iter:  12  15:13:15         -2.09  -153.154732    3      2      
iter:  13  15:13:16         -2.30  -153.148835    3      2      
iter:  14  15:13:17         -2.56  -153.140629    2      2      
iter:  15  15:13:17         -2.65  -153.138110    2      2      
iter:  16  15:13:18         -2.87  -153.138294    2      2      
iter:  17  15:13:18         -3.06  -153.139079    2      1      
iter:  18  15:13:19         -3.13  -153.140471    2      1      
iter:  19  15:13:19         -3.23  -153.140199    2      1      
iter:  20  15:13:20         -3.36  -153.137769    2      1      
iter:  21  15:13:21         -3.49  -153.136834    2      1      
iter:  22  15:13:21         -3.59  -153.137565    2      1      
iter:  23  15:13:22         -3.69  -153.137552    2      1      
iter:  24  15:13:22         -3.79  -153.138010    2      1      
iter:  25  15:13:23         -3.88  -153.136759    2      1      
iter:  26  15:13:23         -4.10  -153.137444    2      1      

Converged after 26 iterations.

Dipole moment: (0.406338, -0.869655, -0.177934) |e|*Ang

Energy contributions relative to reference atoms: (reference = -24663.074771)

Kinetic:       +121.544592
Potential:     -117.961574
External:        +0.000000
XC:            -159.232102
Entropy (-ST):   -0.594701
Local:           +2.808991
--------------------------
Free energy:   -153.434795
Extrapolated:  -153.137444

Fermi level: -4.84410

 Band  Eigenvalues  Occupancy
    0    -26.30216    2.00000
    1    -24.07788    2.00000
    2    -23.11274    2.00000
    3    -21.50937    2.00000
    4    -21.02520    2.00000
    5    -20.40241    2.00000
    6    -19.66416    2.00000
    7    -19.04118    2.00000
    8    -18.80112    2.00000
    9    -18.43830    2.00000
   10    -17.82715    2.00000
   11    -16.86835    2.00000
   12    -16.65022    2.00000
   13    -16.42550    2.00000
   14    -16.28805    2.00000
   15    -14.59102    2.00000
   16    -13.45651    2.00000
   17    -13.02963    2.00000
   18    -12.71364    2.00000
   19    -12.49490    2.00000
   20    -12.13710    2.00000
   21    -11.81043    2.00000
   22    -11.03961    2.00000
   23    -10.91571    2.00000
   24    -10.77081    2.00000
   25    -10.32815    2.00000
   26    -10.02783    2.00000
   27    -10.00674    2.00000
   28     -9.30783    2.00000
   29     -9.00462    2.00000
   30     -8.77602    2.00000
   31     -8.65589    2.00000
   32     -7.86669    2.00000
   33     -7.84878    2.00000
   34     -7.62302    2.00000
   35     -7.37413    2.00000
   36     -7.13331    2.00000
   37     -7.03911    2.00000
   38     -6.90064    2.00000
   39     -6.86879    2.00000
   40     -6.69078    2.00000
   41     -6.22551    2.00000
   42     -5.99872    1.99998
   43     -5.77037    1.99981
   44     -5.72360    1.99970
   45     -5.09127    1.84426
   46     -4.96290    1.53276
   47     -4.90633    1.30148
   48     -4.77413    0.66376
   49     -4.72496    0.46602
   50     -4.61759    0.18811
   51     -4.18796    0.00282
   52     -4.07213    0.00089
   53     -3.99388    0.00041
   54     -3.66820    0.00002
   55     -2.83550    0.00000
   56     -2.28691    0.00000
   57     -1.48320    0.00000
   58     -1.41034    0.00000
   59     -1.19007    0.00000
   60     -0.94804    0.00000
   61     -0.66429    0.00000
   62     -0.35872    0.00000
   63     -0.12094    0.00000
   64      0.08000    0.00000
   65      0.37648    0.00000
   66      0.58182    0.00000
   67      1.13280    0.00000
   68      1.37599    0.00000
   69      1.54053    0.00000
   70      2.21274    0.00000
   71      2.46239    0.00000
   72      2.71637    0.00000
   73      3.25018    0.00000
   74      4.11209    0.00000
   75      4.51878    0.00000
   76      5.21359    0.00000
   77      5.58564    0.00000
   78      6.15044    0.00000
   79      6.91897    0.00000
   80      7.13481    0.00000
   81      7.38319    0.00000
   82      7.63588    0.00000
   83      7.67552    0.00000
   84      8.10939    0.00000
   85      8.59663    0.00000
   86      8.71261    0.00000
   87      8.90073    0.00000
   88      8.96406    0.00000
   89      9.02345    0.00000
   90      9.13098    0.00000
   91      9.28666    0.00000
   92      9.41996    0.00000
   93      9.51840    0.00000
   94      9.62993    0.00000
   95      9.84736    0.00000
   96      9.93541    0.00000
   97      9.96412    0.00000


Forces in eV/Ang:
  0 C    -5.00733   -2.74714   -1.66103
  1 C     2.20616    1.18566    0.36273
  2 C     2.12382    2.33230    0.47323
  3 C    -4.36595    2.51242    0.48058
  4 C    -4.29459    0.36174   -0.78413
  5 C     2.39695    0.35501    0.37125
  6 C     2.36985    1.22150    1.80300
  7 C    -4.29407   -0.26530   -0.39145
  8 C    -3.32329   -2.98363   -0.29385
  9 C     2.30725    7.76409    0.63414
 10 C    -1.91823   -0.06392   -0.68746
 11 C    -0.11756   -3.41136   -2.31461
 12 C     2.43070   -1.70544    0.24058
 13 C     2.92209   -2.96768    0.02514
 14 C     1.39528   -2.78004    0.55740
 15 C    -0.51854    1.92563   -0.18845
 16 C    -3.41708    1.49899    0.31502
 17 C     0.80944   -4.20326    0.55919
 18 C     2.40840   -1.21240   -0.64266
 19 C     0.47786    1.86087    0.85519
 20 C     0.36978    2.46840    0.51192
 21 C    -1.43630   -0.35616   -0.79283
 22 C     0.31295    0.70116    0.19025
 23 C     6.06444   -1.51243    0.37462

System changes: positions 

Initializing position-dependent things.

Density initialized from wave functions
           .--------------------------------------.  
          /|                                      |  
         / |                                      |  
        /  |                                      |  
       /   |                                      |  
      /    |                                      |  
     /     |                                      |  
    /      |                                      |  
   /       |                C                     |  
  /        |     C       C  C                     |  
 *         |           C C    C   C               |  
 |         |    CC      C      CC  C              |  
 |         .---C-----C---C-C----C-----------------.  
 |        /     C     C   C  C                   /   
 |       /         C                            /    
 |      /                                      /     
 |     /                                      /      
 |    /                                      /       
 |   /                                      /        
 |  /                                      /         
 | /                                      /          
 |/                                      /           
 *--------------------------------------*            

Positions:
   0 C      7.501571    4.270032    5.020383
   1 C      6.312602   10.757874    4.784986
   2 C      6.320700    7.511165    4.827287
   3 C      8.597289   10.376579    5.408401
   4 C      7.487010    8.258771    5.038286
   5 C      7.947162   12.513672    5.011901
   6 C     12.091824    6.463501    5.870215
   7 C      7.395106    9.755199    5.011378
   8 C      6.729859   12.072765    4.792844
   9 C      8.448775    5.185025    5.220097
  10 C      6.211507    4.376259    4.750753
  11 C     11.313028    5.757578    5.060704
  12 C     10.068374    4.993458    5.264819
  13 C      3.626544    9.297415    4.607766
  14 C      4.602717    5.704999    4.544744
  15 C     10.646536    8.388498    5.152027
  16 C     10.485307    7.010650    5.224854
  17 C      9.244481    3.887881    5.240322
  18 C     10.914834    9.712341    5.194624
  19 C      9.243992    6.283166    5.369228
  20 C      3.663950   10.558170    4.963251
  21 C      4.450776    8.190781    4.647896
  22 C      4.059758    6.867905    4.414565
  23 C      9.506735    9.453669    5.166696

Unit cell:
           periodic     x           y           z      points  spacing
  1. axis:    yes   16.000000    0.000000    0.000000    80     0.2000
  2. axis:    yes    0.000000   16.000000    0.000000    80     0.2000
  3. axis:    yes    0.000000    0.000000   10.000000    48     0.2083

Effective grid spacing dv^(1/3) = 0.2027

                     log10-error:    total        iterations:
           time      wfs    density  energy       fermi  poisson
iter:   1  15:13:25          +inf  -155.048578    4      5      
iter:   2  15:13:26         -1.50  -154.730533    3      2      
iter:   3  15:13:26         -1.77  -154.671530    2      2      
iter:   4  15:13:27         -1.88  -154.635112    2      2      
iter:   5  15:13:28         -1.99  -154.607919    2      2      
iter:   6  15:13:28         -2.17  -154.606389    3      2      
iter:   7  15:13:29         -2.28  -154.598311    2      2      
iter:   8  15:13:29         -2.44  -154.598254    2      2      
iter:   9  15:13:30         -2.56  -154.596425    2      2      
iter:  10  15:13:31         -2.84  -154.595454    2      2      
iter:  11  15:13:31         -3.02  -154.596909    2      1      
iter:  12  15:13:32         -3.14  -154.596595    2      1      
iter:  13  15:13:32         -3.33  -154.595040    2      1      
iter:  14  15:13:33         -3.42  -154.595169    2      1      
iter:  15  15:13:33         -3.53  -154.594959    2      1      
iter:  16  15:13:34         -3.63  -154.594951    2      1      
iter:  17  15:13:34         -3.69  -154.594429    2      1      
iter:  18  15:13:35         -3.87  -154.594638    2      1      
iter:  19  15:13:35         -4.05  -154.594858    2      1      

Converged after 19 iterations.

Dipole moment: (0.346978, -0.834271, -0.170428) |e|*Ang

Energy contributions relative to reference atoms: (reference = -24663.074771)

Kinetic:       +109.154232
Potential:     -109.212595
External:        +0.000000
XC:            -157.035405
Entropy (-ST):   -0.594245
Local:           +2.796033
--------------------------
Free energy:   -154.891980
Extrapolated:  -154.594858

Fermi level: -4.81517

 Band  Eigenvalues  Occupancy
    0    -26.10371    2.00000
    1    -23.81270    2.00000
    2    -23.12365    2.00000
    3    -21.46198    2.00000
    4    -20.73357    2.00000
    5    -20.43654    2.00000
    6    -19.57384    2.00000
    7    -19.01794    2.00000
    8    -18.73917    2.00000
    9    -18.38466    2.00000
   10    -17.82908    2.00000
   11    -16.94077    2.00000
   12    -16.63386    2.00000
   13    -16.39243    2.00000
   14    -16.09452    2.00000
   15    -14.57181    2.00000
   16    -13.56177    2.00000
   17    -13.04946    2.00000
   18    -12.79028    2.00000
   19    -12.46894    2.00000
   20    -12.09672    2.00000
   21    -11.78087    2.00000
   22    -11.02661    2.00000
   23    -10.77814    2.00000
   24    -10.75021    2.00000
   25    -10.28092    2.00000
   26    -10.05502    2.00000
   27     -9.89618    2.00000
   28     -9.32442    2.00000
   29     -8.99198    2.00000
   30     -8.79858    2.00000
   31     -8.70131    2.00000
   32     -7.90793    2.00000
   33     -7.82148    2.00000
   34     -7.61890    2.00000
   35     -7.36111    2.00000
   36     -7.10965    2.00000
   37     -7.01887    2.00000
   38     -6.94745    2.00000
   39     -6.87640    2.00000
   40     -6.67040    2.00000
   41     -6.22017    2.00000
   42     -5.96480    1.99998
   43     -5.83304    1.99992
   44     -5.69865    1.99971
   45     -5.02062    1.77279
   46     -4.94488    1.57067
   47     -4.89836    1.39348
   48     -4.73237    0.60811
   49     -4.69758    0.47156
   50     -4.58284    0.17842
   51     -4.19268    0.00395
   52     -4.06336    0.00109
   53     -3.93570    0.00030
   54     -3.57710    0.00001
   55     -2.82852    0.00000
   56     -2.23455    0.00000
   57     -1.61236    0.00000
   58     -1.43858    0.00000
   59     -1.26103    0.00000
   60     -0.93427    0.00000
   61     -0.68355    0.00000
   62     -0.44325    0.00000
   63     -0.24068    0.00000
   64      0.03411    0.00000
   65      0.41927    0.00000
   66      0.51868    0.00000
   67      1.04381    0.00000
   68      1.29976    0.00000
   69      1.51632    0.00000
   70      2.23149    0.00000
   71      2.31662    0.00000
   72      2.70084    0.00000
   73      3.14783    0.00000
   74      4.01776    0.00000
   75      4.43692    0.00000
   76      5.03679    0.00000
   77      5.76797    0.00000
   78      6.16345    0.00000
   79      6.95393    0.00000
   80      7.07220    0.00000
   81      7.37096    0.00000
   82      7.50720    0.00000
   83      7.62736    0.00000
   84      8.08789    0.00000
   85      8.65648    0.00000
   86      8.75585    0.00000
   87      8.89388    0.00000
   88      8.96450    0.00000
   89      9.02444    0.00000
   90      9.14700    0.00000
   91      9.34039    0.00000
   92      9.40020    0.00000
   93      9.56969    0.00000
   94      9.65280    0.00000
   95      9.84429    0.00000
   96      9.89570    0.00000
   97      9.98760    0.00000


Forces in eV/Ang:
  0 C    -1.59418   -0.52634   -0.82619
  1 C     1.66356    0.71418    0.18922
  2 C     1.93033    2.11641    0.42780
  3 C    -2.45392    0.50768   -0.02338
  4 C    -4.05581    0.57752   -0.71638
  5 C     0.92636   -0.17928    0.07121
  6 C     1.27703    0.32720    0.75332
  7 C    -3.27603   -0.29251   -0.25082
  8 C    -1.55750   -1.92655    0.07016
  9 C     0.05063    4.45817    0.03123
 10 C    -2.18138    0.40269   -0.75255
 11 C     0.35831   -1.71132   -1.13430
 12 C     1.48540   -2.61578    0.19840
 13 C     2.52886   -0.88804    0.42564
 14 C     0.84244   -1.90947    0.45365
 15 C    -0.91923    0.57310   -0.20043
 16 C    -2.23446    1.14462    0.19320
 17 C     0.73619   -3.16624    0.43330
 18 C     2.61565   -0.05872   -0.57869
 19 C     0.19724    2.22308    0.83155
 20 C     0.25720    0.98836    0.09502
 21 C    -1.06346   -0.72528   -0.73870
 22 C     0.80095   -0.66135    0.24941
 23 C     3.69101    0.53725    0.80877

System changes: positions 

Initializing position-dependent things.

Density initialized from wave functions
           .--------------------------------------.  
          /|                                      |  
         / |                                      |  
        /  |                                      |  
       /   |                                      |  
      /    |                                      |  
     /     |                                      |  
    /      |                                      |  
   /       |                C                     |  
  /        |     C       C  C                     |  
 *         |           C C    C   C               |  
 |         |    CC   C  C      CC  C              |  
 |         .---C---------C-C----C-----------------.  
 |        /     C     C   C  C                   /   
 |       /         C                            /    
 |      /                                      /     
 |     /                                      /      
 |    /                                      /       
 |   /                                      /        
 |  /                                      /         
 | /                                      /          
 |/                                      /           
 *--------------------------------------*            

Positions:
   0 C      7.495201    4.270871    5.014569
   1 C      6.327371   10.763573    4.786365
   2 C      6.339010    7.531230    4.831338
   3 C      8.578493   10.376138    5.406817
   4 C      7.448086    8.264986    5.031480
   5 C      7.952243   12.510485    5.011788
   6 C     12.101342    6.464287    5.874740
   7 C      7.365886    9.752272    5.009310
   8 C      6.719416   12.056815    4.794508
   9 C      8.443198    5.219623    5.218780
  10 C      6.189519    4.381443    4.743236
  11 C     11.317804    5.745457    5.052814
  12 C     10.080322    4.965491    5.266641
  13 C      3.650156    9.294346    4.612996
  14 C      4.609448    5.688713    4.548891
  15 C     10.636491    8.390450    5.150039
  16 C     10.466690    7.020862    5.226411
  17 C      9.251466    3.859782    5.244210
  18 C     10.940908    9.714872    5.189151
  19 C      9.245161    6.305828    5.377277
  20 C      3.666156   10.563831    4.963056
  21 C      4.441405    8.182712    4.640835
  22 C      4.068884    6.857788    4.417157
  23 C      9.536357    9.464425    5.175754

Unit cell:
           periodic     x           y           z      points  spacing
  1. axis:    yes   16.000000    0.000000    0.000000    80     0.2000
  2. axis:    yes    0.000000   16.000000    0.000000    80     0.2000
  3. axis:    yes    0.000000    0.000000   10.000000    48     0.2083

Effective grid spacing dv^(1/3) = 0.2027

                     log10-error:    total        iterations:
           time      wfs    density  energy       fermi  poisson
iter:   1  15:13:37          +inf  -156.830948    4      5      
iter:   2  15:13:38         -1.33  -155.989392    4      2      
iter:   3  15:13:38         -1.73  -155.911652    2      2      
iter:   4  15:13:39         -1.90  -155.882014    2      2      
iter:   5  15:13:40         -1.97  -155.850081    2      2      
iter:   6  15:13:40         -2.15  -155.849155    3      2      
iter:   7  15:13:41         -2.24  -155.836127    2      2      
iter:   8  15:13:41         -2.35  -155.838014    2      2      
iter:   9  15:13:42         -2.57  -155.836071    2      2      
iter:  10  15:13:43         -2.75  -155.835483    2      2      
iter:  11  15:13:43         -3.01  -155.836110    2      1      
iter:  12  15:13:44         -3.09  -155.836345    2      1      
iter:  13  15:13:44         -3.19  -155.836415    2      1      
iter:  14  15:13:45         -3.32  -155.836016    2      1      
iter:  15  15:13:45         -3.54  -155.835678    2      1      
iter:  16  15:13:46         -3.66  -155.835546    2      1      
iter:  17  15:13:46         -3.74  -155.835522    2      1      
iter:  18  15:13:47         -3.97  -155.835624    2      1      
iter:  19  15:13:47         -4.10  -155.835621    2      1      

Converged after 19 iterations.

Dipole moment: (0.279729, -0.833156, -0.161226) |e|*Ang

Energy contributions relative to reference atoms: (reference = -24663.074771)

Kinetic:       +101.103902
Potential:     -103.568320
External:        +0.000000
XC:            -155.891373
Entropy (-ST):   -0.562435
Local:           +2.801387
--------------------------
Free energy:   -156.116838
Extrapolated:  -155.835621

Fermi level: -4.79466

 Band  Eigenvalues  Occupancy
    0    -25.75141    2.00000
    1    -23.58556    2.00000
    2    -22.95086    2.00000
    3    -21.47063    2.00000
    4    -20.50843    2.00000
    5    -20.43315    2.00000
    6    -19.54476    2.00000
    7    -19.03747    2.00000
    8    -18.74438    2.00000
    9    -18.33796    2.00000
   10    -17.88620    2.00000
   11    -16.96285    2.00000
   12    -16.66441    2.00000
   13    -16.44973    2.00000
   14    -15.88901    2.00000
   15    -14.62731    2.00000
   16    -13.68611    2.00000
   17    -13.13949    2.00000
   18    -12.85987    2.00000
   19    -12.46274    2.00000
   20    -11.98664    2.00000
   21    -11.78404    2.00000
   22    -11.02827    2.00000
   23    -10.85948    2.00000
   24    -10.61201    2.00000
   25    -10.24683    2.00000
   26    -10.10663    2.00000
   27     -9.83607    2.00000
   28     -9.34327    2.00000
   29     -8.98503    2.00000
   30     -8.84371    2.00000
   31     -8.75000    2.00000
   32     -7.92044    2.00000
   33     -7.76943    2.00000
   34     -7.63392    2.00000
   35     -7.38008    2.00000
   36     -7.11987    2.00000
   37     -7.06747    2.00000
   38     -6.98378    2.00000
   39     -6.88231    2.00000
   40     -6.67072    2.00000
   41     -6.21912    2.00000
   42     -5.95893    1.99998
   43     -5.89829    1.99997
   44     -5.68868    1.99974
   45     -4.99289    1.75787
   46     -4.93924    1.61870
   47     -4.90293    1.49403
   48     -4.70735    0.58925
   49     -4.65135    0.38524
   50     -4.54089    0.14651
   51     -4.22799    0.00689
   52     -4.08634    0.00168
   53     -3.83709    0.00014
   54     -3.52318    0.00001
   55     -2.87327    0.00000
   56     -2.16497    0.00000
   57     -1.66675    0.00000
   58     -1.41299    0.00000
   59     -1.27979    0.00000
   60     -0.87806    0.00000
   61     -0.73932    0.00000
   62     -0.40951    0.00000
   63     -0.30224    0.00000
   64     -0.00361    0.00000
   65      0.33474    0.00000
   66      0.61064    0.00000
   67      0.95145    0.00000
   68      1.26862    0.00000
   69      1.64808    0.00000
   70      2.02856    0.00000
   71      2.36627    0.00000
   72      2.76834    0.00000
   73      2.91680    0.00000
   74      3.93129    0.00000
   75      4.27369    0.00000
   76      4.80044    0.00000
   77      5.99275    0.00000
   78      6.11590    0.00000
   79      6.76000    0.00000
   80      7.02510    0.00000
   81      7.34378    0.00000
   82      7.50062    0.00000
   83      7.66354    0.00000
   84      8.12359    0.00000
   85      8.64999    0.00000
   86      8.76250    0.00000
   87      8.86410    0.00000
   88      9.02755    0.00000
   89      9.04043    0.00000
   90      9.13894    0.00000
   91      9.33083    0.00000
   92      9.40955    0.00000
   93      9.61739    0.00000
   94      9.69581    0.00000
   95      9.81690    0.00000
   96      9.88859    0.00000
   97     10.00455    0.00000


Forces in eV/Ang:
  0 C    -1.11894    0.24499   -0.48965
  1 C     1.01494    0.05722    0.05066
  2 C     0.99036    1.68022    0.31611
  3 C    -1.67381   -0.42838   -0.34392
  4 C    -3.25709    1.09482   -0.54181
  5 C     0.27076   -0.41805   -0.05874
  6 C     0.71858   -0.08635    0.24459
  7 C    -2.00940   -0.29700    0.02521
  8 C    -0.60140   -0.83166    0.24092
  9 C     0.29832    3.78146   -0.05317
 10 C    -1.44555    0.68764   -0.69178
 11 C     0.03329   -0.83042   -0.31368
 12 C     0.51435   -2.61466    0.11430
 13 C     2.20760   -0.26101    0.49148
 14 C     0.59398   -1.61896    0.46532
 15 C    -1.01495    0.67782   -0.19406
 16 C    -1.06530    0.62029    0.03555
 17 C     0.54823   -2.39304    0.15853
 18 C     2.34349    0.13491   -0.49402
 19 C    -0.77361    1.25940    0.63885
 20 C     0.24086    0.62456   -0.00193
 21 C    -0.68973   -1.22798   -0.69564
 22 C     0.98321   -1.35325    0.21171
 23 C     2.90075    1.44603    0.87536

System changes: positions 

Initializing position-dependent things.

Density initialized from wave functions
           .--------------------------------------.  
          /|                                      |  
         / |                                      |  
        /  |                                      |  
       /   |                                      |  
      /    |                                      |  
     /     |                                      |  
    /      |                                      |  
   /       |                C                     |  
  /        |     C       C  C                     |  
 *         |           C C    C   C               |  
 |         |    CC   C  C      CC  C              |  
 |         .---C---------C-C----C-----------------.  
 |        /     C     C   C  C                   /   
 |       /         C                            /    
 |      /                                      /     
 |     /                                      /      
 |    /                                      /       
 |   /                                      /        
 |  /                                      /         
 | /                                      /          
 |/                                      /           
 *--------------------------------------*            

Positions:
   0 C      7.486403    4.276408    5.009926
   1 C      6.338431   10.763647    4.786737
   2 C      6.350201    7.550382    4.834935
   3 C      8.561474   10.368738    5.402223
   4 C      7.410741    8.277917    5.025303
   5 C      7.953579   12.505001    5.010743
   6 C     12.108314    6.462197    5.876286
   7 C      7.343919    9.748806    5.009778
   8 C      6.714622   12.048506    4.797737
   9 C      8.443927    5.259326    5.217434
  10 C      6.172509    4.389964    4.735162
  11 C     11.318755    5.737934    5.050635
  12 C     10.085101    4.934164    5.267909
  13 C      3.675194    9.293858    4.619164
  14 C      4.615640    5.671057    4.554145
  15 C     10.624270    8.396654    5.147781
  16 C     10.455834    7.027591    5.226671
  17 C      9.257710    3.833391    5.245884
  18 C     10.968244    9.717831    5.183519
  19 C      9.235853    6.320800    5.384629
  20 C      3.668804   10.569253    4.962527
  21 C      4.433892    8.168056    4.632860
  22 C      4.080845    6.840479    4.419675
  23 C      9.567003    9.483642    5.186400

Unit cell:
           periodic     x           y           z      points  spacing
  1. axis:    yes   16.000000    0.000000    0.000000    80     0.2000
  2. axis:    yes    0.000000   16.000000    0.000000    80     0.2000
  3. axis:    yes    0.000000    0.000000   10.000000    48     0.2083

Effective grid spacing dv^(1/3) = 0.2027

                     log10-error:    total        iterations:
           time      wfs    density  energy       fermi  poisson
iter:   1  15:13:49          +inf  -157.470229    4      5      
iter:   2  15:13:50         -1.41  -156.931758    3      2      
iter:   3  15:13:50         -1.85  -156.894198    2      2      
iter:   4  15:13:51         -1.97  -156.870907    2      2      
iter:   5  15:13:51         -2.05  -156.850078    2      2      
iter:   6  15:13:52         -2.20  -156.849392    2      2      
iter:   7  15:13:53         -2.36  -156.839287    2      2      
iter:   8  15:13:53         -2.51  -156.839807    2      2      
iter:   9  15:13:54         -2.67  -156.838712    2      2      
iter:  10  15:13:54         -2.88  -156.838712    2      2      
iter:  11  15:13:55         -3.13  -156.839376    2      1      
iter:  12  15:13:55         -3.20  -156.839477    2      1      
iter:  13  15:13:56         -3.31  -156.839660    2      1      
iter:  14  15:13:57         -3.50  -156.839119    2      1      
iter:  15  15:13:57         -3.62  -156.838772    2      1      
iter:  16  15:13:58         -3.76  -156.838944    2      1      
iter:  17  15:13:58         -3.83  -156.839113    2      1      
iter:  18  15:13:59         -4.01  -156.839001    2      1      

Converged after 18 iterations.

Dipole moment: (0.225550, -0.843509, -0.153391) |e|*Ang

Energy contributions relative to reference atoms: (reference = -24663.074771)

Kinetic:        +96.839113
Potential:     -100.625140
External:        +0.000000
XC:            -155.619692
Entropy (-ST):   -0.502845
Local:           +2.818141
--------------------------
Free energy:   -157.090424
Extrapolated:  -156.839001

Fermi level: -4.76911

 Band  Eigenvalues  Occupancy
    0    -25.50527    2.00000
    1    -23.43633    2.00000
    2    -22.77997    2.00000
    3    -21.53195    2.00000
    4    -20.50805    2.00000
    5    -20.25320    2.00000
    6    -19.54627    2.00000
    7    -19.08720    2.00000
    8    -18.75707    2.00000
    9    -18.31988    2.00000
   10    -17.89214    2.00000
   11    -17.04320    2.00000
   12    -16.72367    2.00000
   13    -16.51044    2.00000
   14    -15.68989    2.00000
   15    -14.68288    2.00000
   16    -13.75285    2.00000
   17    -13.29312    2.00000
   18    -12.89820    2.00000
   19    -12.47501    2.00000
   20    -11.94029    2.00000
   21    -11.78090    2.00000
   22    -11.08160    2.00000
   23    -10.96771    2.00000
   24    -10.50416    2.00000
   25    -10.26310    2.00000
   26    -10.12106    2.00000
   27     -9.83100    2.00000
   28     -9.37782    2.00000
   29     -8.98033    2.00000
   30     -8.88685    2.00000
   31     -8.78909    2.00000
   32     -7.93405    2.00000
   33     -7.73254    2.00000
   34     -7.65337    2.00000
   35     -7.40403    2.00000
   36     -7.19091    2.00000
   37     -7.12913    2.00000
   38     -6.97943    2.00000
   39     -6.87566    2.00000
   40     -6.66906    2.00000
   41     -6.22975    2.00000
   42     -5.97415    1.99999
   43     -5.94286    1.99998
   44     -5.69051    1.99980
   45     -5.03843    1.87324
   46     -4.97425    1.77217
   47     -4.83926    1.33702
   48     -4.68629    0.60803
   49     -4.58524    0.27439
   50     -4.49625    0.12261
   51     -4.23643    0.00967
   52     -4.11872    0.00299
   53     -3.77820    0.00010
   54     -3.45935    0.00000
   55     -2.87550    0.00000
   56     -2.11507    0.00000
   57     -1.71208    0.00000
   58     -1.42084    0.00000
   59     -1.21812    0.00000
   60     -0.87376    0.00000
   61     -0.79139    0.00000
   62     -0.34690    0.00000
   63     -0.28310    0.00000
   64      0.01823    0.00000
   65      0.29236    0.00000
   66      0.65399    0.00000
   67      0.93476    0.00000
   68      1.25278    0.00000
   69      1.74193    0.00000
   70      1.82626    0.00000
   71      2.47589    0.00000
   72      2.72866    0.00000
   73      2.96151    0.00000
   74      3.91209    0.00000
   75      4.10749    0.00000
   76      4.67418    0.00000
   77      5.92618    0.00000
   78      6.30405    0.00000
   79      6.60315    0.00000
   80      6.87568    0.00000
   81      7.41779    0.00000
   82      7.51494    0.00000
   83      7.73044    0.00000
   84      8.14295    0.00000
   85      8.57481    0.00000
   86      8.75494    0.00000
   87      8.84393    0.00000
   88      9.02986    0.00000
   89      9.06906    0.00000
   90      9.11366    0.00000
   91      9.30102    0.00000
   92      9.42228    0.00000
   93      9.59200    0.00000
   94      9.73823    0.00000
   95      9.80567    0.00000
   96      9.95456    0.00000
   97     10.02559    0.00000


Forces in eV/Ang:
  0 C    -0.47886    1.07684   -0.12484
  1 C     0.46120   -0.09914   -0.03779
  2 C    -0.38903    1.09063    0.09381
  3 C    -0.98289   -0.82741   -0.44768
  4 C    -2.10345    1.59104   -0.33767
  5 C     0.07150   -0.46527   -0.09279
  6 C     0.45269   -0.29518    0.06720
  7 C    -1.13749   -0.24367    0.16906
  8 C    -0.23816   -0.33848    0.26691
  9 C    -0.29398    2.64013   -0.25219
 10 C    -0.96099    0.90320   -0.62060
 11 C    -0.45535   -0.45895    0.20218
 12 C     0.03700   -2.54735   -0.04119
 13 C     2.03177   -0.00541    0.50023
 14 C     0.60332   -1.60073    0.52935
 15 C    -1.05595    0.32808   -0.19838
 16 C    -0.46300    0.50739   -0.08027
 17 C     0.41443   -2.12570   -0.13101
 18 C     2.14778    0.31640   -0.41277
 19 C    -0.88023    1.49513    0.53212
 20 C     0.25381    0.36477   -0.06851
 21 C    -0.32669   -1.39380   -0.59173
 22 C     0.98425   -1.79832    0.15106
 23 C     2.27544    1.93318    0.88055

System changes: positions 

Initializing position-dependent things.

Density initialized from wave functions
           .--------------------------------------.  
          /|                                      |  
         / |                                      |  
        /  |                                      |  
       /   |                                      |  
      /    |                                      |  
     /     |                                      |  
    /      |                                      |  
   /       |                C                     |  
  /        |     C       C  C                     |  
 *         |           C C    C   C               |  
 |         |    CC   C  C      CC  C              |  
 |         .---C---------C-C----C-----------------.  
 |        /     C     C   C  C                   /   
 |       /         C                            /    
 |      /                                      /     
 |     /                                      /      
 |    /                                      /       
 |   /                                      /        
 |  /                                      /         
 | /                                      /          
 |/                                      /           
 *--------------------------------------*            

Positions:
   0 C      7.478931    4.287980    5.007372
   1 C      6.346039   10.763564    4.786577
   2 C      6.348586    7.565776    4.836611
   3 C      8.546920   10.360009    5.397104
   4 C      7.381081    8.296757    5.020446
   5 C      7.955656   12.499451    5.009781
   6 C     12.115231    6.459283    5.878086
   7 C      7.326330    9.745626    5.011325
   8 C      6.709753   12.041910    4.800875
   9 C      8.440457    5.295400    5.214577
  10 C      6.158425    4.400791    4.727044
  11 C     11.314160    5.730345    5.051334
  12 C     10.087647    4.901487    5.267726
  13 C      3.701830    9.292636    4.625466
  14 C      4.623662    5.650226    4.560786
  15 C     10.610966    8.401070    5.145245
  16 C     10.447392    7.034996    5.226039
  17 C      9.263467    3.804789    5.245026
  18 C     10.996360    9.721408    5.178014
  19 C      9.226224    6.341044    5.391861
  20 C      3.672041   10.574713    4.961862
  21 C      4.428673    8.151237    4.625101
  22 C      4.093166    6.819100    4.421750
  23 C      9.597942    9.506406    5.197563

Unit cell:
           periodic     x           y           z      points  spacing
  1. axis:    yes   16.000000    0.000000    0.000000    80     0.2000
  2. axis:    yes    0.000000   16.000000    0.000000    80     0.2000
  3. axis:    yes    0.000000    0.000000   10.000000    48     0.2083

Effective grid spacing dv^(1/3) = 0.2027

                     log10-error:    total        iterations:
           time      wfs    density  energy       fermi  poisson
iter:   1  15:14:00          +inf  -158.081859    4      5      
iter:   2  15:14:01         -1.52  -157.759401    3      2      
iter:   3  15:14:02         -1.95  -157.738485    3      2      
iter:   4  15:14:02         -2.05  -157.714916    3      2      
iter:   5  15:14:03         -2.21  -157.711230    3      2      
iter:   6  15:14:03         -2.29  -157.704531    2      2      
iter:   7  15:14:04         -2.55  -157.704041    2      2      
iter:   8  15:14:04         -2.65  -157.702834    2      2      
iter:   9  15:14:05         -2.81  -157.702567    2      2      
iter:  10  15:14:06         -3.10  -157.703125    2      1      
iter:  11  15:14:06         -3.25  -157.703168    2      1      
iter:  12  15:14:07         -3.35  -157.703129    2      1      
iter:  13  15:14:07         -3.50  -157.702978    2      1      
iter:  14  15:14:08         -3.64  -157.702778    2      1      
iter:  15  15:14:08         -3.75  -157.702722    2      1      
iter:  16  15:14:09         -3.84  -157.702756    2      1      
iter:  17  15:14:09         -4.06  -157.702703    2      1      

Converged after 17 iterations.

Dipole moment: (0.179904, -0.867681, -0.143128) |e|*Ang

Energy contributions relative to reference atoms: (reference = -24663.074771)

Kinetic:        +92.578502
Potential:      -97.667984
External:        +0.000000
XC:            -155.211144
Entropy (-ST):   -0.453337
Local:           +2.824590
--------------------------
Free energy:   -157.929372
Extrapolated:  -157.702703

Fermi level: -4.73423

 Band  Eigenvalues  Occupancy
    0    -25.22671    2.00000
    1    -23.31294    2.00000
    2    -22.57761    2.00000
    3    -21.60194    2.00000
    4    -20.52041    2.00000
    5    -20.06816    2.00000
    6    -19.56764    2.00000
    7    -19.14121    2.00000
    8    -18.76422    2.00000
    9    -18.30025    2.00000
   10    -17.87151    2.00000
   11    -17.07049    2.00000
   12    -16.75841    2.00000
   13    -16.54703    2.00000
   14    -15.50960    2.00000
   15    -14.73449    2.00000
   16    -13.81956    2.00000
   17    -13.44581    2.00000
   18    -12.96712    2.00000
   19    -12.47723    2.00000
   20    -11.96396    2.00000
   21    -11.70065    2.00000
   22    -11.20231    2.00000
   23    -11.02944    2.00000
   24    -10.41341    2.00000
   25    -10.29336    2.00000
   26    -10.10860    2.00000
   27     -9.83834    2.00000
   28     -9.40047    2.00000
   29     -8.95839    2.00000
   30     -8.91265    2.00000
   31     -8.79813    2.00000
   32     -7.95272    2.00000
   33     -7.71252    2.00000
   34     -7.65823    2.00000
   35     -7.43329    2.00000
   36     -7.29216    2.00000
   37     -7.15682    2.00000
   38     -6.98475    2.00000
   39     -6.85943    2.00000
   40     -6.65734    2.00000
   41     -6.24415    2.00000
   42     -5.99352    1.99999
   43     -5.95903    1.99999
   44     -5.68646    1.99985
   45     -5.08056    1.93925
   46     -5.00996    1.88065
   47     -4.77188    1.18609
   48     -4.66432    0.66403
   49     -4.52153    0.21301
   50     -4.43996    0.10017
   51     -4.22031    0.01166
   52     -4.13968    0.00522
   53     -3.72999    0.00009
   54     -3.42100    0.00000
   55     -2.86573    0.00000
   56     -2.09749    0.00000
   57     -1.78077    0.00000
   58     -1.50653    0.00000
   59     -1.13144    0.00000
   60     -0.94151    0.00000
   61     -0.79407    0.00000
   62     -0.38998    0.00000
   63     -0.25333    0.00000
   64      0.03938    0.00000
   65      0.32301    0.00000
   66      0.59441    0.00000
   67      0.93566    0.00000
   68      1.18875    0.00000
   69      1.63800    0.00000
   70      1.97830    0.00000
   71      2.51255    0.00000
   72      2.66771    0.00000
   73      3.08008    0.00000
   74      3.85680    0.00000
   75      3.99098    0.00000
   76      4.61033    0.00000
   77      5.79568    0.00000
   78      6.46641    0.00000
   79      6.50780    0.00000
   80      6.71342    0.00000
   81      7.47298    0.00000
   82      7.58787    0.00000
   83      7.81980    0.00000
   84      8.17198    0.00000
   85      8.49462    0.00000
   86      8.75763    0.00000
   87      8.83677    0.00000
   88      8.96507    0.00000
   89      9.08842    0.00000
   90      9.10739    0.00000
   91      9.28374    0.00000
   92      9.42762    0.00000
   93      9.55622    0.00000
   94      9.72155    0.00000
   95      9.80754    0.00000
   96     10.00545    0.00000
   97     10.04221    0.00000


Forces in eV/Ang:
  0 C    -0.37880    1.74329    0.07815
  1 C    -0.04267   -0.11313   -0.14780
  2 C    -1.30279    0.72105   -0.02399
  3 C    -0.31901   -0.94496   -0.45847
  4 C    -1.37306    1.54856   -0.19597
  5 C    -0.10593   -0.50054   -0.11064
  6 C     0.13763   -0.56098   -0.16898
  7 C    -0.42923   -0.04603    0.29288
  8 C     0.06284    0.04908    0.27693
  9 C    -0.47445    1.77014   -0.31814
 10 C    -0.66366    1.04041   -0.53982
 11 C    -0.70487   -0.18253    0.72068
 12 C    -0.28775   -2.27840   -0.19916
 13 C     1.84960    0.24746    0.52685
 14 C     0.86094   -1.64266    0.57097
 15 C    -0.96607    0.40009   -0.21490
 16 C    -0.02450    0.32415   -0.12688
 17 C     0.29763   -1.90374   -0.35939
 18 C     1.91992    0.29913   -0.38293
 19 C    -1.03031    1.52831    0.38686
 20 C     0.27813    0.01859   -0.14415
 21 C     0.10238   -1.49769   -0.49160
 22 C     0.98223   -2.13801    0.08277
 23 C     1.65104    2.08666    0.81889

System changes: positions 

Initializing position-dependent things.

Density initialized from wave functions
           .--------------------------------------.  
          /|                                      |  
         / |                                      |  
        /  |                                      |  
       /   |                                      |  
      /    |                                      |  
     /     |                                      |  
    /      |                                      |  
   /       |                C                     |  
  /        |     C       C  C                     |  
 *         |           C C    C   C               |  
 |         |    CC   C  C      CC  C              |  
 |         .---C---------C-C----C-----------------.  
 |        /     C     C   C  C                   /   
 |       /         C                            /    
 |      /                                      /     
 |     /                                      /      
 |    /                                      /       
 |   /                                      /        
 |  /                                      /         
 | /                                      /          
 |/                                      /           
 *--------------------------------------*            

Positions:
   0 C      7.468159    4.305192    5.005468
   1 C      6.350384   10.764551    4.785470
   2 C      6.339544    7.580061    4.837624
   3 C      8.535675   10.351812    5.392133
   4 C      7.353882    8.315375    5.016173
   5 C      7.957669   12.493518    5.008868
   6 C     12.120737    6.454150    5.878643
   7 C      7.311904    9.744446    5.013898
   8 C      6.705360   12.036652    4.804040
   9 C      8.436675    5.329538    5.211451
  10 C      6.144892    4.413447    4.718886
  11 C     11.307108    5.722736    5.055907
  12 C     10.088981    4.869027    5.266020
  13 C      3.729955    9.292063    4.632454
  14 C      4.636236    5.625864    4.568550
  15 C     10.597767    8.408232    5.142247
  16 C     10.440343    7.041890    5.225239
  17 C      9.268910    3.773976    5.242230
  18 C     11.025217    9.723928    5.172000
  19 C      9.215082    6.364092    5.398504
  20 C      3.675972   10.578236    4.960668
  21 C      4.426825    8.132421    4.617458
  22 C      4.106307    6.793682    4.423338
  23 C      9.627917    9.530377    5.208828

Unit cell:
           periodic     x           y           z      points  spacing
  1. axis:    yes   16.000000    0.000000    0.000000    80     0.2000
  2. axis:    yes    0.000000   16.000000    0.000000    80     0.2000
  3. axis:    yes    0.000000    0.000000   10.000000    48     0.2083

Effective grid spacing dv^(1/3) = 0.2027

                     log10-error:    total        iterations:
           time      wfs    density  energy       fermi  poisson
iter:   1  15:14:11          +inf  -158.796625    4      5      
iter:   2  15:14:12         -1.59  -158.551100    3      2      
iter:   3  15:14:12         -2.00  -158.530831    3      2      
iter:   4  15:14:13         -2.10  -158.515766    3      2      
iter:   5  15:14:13         -2.25  -158.510948    3      2      
iter:   6  15:14:14         -2.35  -158.504961    3      2      
iter:   7  15:14:15         -2.58  -158.504597    2      2      
iter:   8  15:14:15         -2.70  -158.504521    3      2      
iter:   9  15:14:16         -2.94  -158.504612    2      1      
iter:  10  15:14:16         -3.05  -158.504448    2      2      
iter:  11  15:14:17         -3.33  -158.504662    2      1      
iter:  12  15:14:17         -3.38  -158.504790    2      1      
iter:  13  15:14:18         -3.53  -158.504712    2      1      
iter:  14  15:14:18         -3.66  -158.504748    2      1      
iter:  15  15:14:19         -3.86  -158.504891    2      1      
iter:  16  15:14:19         -4.15  -158.504553    2      1      

Converged after 16 iterations.

Dipole moment: (0.132688, -0.905169, -0.137686) |e|*Ang

Energy contributions relative to reference atoms: (reference = -24663.074771)

Kinetic:        +88.199341
Potential:      -94.557640
External:        +0.000000
XC:            -154.767592
Entropy (-ST):   -0.420549
Local:           +2.831613
--------------------------
Free energy:   -158.714828
Extrapolated:  -158.504553

Fermi level: -4.69675

 Band  Eigenvalues  Occupancy
    0    -24.93480    2.00000
    1    -23.21939    2.00000
    2    -22.36719    2.00000
    3    -21.66621    2.00000
    4    -20.52833    2.00000
    5    -19.89886    2.00000
    6    -19.59996    2.00000
    7    -19.20004    2.00000
    8    -18.77492    2.00000
    9    -18.28376    2.00000
   10    -17.85248    2.00000
   11    -17.06285    2.00000
   12    -16.78385    2.00000
   13    -16.57186    2.00000
   14    -15.34014    2.00000
   15    -14.78298    2.00000
   16    -13.87676    2.00000
   17    -13.58175    2.00000
   18    -13.05083    2.00000
   19    -12.46852    2.00000
   20    -12.01775    2.00000
   21    -11.59300    2.00000
   22    -11.40427    2.00000
   23    -11.04541    2.00000
   24    -10.40821    2.00000
   25    -10.27517    2.00000
   26    -10.08363    2.00000
   27     -9.83912    2.00000
   28     -9.41565    2.00000
   29     -8.94582    2.00000
   30     -8.91871    2.00000
   31     -8.77493    2.00000
   32     -7.97162    2.00000
   33     -7.70414    2.00000
   34     -7.65065    2.00000
   35     -7.46874    2.00000
   36     -7.38198    2.00000
   37     -7.20749    2.00000
   38     -6.99670    2.00000
   39     -6.84185    2.00000
   40     -6.64179    2.00000
   41     -6.26283    2.00000
   42     -6.01758    2.00000
   43     -5.96235    1.99999
   44     -5.68625    1.99990
   45     -5.11569    1.97014
   46     -5.05838    1.94764
   47     -4.70895    1.06089
   48     -4.63996    0.72342
   49     -4.47410    0.19478
   50     -4.38023    0.08099
   51     -4.19795    0.01355
   52     -4.15237    0.00861
   53     -3.68935    0.00008
   54     -3.39116    0.00000
   55     -2.83292    0.00000
   56     -2.09974    0.00000
   57     -1.90805    0.00000
   58     -1.60350    0.00000
   59     -1.05007    0.00000
   60     -0.98669    0.00000
   61     -0.77491    0.00000
   62     -0.43482    0.00000
   63     -0.28498    0.00000
   64      0.07963    0.00000
   65      0.39791    0.00000
   66      0.51928    0.00000
   67      0.88545    0.00000
   68      1.16630    0.00000
   69      1.67672    0.00000
   70      2.12861    0.00000
   71      2.48107    0.00000
   72      2.67449    0.00000
   73      3.18089    0.00000
   74      3.78660    0.00000
   75      3.86624    0.00000
   76      4.63221    0.00000
   77      5.72820    0.00000
   78      6.27298    0.00000
   79      6.50730    0.00000
   80      6.73051    0.00000
   81      7.49386    0.00000
   82      7.65313    0.00000
   83      7.92099    0.00000
   84      8.19434    0.00000
   85      8.42101    0.00000
   86      8.76731    0.00000
   87      8.85191    0.00000
   88      8.87540    0.00000
   89      9.10421    0.00000
   90      9.10703    0.00000
   91      9.28279    0.00000
   92      9.42611    0.00000
   93      9.52236    0.00000
   94      9.69752    0.00000
   95      9.78786    0.00000
   96     10.00445    0.00000
   97     10.05828    0.00000


Forces in eV/Ang:
  0 C    -0.49972    2.35547    0.16645
  1 C    -0.46705   -0.12862   -0.24657
  2 C    -2.00237    0.47794   -0.11269
  3 C     0.26111   -0.92671   -0.41901
  4 C    -0.87362    1.28856   -0.09372
  5 C    -0.21465   -0.53060   -0.11368
  6 C    -0.11344   -0.74387   -0.33854
  7 C     0.13018    0.18453    0.34251
  8 C     0.27538    0.38154    0.29874
  9 C    -0.72806    0.73355   -0.32830
 10 C    -0.61755    1.29331   -0.43460
 11 C    -0.89663   -0.01488    1.09544
 12 C    -0.44589   -1.94103   -0.36258
 13 C     1.72463    0.26054    0.52557
 14 C     1.33190   -1.72931    0.58511
 15 C    -0.82500    0.36490   -0.20669
 16 C     0.21099    0.23591   -0.12308
 17 C     0.25433   -1.61398   -0.50106
 18 C     1.77304    0.29970   -0.36220
 19 C    -1.00034    1.68172    0.25924
 20 C     0.32130   -0.20404   -0.18124
 21 C     0.49619   -1.47983   -0.34967
 22 C     0.98756   -2.42910    0.03844
 23 C     0.98116    2.11790    0.76141

System changes: positions 

Initializing position-dependent things.

Density initialized from wave functions
           .--------------------------------------.  
          /|                                      |  
         / |                                      |  
        /  |                                      |  
       /   |                                      |  
      /    |                                      |  
     /     |                                      |  
    /      |                                      |  
   /       |                C                     |  
  /        |     C       C  C                     |  
 *         |           C C     C  C               |  
 |         |    CC   C  C      CC  C              |  
 |         .---C---------C-C----C-----------------.  
 |        /     C     C   C  C                   /   
 |       /         C                            /    
 |      /                                      /     
 |     /                                      /      
 |    /                                      /       
 |   /                                      /        
 |  /                                      /         
 | /                                      /          
 |/                                      /           
 *--------------------------------------*            

Positions:
   0 C      7.452423    4.327987    5.003095
   1 C      6.352427   10.765984    4.783537
   2 C      6.325366    7.594859    4.838299
   3 C      8.526715   10.344567    5.387457
   4 C      7.326105    8.332367    5.011976
   5 C      7.959951   12.486942    5.008032
   6 C     12.125490    6.447577    5.878525
   7 C      7.299067    9.745313    5.016772
   8 C      6.700991   12.032592    4.807598
   9 C      8.431403    5.360136    5.208484
  10 C      6.129036    4.429686    4.710775
  11 C     11.298087    5.714349    5.062954
  12 C     10.090484    4.836471    5.262799
  13 C      3.760635    9.289802    4.639985
  14 C      4.655374    5.597448    4.577214
  15 C     10.584732    8.416508    5.139055
  16 C     10.432842    7.049327    5.224718
  17 C      9.274960    3.741714    5.238447
  18 C     11.056362    9.726107    5.165342
  19 C      9.203806    6.391228    5.404919
  20 C      3.680821   10.581284    4.959332
  21 C      4.427723    8.112370    4.610227
  22 C      4.120786    6.763952    4.424807
  23 C      9.656661    9.555551    5.220660

Unit cell:
           periodic     x           y           z      points  spacing
  1. axis:    yes   16.000000    0.000000    0.000000    80     0.2000
  2. axis:    yes    0.000000   16.000000    0.000000    80     0.2000
  3. axis:    yes    0.000000    0.000000   10.000000    48     0.2083

Effective grid spacing dv^(1/3) = 0.2027

                     log10-error:    total        iterations:
           time      wfs    density  energy       fermi  poisson
iter:   1  15:14:21          +inf  -159.671859    4      5      
iter:   2  15:14:22         -1.59  -159.367118    3      2      
iter:   3  15:14:22         -1.98  -159.334855    3      2      
iter:   4  15:14:23         -2.14  -159.322154    3      2      
iter:   5  15:14:23         -2.27  -159.316795    3      2      
iter:   6  15:14:24         -2.39  -159.311601    3      2      
iter:   7  15:14:25         -2.63  -159.311119    2      2      
iter:   8  15:14:25         -2.88  -159.311714    3      2      
iter:   9  15:14:26         -3.02  -159.311786    3      2      
iter:  10  15:14:26         -3.26  -159.312350    2      1      
iter:  11  15:14:27         -3.37  -159.312113    2      1      
iter:  12  15:14:27         -3.47  -159.311981    2      1      
iter:  13  15:14:28         -3.60  -159.311860    2      1      
iter:  14  15:14:28         -3.77  -159.311604    2      1      
iter:  15  15:14:29         -3.97  -159.311449    2      1      
iter:  16  15:14:30         -4.10  -159.311313    2      1      

Converged after 16 iterations.

Dipole moment: (0.068989, -0.944526, -0.137365) |e|*Ang

Energy contributions relative to reference atoms: (reference = -24663.074771)

Kinetic:        +82.985153
Potential:      -90.764607
External:        +0.000000
XC:            -154.166766
Entropy (-ST):   -0.402249
Local:           +2.836032
--------------------------
Free energy:   -159.512438
Extrapolated:  -159.311313

Fermi level: -4.66223

 Band  Eigenvalues  Occupancy
    0    -24.60496    2.00000
    1    -23.12355    2.00000
    2    -22.13204    2.00000
    3    -21.71733    2.00000
    4    -20.54279    2.00000
    5    -19.74129    2.00000
    6    -19.62851    2.00000
    7    -19.24522    2.00000
    8    -18.78678    2.00000
    9    -18.27428    2.00000
   10    -17.83226    2.00000
   11    -17.01887    2.00000
   12    -16.80138    2.00000
   13    -16.58009    2.00000
   14    -15.18282    2.00000
   15    -14.82266    2.00000
   16    -13.92852    2.00000
   17    -13.70951    2.00000
   18    -13.13476    2.00000
   19    -12.43936    2.00000
   20    -12.08037    2.00000
   21    -11.67256    2.00000
   22    -11.45847    2.00000
   23    -11.02601    2.00000
   24    -10.49530    2.00000
   25    -10.18849    2.00000
   26    -10.04110    2.00000
   27     -9.80350    2.00000
   28     -9.41463    2.00000
   29     -8.95965    2.00000
   30     -8.89525    2.00000
   31     -8.71121    2.00000
   32     -7.98965    2.00000
   33     -7.70573    2.00000
   34     -7.64071    2.00000
   35     -7.50150    2.00000
   36     -7.45152    2.00000
   37     -7.28529    2.00000
   38     -7.01186    2.00000
   39     -6.82458    2.00000
   40     -6.61644    2.00000
   41     -6.29024    2.00000
   42     -6.04361    2.00000
   43     -5.96182    2.00000
   44     -5.69070    1.99993
   45     -5.14258    1.98373
   46     -5.12142    1.97993
   47     -4.65787    0.97818
   48     -4.61450    0.76578
   49     -4.44330    0.20143
   50     -4.32185    0.06435
   51     -4.17662    0.01544
   52     -4.14373    0.01114
   53     -3.64922    0.00008
   54     -3.35451    0.00000
   55     -2.78924    0.00000
   56     -2.14078    0.00000
   57     -2.06463    0.00000
   58     -1.67512    0.00000
   59     -1.03940    0.00000
   60     -0.95826    0.00000
   61     -0.75462    0.00000
   62     -0.49008    0.00000
   63     -0.30715    0.00000
   64      0.11932    0.00000
   65      0.35060    0.00000
   66      0.63313    0.00000
   67      0.85140    0.00000
   68      1.17078    0.00000
   69      1.74965    0.00000
   70      2.27931    0.00000
   71      2.46043    0.00000
   72      2.68807    0.00000
   73      3.26118    0.00000
   74      3.71968    0.00000
   75      3.78928    0.00000
   76      4.70842    0.00000
   77      5.69611    0.00000
   78      5.99044    0.00000
   79      6.40357    0.00000
   80      6.85258    0.00000
   81      7.52847    0.00000
   82      7.68622    0.00000
   83      8.02659    0.00000
   84      8.21938    0.00000
   85      8.37202    0.00000
   86      8.76134    0.00000
   87      8.80832    0.00000
   88      8.89235    0.00000
   89      9.08448    0.00000
   90      9.12082    0.00000
   91      9.29552    0.00000
   92      9.41699    0.00000
   93      9.50281    0.00000
   94      9.67730    0.00000
   95      9.72806    0.00000
   96      9.99475    0.00000
   97     10.07327    0.00000


Forces in eV/Ang:
  0 C    -0.73981    2.89608    0.21634
  1 C    -0.84611   -0.13355   -0.32752
  2 C    -2.73014    0.29184   -0.25070
  3 C     0.81989   -0.80113   -0.34352
  4 C    -0.38873    1.01452   -0.00628
  5 C    -0.29298   -0.57059   -0.11258
  6 C    -0.35330   -0.90949   -0.51441
  7 C     0.59532    0.38565    0.38127
  8 C     0.44222    0.67214    0.33029
  9 C    -0.82078   -0.20797   -0.32405
 10 C    -0.85794    1.70292   -0.31259
 11 C    -0.95553    0.14624    1.40203
 12 C    -0.55083   -1.62753   -0.50885
 13 C     1.56294    0.33734    0.51874
 14 C     1.95877   -1.79593    0.58002
 15 C    -0.61819    0.42810   -0.19698
 16 C     0.37921    0.09406   -0.07199
 17 C     0.27772   -1.22046   -0.58968
 18 C     1.52402    0.20940   -0.34549
 19 C    -1.09427    1.75061    0.13821
 20 C     0.38063   -0.49946   -0.23897
 21 C     0.88459   -1.52164   -0.23250
 22 C     1.09756   -2.71350    0.07415
 23 C     0.35131    2.08087    0.65507

System changes: positions 

Initializing position-dependent things.

Density initialized from wave functions
           .--------------------------------------.  
          /|                                      |  
         / |                                      |  
        /  |                                      |  
       /   |                                      |  
      /    |                                      |  
     /     |                                      |  
    /      |                                      |  
   /       |                C                     |  
  /        |     C       C  C                     |  
 *         |           C C     C  C               |  
 |         |    CC   C  C  C   CC  C              |  
 |         .---C---------C------C-----------------.  
 |        /     C     C   C  C                   /   
 |       /         C                            /    
 |      /                                      /     
 |     /                                      /      
 |    /                                      /       
 |   /                                      /        
 |  /                                      /         
 | /                                      /          
 |/                                      /           
 *--------------------------------------*            

Positions:
   0 C      7.432969    4.353747    5.000245
   1 C      6.353117   10.767718    4.781224
   2 C      6.307411    7.610057    4.838185
   3 C      8.519660   10.338925    5.383381
   4 C      7.298741    8.347834    5.007838
   5 C      7.962479   12.479927    5.007275
   6 C     12.129561    6.440216    5.877747
   7 C      7.286988    9.747280    5.019722
   8 C      6.696541   12.029245    4.811474
   9 C      8.426470    5.387946    5.205736
  10 C      6.109241    4.449614    4.703067
  11 C     11.289177    5.705810    5.071081
  12 C     10.092396    4.804324    5.258750
  13 C      3.791886    9.287322    4.647691
  14 C      4.680021    5.567223    4.586102
  15 C     10.572722    8.426109    5.135818
  16 C     10.424796    7.056370    5.224828
  17 C      9.281897    3.710409    5.234525
  18 C     11.087293    9.727258    5.158390
  19 C      9.191445    6.419768    5.411062
  20 C      3.686334   10.583018    4.957674
  21 C      4.430542    8.091297    4.603235
  22 C      4.136905    6.731826    4.426937
  23 C      9.683904    9.580575    5.232157

Unit cell:
           periodic     x           y           z      points  spacing
  1. axis:    yes   16.000000    0.000000    0.000000    80     0.2000
  2. axis:    yes    0.000000   16.000000    0.000000    80     0.2000
  3. axis:    yes    0.000000    0.000000   10.000000    48     0.2083

Effective grid spacing dv^(1/3) = 0.2027

                     log10-error:    total        iterations:
           time      wfs    density  energy       fermi  poisson
iter:   1  15:14:31          +inf  -160.575817    4      5      
iter:   2  15:14:32         -1.58  -160.220392    3      2      
iter:   3  15:14:32         -1.94  -160.159453    3      2      
iter:   4  15:14:33         -2.17  -160.150846    3      2      
iter:   5  15:14:34         -2.27  -160.145317    3      2      
iter:   6  15:14:34         -2.37  -160.142512    2      2      
iter:   7  15:14:35         -2.48  -160.139119    3      2      
iter:   8  15:14:35         -2.69  -160.138702    2      2      
iter:   9  15:14:36         -2.98  -160.139344    2      1      
iter:  10  15:14:36         -3.11  -160.140160    3      1      
iter:  11  15:14:37         -3.28  -160.139644    2      1      
iter:  12  15:14:37         -3.37  -160.139721    2      1      
iter:  13  15:14:38         -3.57  -160.139558    2      1      
iter:  14  15:14:38         -3.69  -160.139153    2      1      
iter:  15  15:14:39         -3.79  -160.138837    2      1      
iter:  16  15:14:40         -3.92  -160.139015    2      1      
iter:  17  15:14:40         -4.02  -160.138947    2      1      

Converged after 17 iterations.

Dipole moment: (-0.003290, -0.965485, -0.142031) |e|*Ang

Energy contributions relative to reference atoms: (reference = -24663.074771)

Kinetic:        +77.772332
Potential:      -87.008196
External:        +0.000000
XC:            -153.547921
Entropy (-ST):   -0.387417
Local:           +2.838547
--------------------------
Free energy:   -160.332655
Extrapolated:  -160.138947

Fermi level: -4.64417

 Band  Eigenvalues  Occupancy
    0    -24.25703    2.00000
    1    -23.04524    2.00000
    2    -21.91151    2.00000
    3    -21.73383    2.00000
    4    -20.56843    2.00000
    5    -19.69923    2.00000
    6    -19.56040    2.00000
    7    -19.26162    2.00000
    8    -18.79608    2.00000
    9    -18.27174    2.00000
   10    -17.79747    2.00000
   11    -16.97007    2.00000
   12    -16.80837    2.00000
   13    -16.56704    2.00000
   14    -15.05247    2.00000
   15    -14.85246    2.00000
   16    -13.96085    2.00000
   17    -13.81180    2.00000
   18    -13.22417    2.00000
   19    -12.39582    2.00000
   20    -12.14908    2.00000
   21    -11.96171    2.00000
   22    -11.30519    2.00000
   23    -10.98511    2.00000
   24    -10.61325    2.00000
   25    -10.10167    2.00000
   26    -10.00080    2.00000
   27     -9.71878    2.00000
   28     -9.39815    2.00000
   29     -8.98369    2.00000
   30     -8.87223    2.00000
   31     -8.62379    2.00000
   32     -8.01786    2.00000
   33     -7.71568    2.00000
   34     -7.63539    2.00000
   35     -7.52351    2.00000
   36     -7.50781    2.00000
   37     -7.37778    2.00000
   38     -7.01957    2.00000
   39     -6.81722    2.00000
   40     -6.57675    2.00000
   41     -6.31893    2.00000
   42     -6.06293    2.00000
   43     -5.96199    2.00000
   44     -5.70057    1.99995
   45     -5.18947    1.99147
   46     -5.16522    1.98914
   47     -4.64181    0.98821
   48     -4.59292    0.74923
   49     -4.42985    0.20994
   50     -4.27726    0.04973
   51     -4.15223    0.01450
   52     -4.08934    0.00776
   53     -3.61199    0.00007
   54     -3.29639    0.00000
   55     -2.74028    0.00000
   56     -2.28559    0.00000
   57     -2.10725    0.00000
   58     -1.72140    0.00000
   59     -1.05804    0.00000
   60     -0.89390    0.00000
   61     -0.74149    0.00000
   62     -0.54141    0.00000
   63     -0.29412    0.00000
   64      0.14060    0.00000
   65      0.30497    0.00000
   66      0.75179    0.00000
   67      1.00050    0.00000
   68      1.16242    0.00000
   69      1.82568    0.00000
   70      2.41408    0.00000
   71      2.48413    0.00000
   72      2.70834    0.00000
   73      3.31255    0.00000
   74      3.61345    0.00000
   75      3.85821    0.00000
   76      4.80225    0.00000
   77      5.56675    0.00000
   78      5.79536    0.00000
   79      6.25114    0.00000
   80      6.95837    0.00000
   81      7.58467    0.00000
   82      7.69877    0.00000
   83      8.11932    0.00000
   84      8.24931    0.00000
   85      8.34526    0.00000
   86      8.70657    0.00000
   87      8.81902    0.00000
   88      8.93757    0.00000
   89      9.02316    0.00000
   90      9.13982    0.00000
   91      9.30297    0.00000
   92      9.40752    0.00000
   93      9.49138    0.00000
   94      9.63920    0.00000
   95      9.67853    0.00000
   96      9.97924    0.00000
   97     10.09020    0.00000


Forces in eV/Ang:
  0 C    -1.12687    3.29363    0.17021
  1 C    -1.18077   -0.12777   -0.39347
  2 C    -3.44161    0.17379   -0.40252
  3 C     1.32649   -0.68503   -0.26712
  4 C     0.01241    0.71808    0.03170
  5 C    -0.37437   -0.64111   -0.11516
  6 C    -0.53813   -1.05724   -0.66209
  7 C     1.04187    0.56456    0.44834
  8 C     0.58522    0.97518    0.35735
  9 C    -0.93460   -1.15483   -0.32474
 10 C    -1.10311    2.28309   -0.14330
 11 C    -0.99425    0.25206    1.63179
 12 C    -0.50169   -1.39845   -0.65325
 13 C     1.44573    0.35172    0.49630
 14 C     2.67256   -1.92981    0.46317
 15 C    -0.37061    0.39129   -0.16479
 16 C     0.49995   -0.05132   -0.00687
 17 C     0.35936   -0.85115   -0.61492
 18 C     1.26642    0.14145   -0.32884
 19 C    -1.18257    1.95865    0.05899
 20 C     0.44389   -0.77886   -0.29113
 21 C     1.28948   -1.61393   -0.06972
 22 C     1.12031   -2.94680    0.12875
 23 C    -0.31311    2.03371    0.55169

System changes: positions 

Initializing position-dependent things.

Density initialized from wave functions
           .--------------------------------------.  
          /|                                      |  
         / |                                      |  
        /  |                                      |  
       /   |                                      |  
      /    |                                      |  
     /     |                                      |  
    /      |                                      |  
   /       |                C                     |  
  /        |     C       C  C                     |  
 *         |           C C     C  C               |  
 |         |    CC   C  C  C   CC  C              |  
 |         .---C---------C------C-----------------.  
 |        /     C     C   C  C                   /   
 |       /         C                            /    
 |      /                                      /     
 |     /                                      /      
 |    /                                      /       
 |   /                                      /        
 |  /                                      /         
 | /                                      /          
 |/                                      /           
 *--------------------------------------*            

Positions:
   0 C      7.412354    4.378351    4.996813
   1 C      6.353345   10.769467    4.778973
   2 C      6.288901    7.624793    4.837611
   3 C      8.513752   10.334158    5.379804
   4 C      7.272978    8.361512    5.003706
   5 C      7.964816   12.472943    5.006557
   6 C     12.133319    6.433032    5.876823
   7 C      7.276119    9.749465    5.022732
   8 C      6.692349   12.026673    4.815231
   9 C      8.421813    5.412404    5.203200
  10 C      6.089048    4.471041    4.696372
  11 C     11.281011    5.697556    5.078781
  12 C     10.095240    4.773927    5.254595
  13 C      3.821549    9.284642    4.654878
  14 C      4.706031    5.537816    4.593762
  15 C     10.562222    8.434966    5.132925
  16 C     10.416901    7.062677    5.225283
  17 C      9.289128    3.681574    5.231175
  18 C     11.115973    9.728071    5.151781
  19 C      9.179353    6.447885    5.416926
  20 C      3.691799   10.584053    4.955993
  21 C      4.434208    8.070772    4.597127
  22 C      4.152142    6.700983    4.429342
  23 C      9.708255    9.603955    5.242772

Unit cell:
           periodic     x           y           z      points  spacing
  1. axis:    yes   16.000000    0.000000    0.000000    80     0.2000
  2. axis:    yes    0.000000   16.000000    0.000000    80     0.2000
  3. axis:    yes    0.000000    0.000000   10.000000    48     0.2083

Effective grid spacing dv^(1/3) = 0.2027

                     log10-error:    total        iterations:
           time      wfs    density  energy       fermi  poisson
iter:   1  15:14:42          +inf  -161.381295    3      5      
iter:   2  15:14:42         -1.60  -161.031401    3      2      
iter:   3  15:14:43         -1.92  -160.948396    3      2      
iter:   4  15:14:44         -2.19  -160.941866    3      2      
iter:   5  15:14:44         -2.31  -160.937150    3      2      
iter:   6  15:14:45         -2.41  -160.933560    3      2      
iter:   7  15:14:45         -2.55  -160.931965    3      2      
iter:   8  15:14:46         -2.73  -160.931518    2      2      
iter:   9  15:14:46         -3.08  -160.932103    2      1      
iter:  10  15:14:47         -3.17  -160.932599    2      1      
iter:  11  15:14:47         -3.32  -160.932685    2      1      
iter:  12  15:14:48         -3.50  -160.932273    2      1      
iter:  13  15:14:48         -3.69  -160.931853    2      1      
iter:  14  15:14:49         -3.87  -160.931743    2      1      
iter:  15  15:14:50         -4.02  -160.931609    2      1      

Converged after 15 iterations.

Dipole moment: (-0.068350, -0.949941, -0.148082) |e|*Ang

Energy contributions relative to reference atoms: (reference = -24663.074771)

Kinetic:        +73.672368
Potential:      -84.230498
External:        +0.000000
XC:            -153.030398
Entropy (-ST):   -0.369951
Local:           +2.841895
--------------------------
Free energy:   -161.116585
Extrapolated:  -160.931609

Fermi level: -4.64811

 Band  Eigenvalues  Occupancy
    0    -23.92068    2.00000
    1    -22.97586    2.00000
    2    -21.89600    2.00000
    3    -21.54929    2.00000
    4    -20.59844    2.00000
    5    -19.75168    2.00000
    6    -19.44466    2.00000
    7    -19.24936    2.00000
    8    -18.78643    2.00000
    9    -18.28026    2.00000
   10    -17.75059    2.00000
   11    -16.95946    2.00000
   12    -16.79940    2.00000
   13    -16.51447    2.00000
   14    -15.00471    2.00000
   15    -14.84154    2.00000
   16    -13.98579    2.00000
   17    -13.85695    2.00000
   18    -13.31739    2.00000
   19    -12.39503    2.00000
   20    -12.22611    2.00000
   21    -12.15629    2.00000
   22    -11.15218    2.00000
   23    -10.93407    2.00000
   24    -10.72738    2.00000
   25    -10.04020    2.00000
   26     -9.96674    2.00000
   27     -9.61702    2.00000
   28     -9.34830    2.00000
   29     -9.00815    2.00000
   30     -8.85577    2.00000
   31     -8.52692    2.00000
   32     -8.06059    2.00000
   33     -7.74076    2.00000
   34     -7.64255    2.00000
   35     -7.55974    2.00000
   36     -7.52125    2.00000
   37     -7.45928    2.00000
   38     -7.00913    2.00000
   39     -6.82391    2.00000
   40     -6.52292    2.00000
   41     -6.34802    2.00000
   42     -6.08542    2.00000
   43     -5.96591    2.00000
   44     -5.71228    1.99995
   45     -5.24870    1.99508
   46     -5.18741    1.99094
   47     -4.66182    1.06843
   48     -4.58417    0.69077
   49     -4.42953    0.20206
   50     -4.25591    0.03883
   51     -4.13381    0.01161
   52     -3.97018    0.00227
   53     -3.58603    0.00005
   54     -3.22353    0.00000
   55     -2.69600    0.00000
   56     -2.38953    0.00000
   57     -2.12922    0.00000
   58     -1.75801    0.00000
   59     -1.06479    0.00000
   60     -0.84172    0.00000
   61     -0.73396    0.00000
   62     -0.58846    0.00000
   63     -0.26147    0.00000
   64      0.16127    0.00000
   65      0.29903    0.00000
   66      0.77365    0.00000
   67      1.13275    0.00000
   68      1.33887    0.00000
   69      1.90593    0.00000
   70      2.43628    0.00000
   71      2.58576    0.00000
   72      2.77263    0.00000
   73      3.33859    0.00000
   74      3.55633    0.00000
   75      3.99792    0.00000
   76      4.86903    0.00000
   77      5.32372    0.00000
   78      5.69804    0.00000
   79      6.11044    0.00000
   80      7.03323    0.00000
   81      7.64796    0.00000
   82      7.70870    0.00000
   83      8.18535    0.00000
   84      8.28769    0.00000
   85      8.33522    0.00000
   86      8.66393    0.00000
   87      8.84631    0.00000
   88      8.93174    0.00000
   89      8.96541    0.00000
   90      9.15681    0.00000
   91      9.29192    0.00000
   92      9.40611    0.00000
   93      9.47041    0.00000
   94      9.59715    0.00000
   95      9.68573    0.00000
   96      9.96318    0.00000
   97     10.09999    0.00000


Forces in eV/Ang:
  0 C    -1.42113    3.54385    0.14842
  1 C    -1.46005   -0.10186   -0.44208
  2 C    -4.10029    0.08094   -0.53549
  3 C     1.76684   -0.58949   -0.20473
  4 C     0.33657    0.46644    0.10053
  5 C    -0.46455   -0.72710   -0.13244
  6 C    -0.70823   -1.17108   -0.81289
  7 C     1.48026    0.69897    0.51317
  8 C     0.70188    1.27705    0.36398
  9 C    -0.99350   -1.99776   -0.33422
 10 C    -1.26954    2.84460    0.06154
 11 C    -0.98334    0.35535    1.83384
 12 C    -0.37097   -1.26659   -0.77407
 13 C     1.32377    0.38908    0.48473
[...]

Kinetic:       +109.829984
Potential:     -119.119494
External:        +0.000000
XC:            -172.602829
Entropy (-ST):   -0.158652
Local:           +2.996453
--------------------------
Free energy:   -179.054537
Extrapolated:  -178.975211

Fermi level: -4.93460

 Band  Eigenvalues  Occupancy
    0    -23.01663    2.00000
    1    -22.75407    2.00000
    2    -22.30881    2.00000
    3    -21.04622    2.00000
    4    -20.82259    2.00000
    5    -20.45505    2.00000
    6    -19.63896    2.00000
    7    -19.39350    2.00000
    8    -18.97921    2.00000
    9    -18.51414    2.00000
   10    -18.18540    2.00000
   11    -17.36726    2.00000
   12    -16.55238    2.00000
   13    -16.34222    2.00000
   14    -15.83917    2.00000
   15    -15.04185    2.00000
   16    -14.22466    2.00000
   17    -14.15826    2.00000
   18    -13.68642    2.00000
   19    -13.65866    2.00000
   20    -13.16770    2.00000
   21    -12.47477    2.00000
   22    -12.08213    2.00000
   23    -11.52860    2.00000
   24    -11.37659    2.00000
   25    -11.15099    2.00000
   26    -10.79209    2.00000
   27    -10.31669    2.00000
   28    -10.08548    2.00000
   29     -9.90343    2.00000
   30     -8.89463    2.00000
   31     -8.76806    2.00000
   32     -8.46893    2.00000
   33     -8.25291    2.00000
   34     -8.04546    2.00000
   35     -8.00601    2.00000
   36     -7.84597    2.00000
   37     -7.43992    2.00000
   38     -7.08346    2.00000
   39     -6.91732    2.00000
   40     -6.67434    2.00000
   41     -6.33851    2.00000
   42     -6.11791    1.99999
   43     -5.74475    1.99939
   44     -5.60518    1.99756
   45     -5.43478    1.98664
   46     -5.36591    1.97357
   47     -5.17090    1.82793
   48     -4.71115    0.19339
   49     -4.48254    0.02153
   50     -3.63461    0.00000
   51     -3.39606    0.00000
   52     -3.08505    0.00000
   53     -2.88258    0.00000
   54     -2.58590    0.00000
   55     -2.11233    0.00000
   56     -1.48032    0.00000
   57     -1.28044    0.00000
   58     -0.81554    0.00000
   59     -0.76368    0.00000
   60      0.31049    0.00000
   61      0.74566    0.00000
   62      2.02816    0.00000
   63      2.37223    0.00000
   64      2.94016    0.00000
   65      3.07123    0.00000
   66      3.28744    0.00000
   67      3.86924    0.00000
   68      3.91363    0.00000
   69      4.34302    0.00000
   70      4.58217    0.00000
   71      4.99521    0.00000
   72      5.04485    0.00000
   73      5.41319    0.00000
   74      5.60274    0.00000
   75      5.88249    0.00000
   76      6.32610    0.00000
   77      6.46587    0.00000
   78      6.73980    0.00000
   79      7.32684    0.00000
   80      7.47153    0.00000
   81      7.65488    0.00000
   82      7.93146    0.00000
   83      8.33893    0.00000
   84      8.42156    0.00000
   85      8.49663    0.00000
   86      8.73477    0.00000
   87      8.78174    0.00000
   88      9.02129    0.00000
   89      9.12223    0.00000
   90      9.43705    0.00000
   91      9.48123    0.00000
   92      9.78687    0.00000
   93      9.86182    0.00000
   94      9.91827    0.00000
   95     10.06027    0.00000
   96     10.11062    0.00000
   97     10.17726    0.00000


Forces in eV/Ang:
  0 C    -0.02458    0.02835   -0.02446
  1 C     0.00892    0.07043    0.02855
  2 C    -0.02017   -0.04618   -0.02024
  3 C    -0.08022   -0.00863    0.03887
  4 C     0.10983    0.05675    0.04426
  5 C    -0.07172    0.07691    0.03856
  6 C     0.11964   -0.10596   -0.00572
  7 C    -0.03154   -0.09456   -0.08195
  8 C     0.07319   -0.04793   -0.01212
  9 C    -0.16736   -0.02181   -0.00971
 10 C    -0.02006   -0.05119    0.01725
 11 C    -0.14924    0.11984    0.02042
 12 C     0.08374   -0.03740   -0.02957
 13 C     0.05704   -0.03861   -0.01450
 14 C     0.03272   -0.00725   -0.00853
 15 C    -0.00390    0.06820    0.02540
 16 C    -0.02796    0.01437   -0.02322
 17 C     0.05023   -0.03603    0.02684
 18 C     0.03962   -0.00116   -0.00205
 19 C     0.03570    0.01608    0.03993
 20 C     0.02282   -0.00258    0.03770
 21 C    -0.07665    0.02845   -0.08744
 22 C    -0.04566    0.02817    0.01008
 23 C     0.04964   -0.03896   -0.04440

System changes: positions 

Initializing position-dependent things.

Density initialized from wave functions
           .--------------------------------------.  
          /|                                      |  
         / |                                      |  
        /  |                                      |  
       /   |                                      |  
      /    |                                      |  
     /     |                                      |  
    /      |                                      |  
   /       |                                      |  
  /        |           C  C  C                    |  
 *         |        C    C  C C   C               |  
 |         |     C     C       C                  |  
 |         .----C---C--------C--------------------.  
 |        /  CC    C   C  C    C                 /   
 |       /      C                C              /    
 |      /                         C            /     
 |     /                            C         /      
 |    /                                      /       
 |   /                                      /        
 |  /                                      /         
 | /                                      /          
 |/                                      /           
 *--------------------------------------*            

Positions:
   0 C      5.999088    6.062890    4.435780
   1 C      6.307721   10.864257    4.826715
   2 C      5.676863    7.519543    4.566441
   3 C      8.607685   10.070836    5.094734
   4 C      6.708870    8.369167    4.766596
   5 C      8.453466   11.511317    5.137335
   6 C     10.996039    5.592030    4.596636
   7 C      7.244155    9.594576    4.892225
   8 C      7.223132   11.909373    4.995288
   9 C      7.387368    5.797613    4.547536
  10 C      4.916347    5.192721    4.206887
  11 C     11.851320    4.690520    4.317977
  12 C     12.746989    3.758288    4.008701
  13 C      4.254262    9.466523    4.515279
  14 C      3.783822    5.857991    4.149168
  15 C     10.185111    7.867933    5.125566
  16 C      9.947371    6.461188    4.814559
  17 C     13.586778    2.843685    3.585750
  18 C     11.079632    8.896845    5.520160
  19 C      8.600694    6.040488    4.681455
  20 C      4.975308   10.493247    4.645239
  21 C      4.260950    8.059998    4.434839
  22 C      3.279926    7.062441    4.221465
  23 C      9.691250    9.181358    5.223130

Unit cell:
           periodic     x           y           z      points  spacing
  1. axis:    yes   16.000000    0.000000    0.000000    80     0.2000
  2. axis:    yes    0.000000   16.000000    0.000000    80     0.2000
  3. axis:    yes    0.000000    0.000000   10.000000    48     0.2083

Effective grid spacing dv^(1/3) = 0.2027

                     log10-error:    total        iterations:
           time      wfs    density  energy       fermi  poisson
iter:   1  15:46:41          +inf  -178.980027    2      5      
iter:   2  15:46:42         -2.87  -178.978631    2      1      
iter:   3  15:46:42         -3.01  -178.976729    2      1      
iter:   4  15:46:43         -3.17  -178.977910    2      1      
iter:   5  15:46:43         -3.34  -178.976575    2      1      
iter:   6  15:46:44         -3.39  -178.977579    2      1      
iter:   7  15:46:45         -3.76  -178.977514    2      1      
iter:   8  15:46:45         -3.74  -178.976626    2      1      
iter:   9  15:46:46         -4.06  -178.976523    1      1      

Converged after 9 iterations.

Dipole moment: (-1.729546, 0.724833, 0.121532) |e|*Ang

Energy contributions relative to reference atoms: (reference = -24663.074771)

Kinetic:       +109.449670
Potential:     -118.817622
External:        +0.000000
XC:            -172.504657
Entropy (-ST):   -0.160381
Local:           +2.976276
--------------------------
Free energy:   -179.056714
Extrapolated:  -178.976523

Fermi level: -4.94063

 Band  Eigenvalues  Occupancy
    0    -23.01584    2.00000
    1    -22.75391    2.00000
    2    -22.31002    2.00000
    3    -21.03947    2.00000
    4    -20.82214    2.00000
    5    -20.45637    2.00000
    6    -19.64137    2.00000
    7    -19.39135    2.00000
    8    -18.97966    2.00000
    9    -18.51282    2.00000
   10    -18.18301    2.00000
   11    -17.36704    2.00000
   12    -16.55742    2.00000
   13    -16.34011    2.00000
   14    -15.84015    2.00000
   15    -15.03315    2.00000
   16    -14.22556    2.00000
   17    -14.15225    2.00000
   18    -13.68669    2.00000
   19    -13.66357    2.00000
   20    -13.16592    2.00000
   21    -12.47347    2.00000
   22    -12.07878    2.00000
   23    -11.52805    2.00000
   24    -11.37385    2.00000
   25    -11.15064    2.00000
   26    -10.79257    2.00000
   27    -10.32170    2.00000
   28    -10.08636    2.00000
   29     -9.89980    2.00000
   30     -8.89365    2.00000
   31     -8.77039    2.00000
   32     -8.46440    2.00000
   33     -8.25161    2.00000
   34     -8.04446    2.00000
   35     -8.00276    2.00000
   36     -7.84146    2.00000
   37     -7.43962    2.00000
   38     -7.08198    2.00000
   39     -6.91481    2.00000
   40     -6.67289    2.00000
   41     -6.34564    2.00000
   42     -6.11887    1.99998
   43     -5.75035    1.99939
   44     -5.60591    1.99742
   45     -5.43388    1.98569
   46     -5.36916    1.97283
   47     -5.17607    1.82657
   48     -4.71942    0.19735
   49     -4.48487    0.02076
   50     -3.63924    0.00000
   51     -3.39481    0.00000
   52     -3.07427    0.00000
   53     -2.88459    0.00000
   54     -2.58097    0.00000
   55     -2.11200    0.00000
   56     -1.47522    0.00000
   57     -1.28298    0.00000
   58     -0.82028    0.00000
   59     -0.76901    0.00000
   60      0.31334    0.00000
   61      0.73673    0.00000
   62      2.01908    0.00000
   63      2.36101    0.00000
   64      2.94176    0.00000
   65      3.07325    0.00000
   66      3.29196    0.00000
   67      3.84202    0.00000
   68      3.91294    0.00000
   69      4.32385    0.00000
   70      4.57731    0.00000
   71      4.99152    0.00000
   72      5.04269    0.00000
   73      5.41158    0.00000
   74      5.58541    0.00000
   75      5.88026    0.00000
   76      6.32354    0.00000
   77      6.45153    0.00000
   78      6.72981    0.00000
   79      7.31238    0.00000
   80      7.46096    0.00000
   81      7.65683    0.00000
   82      7.92334    0.00000
   83      8.32897    0.00000
   84      8.41476    0.00000
   85      8.49296    0.00000
   86      8.72992    0.00000
   87      8.78429    0.00000
   88      9.01641    0.00000
   89      9.12350    0.00000
   90      9.45028    0.00000
   91      9.48104    0.00000
   92      9.78882    0.00000
   93      9.86628    0.00000
   94      9.91812    0.00000
   95     10.05874    0.00000
   96     10.10371    0.00000
   97     10.17133    0.00000


Forces in eV/Ang:
  0 C    -0.02673   -0.01633    0.00584
  1 C     0.00085    0.01969    0.00370
  2 C    -0.01553   -0.01102   -0.02719
  3 C    -0.02404   -0.02062    0.02602
  4 C     0.06168    0.05558   -0.01139
  5 C    -0.08387    0.03990    0.03950
  6 C     0.01188   -0.01609    0.00375
  7 C    -0.02171   -0.02795   -0.01964
  8 C     0.03970   -0.01917    0.00307
  9 C    -0.05129   -0.01157    0.00714
 10 C    -0.05540   -0.00295    0.00992
 11 C    -0.04531    0.01995   -0.01569
 12 C     0.00840    0.01384   -0.02183
 13 C     0.04078   -0.02355    0.00203
 14 C    -0.00140   -0.00617   -0.00184
 15 C     0.02688    0.03293    0.01934
 16 C     0.00314   -0.00786   -0.01605
 17 C     0.05038    0.02450    0.05697
 18 C    -0.00295   -0.00961   -0.00415
 19 C     0.00969    0.00838    0.02526
 20 C     0.00250   -0.02284    0.02505
 21 C    -0.00921    0.03030   -0.02208
 22 C    -0.04723    0.02620   -0.00215
 23 C     0.05958   -0.02279   -0.02344

System changes: positions 

Initializing position-dependent things.

Density initialized from wave functions
           .--------------------------------------.  
          /|                                      |  
         / |                                      |  
        /  |                                      |  
       /   |                                      |  
      /    |                                      |  
     /     |                                      |  
    /      |                                      |  
   /       |                                      |  
  /        |           C  C  C                    |  
 *         |        C    C  C C   C               |  
 |         |     C     C       C                  |  
 |         .----C---C--------C--------------------.  
 |        /  CC    C   C  C    C                 /   
 |       /      C                C              /    
 |      /                         C            /     
 |     /                            C         /      
 |    /                                      /       
 |   /                                      /        
 |  /                                      /         
 | /                                      /          
 |/                                      /           
 *--------------------------------------*            

Positions:
   0 C      5.996767    6.062598    4.433619
   1 C      6.309182   10.864045    4.829084
   2 C      5.675668    7.518751    4.565182
   3 C      8.607502   10.066943    5.094859
   4 C      6.709384    8.366761    4.768245
   5 C      8.456014   11.507684    5.140001
   6 C     10.995226    5.588284    4.585071
   7 C      7.244487    9.591651    4.891227
   8 C      7.226954   11.906432    4.995864
   9 C      7.384100    5.796486    4.547537
  10 C      4.914222    5.190741    4.205424
  11 C     11.851983    4.689187    4.303197
  12 C     12.751194    3.759186    3.992821
  13 C      4.255755    9.467451    4.512682
  14 C      3.783266    5.859230    4.146534
  15 C     10.185510    7.864595    5.121312
  16 C      9.946398    6.457841    4.807137
  17 C     13.598474    2.847864    3.577537
  18 C     11.078027    8.891737    5.525105
  19 C      8.599190    6.037013    4.679762
  20 C      4.977510   10.493059    4.647508
  21 C      4.260025    8.061577    4.430088
  22 C      3.279016    7.063553    4.219898
  23 C      9.691138    9.176791    5.221910

Unit cell:
           periodic     x           y           z      points  spacing
  1. axis:    yes   16.000000    0.000000    0.000000    80     0.2000
  2. axis:    yes    0.000000   16.000000    0.000000    80     0.2000
  3. axis:    yes    0.000000    0.000000   10.000000    48     0.2083

Effective grid spacing dv^(1/3) = 0.2027

                     log10-error:    total        iterations:
           time      wfs    density  energy       fermi  poisson
iter:   1  15:46:47          +inf  -178.981555    2      5      
iter:   2  15:46:48         -2.88  -178.979398    2      1      
iter:   3  15:46:49         -3.08  -178.976969    2      1      
iter:   4  15:46:49         -3.27  -178.977761    2      1      
iter:   5  15:46:50         -3.43  -178.976476    2      1      
iter:   6  15:46:50         -3.47  -178.976704    2      1      
iter:   7  15:46:51         -3.84  -178.978865    2      1      
iter:   8  15:46:51         -3.37  -178.977204    2      1      
iter:   9  15:46:52         -4.11  -178.976717    1      1      

Converged after 9 iterations.

Dipole moment: (-1.733123, 0.730269, 0.118925) |e|*Ang

Energy contributions relative to reference atoms: (reference = -24663.074771)

Kinetic:       +109.292504
Potential:     -118.701757
External:        +0.000000
XC:            -172.468772
Entropy (-ST):   -0.161498
Local:           +2.982057
--------------------------
Free energy:   -179.057466
Extrapolated:  -178.976717

Fermi level: -4.94311

 Band  Eigenvalues  Occupancy
    0    -23.01970    2.00000
    1    -22.75486    2.00000
    2    -22.31293    2.00000
    3    -21.03604    2.00000
    4    -20.82301    2.00000
    5    -20.45649    2.00000
    6    -19.64267    2.00000
    7    -19.38877    2.00000
    8    -18.98154    2.00000
    9    -18.51145    2.00000
   10    -18.18161    2.00000
   11    -17.36509    2.00000
   12    -16.56109    2.00000
   13    -16.33843    2.00000
   14    -15.84193    2.00000
   15    -15.02779    2.00000
   16    -14.22675    2.00000
   17    -14.15028    2.00000
   18    -13.68832    2.00000
   19    -13.66612    2.00000
   20    -13.16441    2.00000
   21    -12.47158    2.00000
   22    -12.07779    2.00000
   23    -11.52811    2.00000
   24    -11.37361    2.00000
   25    -11.15186    2.00000
   26    -10.79339    2.00000
   27    -10.32703    2.00000
   28    -10.08585    2.00000
   29     -9.89763    2.00000
   30     -8.89464    2.00000
   31     -8.77238    2.00000
   32     -8.46306    2.00000
   33     -8.25086    2.00000
   34     -8.04306    2.00000
   35     -7.99983    2.00000
   36     -7.83814    2.00000
   37     -7.43916    2.00000
   38     -7.08209    2.00000
   39     -6.91293    2.00000
   40     -6.67226    2.00000
   41     -6.35160    2.00000
   42     -6.11907    1.99998
   43     -5.75233    1.99939
   44     -5.60569    1.99735
   45     -5.43170    1.98501
   46     -5.37079    1.97261
   47     -5.17782    1.82540
   48     -4.72337    0.19997
   49     -4.48503    0.02029
   50     -3.63947    0.00000
   51     -3.39335    0.00000
   52     -3.06769    0.00000
   53     -2.88553    0.00000
   54     -2.57625    0.00000
   55     -2.11240    0.00000
   56     -1.47425    0.00000
   57     -1.28495    0.00000
   58     -0.82634    0.00000
   59     -0.77072    0.00000
   60      0.31476    0.00000
   61      0.73414    0.00000
   62      2.01250    0.00000
   63      2.35468    0.00000
   64      2.94728    0.00000
   65      3.07854    0.00000
   66      3.30070    0.00000
   67      3.82839    0.00000
   68      3.91359    0.00000
   69      4.30985    0.00000
   70      4.57602    0.00000
   71      4.99017    0.00000
   72      5.04002    0.00000
   73      5.41071    0.00000
   74      5.56997    0.00000
   75      5.87528    0.00000
   76      6.32387    0.00000
   77      6.44368    0.00000
   78      6.72536    0.00000
   79      7.30512    0.00000
   80      7.45519    0.00000
   81      7.65858    0.00000
   82      7.91914    0.00000
   83      8.32226    0.00000
   84      8.41089    0.00000
   85      8.49218    0.00000
   86      8.72737    0.00000
   87      8.78537    0.00000
   88      9.01502    0.00000
   89      9.12411    0.00000
   90      9.45813    0.00000
   91      9.48084    0.00000
   92      9.79049    0.00000
   93      9.86742    0.00000
   94      9.91819    0.00000
   95     10.05712    0.00000
   96     10.10040    0.00000
   97     10.16861    0.00000


Forces in eV/Ang:
  0 C    -0.05030   -0.02704    0.01963
  1 C     0.00074   -0.00937   -0.00915
  2 C    -0.00007    0.01845   -0.03161
  3 C     0.01414   -0.02242    0.02505
  4 C     0.01536    0.01717   -0.03987
  5 C    -0.04949    0.00427    0.03403
  6 C    -0.01662   -0.01155    0.00290
  7 C    -0.01298    0.02025    0.00035
  8 C    -0.00046    0.01299    0.01639
  9 C     0.05627   -0.00261    0.01200
 10 C    -0.05460    0.02428    0.00916
 11 C    -0.01424   -0.00878   -0.01783
 12 C    -0.03187    0.04362    0.00792
 13 C     0.02460   -0.00993    0.01440
 14 C    -0.00262   -0.01491    0.00531
 15 C     0.02393   -0.02502    0.01749
 16 C     0.02266   -0.01604   -0.01183
 17 C     0.03951    0.01173    0.07329
 18 C     0.00942   -0.00172   -0.03023
 19 C    -0.06623    0.00081    0.01028
 20 C    -0.01421   -0.01658    0.01263
 21 C     0.02373    0.01310   -0.00026
 22 C    -0.04961    0.02474   -0.01788
 23 C     0.04241    0.00026   -0.01092

