
  ___ ___ ___ _ _ _  
 |   |   |_  | | | | 
 | | | | | . | | | | 
 |__ |  _|___|_____|  1.3.0b1
 |___|_|             

User:   esb@s65n31.grendel.cscaa.dk
Date:   Thu Nov  9 10:32:42 2017
Arch:   x86_64
Pid:    16887
Python: 2.7.13
gpaw:   /home/esb/DFT/gpaw_git/gpaw
_gpaw:  /home/esb/DFT/gpaw_git/build/bin.linux-x86_64-2.7/gpaw-python
ase:    /home/esb/DFT/ase_git/ase (version 3.15.0b1)
numpy:  /comm/swstack/core/python/2.7.13/lib/python2.7/site-packages/numpy (version 1.13.3)
scipy:  /comm/swstack/core/python/2.7.13/lib/python2.7/site-packages/scipy (version 0.19.1)
units:  Angstrom and eV
cores:  16
Extra parameters: {'blacs': True}

Input parameters:
  basis: dzp
  gpts: [80 80 48]
  kpts: [1 1 1]
  maxiter: 99
  mixer: {backend: pulay,
          beta: 0.05,
          method: separate,
          nmaxold: 5,
          weight: 75}
  mode: lcao
  nbands: -50
  occupations: {name: fermi-dirac,
                width: 0.1}
  poissonsolver: {eps: 1e-07,
                  name: fd,
                  nn: 3,
                  relax: GS}
  xc: PBE

System changes: positions, numbers, cell, pbc, initial_charges, initial_magmoms 

Initialize ...

C-setup:
  name: Carbon
  id: 4aa54d4b901d75f77cc0ea3eec22967b
  Z: 6
  valence: 4
  core: 2
  charge: 0.0
  file: /home/esb/DFT/gpaw-setups-0.8.7929/C.PBE.gz
  cutoffs: 0.64(comp), 1.14(filt), 1.14(core), lmax=2
  valence states:
                energy  radius
    2s(2.00)   -13.751   0.635
    2p(2.00)    -5.284   0.635
    *s          13.461   0.635
    *p          21.927   0.635
    *d           0.000   0.635

  LCAO basis set for C:
    Name: dzp
    File: /home/esb/DFT/gpaw-setups-0.8.7929/C.dzp.basis.gz
    Number of radial functions: 5
    Number of spherical harmonics: 13
      l=0, rc=5.5469 Bohr: 2s-sz confined orbital
      l=1, rc=6.6719 Bohr: 2p-sz confined orbital
      l=0, rc=3.0312 Bohr: 2s-dz split-valence wave
      l=1, rc=3.7500 Bohr: 2p-dz split-valence wave
      l=2, rc=6.6719 Bohr: d-type Gaussian polarization

Reference energy: -24663.074771

Spin-paired calculation

Occupation numbers:
  Fermi-Dirac: width=0.1000 eV

Convergence criteria:
  Maximum total energy change: 0.0005 eV / electron
  Maximum integral of absolute density change: 0.0001 electrons
  Maximum integral of absolute eigenstate change: 4e-08 eV^2
  Maximum number of iterations: 99

Symmetries present (total): 1

  ( 1  0  0)
  ( 0  1  0)
  ( 0  0  1)

1 k-point (Gamma)
1 k-point in the irreducible part of the Brillouin zone
       k-points in crystal coordinates                weights
   0:     0.00000000    0.00000000    0.00000000          1/1

Wave functions: LCAO
  Diagonalizer: Serial LAPACK
  Atomic Correction: dense with blas
  Datatype: float
  Eigensolver: None 

LCAO using direct dense diagonalizer 

Densities:
  Coarse grid: 80*80*48 grid
  Fine grid: 160*160*96 grid
  Total Charge: 0.000000 

Density mixing:
  Method: separate
  Backend: pulay
  Linear mixing parameter: 0.05
  Mixing with 5 old densities
  Damping of long wave oscillations: 75 

Hamiltonian:
  XC and Coulomb potentials evaluated on a 160*160*96 grid
  Using the PBE Exchange-Correlation functional
  Interpolation: tri-quintic (5. degree polynomial)
  Poisson solver: Gauss-Seidel solver with 6 multi-grid levels
    Coarsest grid: 5 x 5 x 3 points
    Stencil: 6*3+1=19 point O(h^6) finite-difference Laplacian
    Max iterations: 1000
    Tolerance: 1.000000e-07 

Memory estimate:
  Process memory now: 79.55 MiB
  Calculator: 15.59 MiB
    Density: 6.13 MiB
      Arrays: 3.81 MiB
      Localized functions: 0.86 MiB
      Mixer: 1.46 MiB
    Hamiltonian: 5.40 MiB
      Arrays: 2.49 MiB
      XC: 0.00 MiB
      Poisson: 2.85 MiB
      vbar: 0.07 MiB
    Wavefunctions: 4.05 MiB
      C [qnM]: 0.23 MiB
      S, T [2 x qmm]: 1.49 MiB
      P [aqMi]: 0.01 MiB
      TCI: 0.00 MiB
      BasisFunctions: 2.33 MiB
      Eigensolver: 0.00 MiB

Total number of cores used: 16
Domain decomposition: 2 x 4 x 2

Number of atoms: 24
Number of atomic orbitals: 312
Number of bands in calculation: 98
Bands to converge: occupied states only
Number of valence electrons: 96

... initialized

Initializing position-dependent things.

Density initialized from atomic densities
           .--------------------------------------.  
          /|                                      |  
         / |                                      |  
        /  |                                      |  
       /   |                                      |  
      /    |                                      |  
     /     |                                      |  
    /      |                                      |  
   /       |                                      |  
  /       C|          C  C                        |  
 *         | C C    C      C                      |  
 |         |      C  C   C                        |  
 |         .--CC--C--C---C--C--C------------------.  
 |        /           C   C                      /   
 |       /      C     C                         /    
 |      /          C  C                        /     
 |     /                                      /      
 |    /                                      /       
 |   /                                      /        
 |  /                                      /         
 | /                                      /          
 |/                                      /           
 *--------------------------------------*            

Positions:
   0 C     10.773867    6.150322    5.188351
   1 C      9.367469    4.132462    5.116581
   2 C      9.519101    5.543678    5.209460
   3 C      5.378194    8.712916    5.802876
   4 C      7.474601    9.965105    5.679214
   5 C      6.241915    9.843237    5.865144
   6 C      7.701780    7.586696    5.400398
   7 C      8.198879    6.195252    5.294327
   8 C      6.237274    7.531132    5.555899
   9 C      8.368230    8.896932    5.361862
  10 C      8.056090    1.899608    4.625320
  11 C      7.144349    5.803821    4.487939
  12 C      6.741196    2.264913    5.007565
  13 C      7.742349    3.284970    4.556233
  14 C      5.475356    2.547808    5.380250
  15 C      7.606997    4.626565    4.444737
  16 C      4.277668    4.765506    5.438223
  17 C      6.475197    7.006545    4.592228
  18 C      5.062943    7.136226    4.972492
  19 C      4.278956    6.028984    5.283401
  20 C      4.733790    8.568184    4.941612
  21 C      1.043271    9.945784    5.354893
  22 C      3.472503    9.088549    5.173458
  23 C      2.310062    9.550679    5.322292

Unit cell:
           periodic     x           y           z      points  spacing
  1. axis:    yes   16.000000    0.000000    0.000000    80     0.2000
  2. axis:    yes    0.000000   16.000000    0.000000    80     0.2000
  3. axis:    yes    0.000000    0.000000   10.000000    48     0.2083

Effective grid spacing dv^(1/3) = 0.2027

                     log10-error:    total        iterations:
           time      wfs    density  energy       fermi  poisson
iter:   1  10:32:44          +inf  -154.822878    3      6      
iter:   2  10:32:45         -0.85  -153.360470    4      3      
iter:   3  10:32:45         -0.88  -151.401117    3      3      
iter:   4  10:32:46         -0.96  -150.261975    3      2      
iter:   5  10:32:46         -1.03  -149.116521    4      3      
iter:   6  10:32:47         -1.18  -148.920269    4      3      
iter:   7  10:32:48         -1.28  -148.619058    3      3      
iter:   8  10:32:48         -1.50  -148.510974    4      3      
iter:   9  10:32:49         -1.59  -148.425159    3      3      
iter:  10  10:32:50         -1.70  -148.387713    3      3      
iter:  11  10:32:50         -1.96  -148.382195    3      2      
iter:  12  10:32:51         -2.04  -148.384387    4      2      
iter:  13  10:32:51         -2.19  -148.367370    3      2      
iter:  14  10:32:52         -2.38  -148.362558    3      2      
iter:  15  10:32:52         -2.48  -148.360875    3      2      
iter:  16  10:32:53         -2.61  -148.357382    2      2      
iter:  17  10:32:54         -2.83  -148.357007    3      2      
iter:  18  10:32:54         -3.02  -148.354661    2      1      
iter:  19  10:32:55         -3.18  -148.359691    2      1      
iter:  20  10:32:55         -3.32  -148.364091    2      1      
iter:  21  10:32:56         -3.44  -148.363720    2      1      
iter:  22  10:32:56         -3.58  -148.361105    2      1      
iter:  23  10:32:57         -3.68  -148.359040    2      1      
iter:  24  10:32:58         -3.79  -148.356896    2      1      
iter:  25  10:32:58         -3.94  -148.356273    2      1      
iter:  26  10:32:59         -4.15  -148.357880    2      1      

Converged after 26 iterations.

Dipole moment: (-1.828841, 0.671814, -0.119841) |e|*Ang

Energy contributions relative to reference atoms: (reference = -24663.074771)

Kinetic:       +230.617622
Potential:     -195.222427
External:        +0.000000
XC:            -186.478210
Entropy (-ST):   -0.406763
Local:           +2.928516
--------------------------
Free energy:   -148.561262
Extrapolated:  -148.357880

Fermi level: -4.64763

 Band  Eigenvalues  Occupancy
    0    -29.30382    2.00000
    1    -25.82984    2.00000
    2    -23.82295    2.00000
    3    -23.12496    2.00000
    4    -22.10030    2.00000
    5    -20.95983    2.00000
    6    -20.28912    2.00000
    7    -19.91178    2.00000
    8    -19.18603    2.00000
    9    -18.44427    2.00000
   10    -18.12425    2.00000
   11    -17.60139    2.00000
   12    -17.51551    2.00000
   13    -16.65317    2.00000
   14    -16.28492    2.00000
   15    -15.91318    2.00000
   16    -15.40792    2.00000
   17    -15.17919    2.00000
   18    -14.93921    2.00000
   19    -14.32571    2.00000
   20    -12.94864    2.00000
   21    -12.78261    2.00000
   22    -12.32929    2.00000
   23    -11.97591    2.00000
   24    -11.23566    2.00000
   25    -10.97249    2.00000
   26    -10.47157    2.00000
   27    -10.45266    2.00000
   28     -9.96401    2.00000
   29     -9.41336    2.00000
   30     -9.19678    2.00000
   31     -8.63050    2.00000
   32     -8.29185    2.00000
   33     -7.98948    2.00000
   34     -7.88657    2.00000
   35     -7.62921    2.00000
   36     -7.50533    2.00000
   37     -7.28817    2.00000
   38     -6.79774    2.00000
   39     -6.63869    2.00000
   40     -6.56372    2.00000
   41     -6.34527    2.00000
   42     -6.13874    2.00000
   43     -5.73841    1.99996
   44     -5.47915    1.99951
   45     -5.13341    1.98459
   46     -5.08407    1.97487
   47     -4.64251    0.97440
   48     -4.57775    0.66416
   49     -4.49467    0.35609
   50     -4.25972    0.04050
   51     -4.01058    0.00342
   52     -3.95955    0.00205
   53     -3.80523    0.00044
   54     -3.26636    0.00000
   55     -2.66563    0.00000
   56     -2.18376    0.00000
   57     -1.93948    0.00000
   58     -1.09906    0.00000
   59     -0.88340    0.00000
   60     -0.51275    0.00000
   61      0.28672    0.00000
   62      0.56444    0.00000
   63      0.83319    0.00000
   64      1.08580    0.00000
   65      1.39116    0.00000
   66      1.51219    0.00000
   67      1.86363    0.00000
   68      2.32308    0.00000
   69      2.54265    0.00000
   70      3.43794    0.00000
   71      3.89751    0.00000
   72      4.44190    0.00000
   73      4.61419    0.00000
   74      4.97868    0.00000
   75      5.57433    0.00000
   76      5.72700    0.00000
   77      6.45378    0.00000
   78      6.67009    0.00000
   79      6.81543    0.00000
   80      7.15660    0.00000
   81      7.29812    0.00000
   82      7.56856    0.00000
   83      7.86948    0.00000
   84      8.09483    0.00000
   85      8.20698    0.00000
   86      8.28227    0.00000
   87      8.69404    0.00000
   88      8.72926    0.00000
   89      8.73573    0.00000
   90      9.00371    0.00000
   91      9.11565    0.00000
   92      9.29769    0.00000
   93      9.40597    0.00000
   94      9.46529    0.00000
   95      9.59346    0.00000
   96      9.78323    0.00000
   97      9.90819    0.00000


Forces in eV/Ang:
  0 C    -0.65148   -0.38039    0.04279
  1 C    -0.59404   -0.95649   -1.28063
  2 C    -0.36861    2.29794    1.44931
  3 C    25.70677    9.43819   25.16117
  4 C     3.48494   -2.78821   -0.46179
  5 C    -2.11310    1.44567    1.67029
  6 C     6.20164    3.39993    3.53228
  7 C     4.28393    4.92642    1.14207
  8 C     1.13066   13.55844   29.16035
  9 C    -1.57464    0.01178    0.53752
 10 C    -0.20040   -1.05724   -0.36110
 11 C     0.12264    0.71048   -0.49601
 12 C    -1.81791   -0.63986    0.95776
 13 C     1.44337    2.39118   -0.69023
 14 C    -0.94966   -0.50316    0.28901
 15 C     1.19833   -9.63840   -2.32489
 16 C     0.29267   -0.66736    0.02124
 17 C     1.11803  -12.17971  -26.15864
 18 C    -7.96087   -3.62478   -5.99161
 19 C     0.35108   -1.25219    0.33844
 20 C   -27.85664   -4.78552  -24.54297
 21 C    -0.33990    0.14565    0.02627
 22 C     0.89559   -0.78975   -2.35697
 23 C    -1.72855    0.96384    0.38148

System changes: positions 

Initializing position-dependent things.

Density initialized from wave functions
           .--------------------------------------.  
          /|                                      |  
         / |                                      |  
        /  |                                      |  
       /   |                                      |  
      /    |                                      |  
     /     |                                      |  
    /      |                                      |  
   /       |                                      |  
  /       C|          C  C                        |  
 *         | C C    C      C                      |  
 |         |      C  C   C                        |  
 |         .--CC--C--C---C--C--C------------------.  
 |        /           C   C                      /   
 |       /      C     C                         /    
 |      /          C  C                        /     
 |     /                                      /      
 |    /                                      /       
 |   /                                      /        
 |  /                                      /         
 | /                                      /          
 |/                                      /           
 *--------------------------------------*            

Positions:
   0 C     10.773171    6.149916    5.188397
   1 C      9.366834    4.131440    5.115212
   2 C      9.518707    5.546134    5.211008
   3 C      5.405663    8.723001    5.829762
   4 C      7.478325    9.962125    5.678721
   5 C      6.239657    9.844782    5.866928
   6 C      7.708407    7.590329    5.404172
   7 C      8.203457    6.200517    5.295548
   8 C      6.238483    7.545620    5.587059
   9 C      8.366548    8.896945    5.362436
  10 C      8.055876    1.898478    4.624934
  11 C      7.144480    5.804581    4.487409
  12 C      6.739254    2.264229    5.008588
  13 C      7.743892    3.287525    4.555496
  14 C      5.474341    2.547270    5.380558
  15 C      7.608278    4.616265    4.442253
  16 C      4.277980    4.764793    5.438246
  17 C      6.476392    6.993530    4.564276
  18 C      5.054437    7.132352    4.966089
  19 C      4.279331    6.027646    5.283762
  20 C      4.704024    8.563070    4.915386
  21 C      1.042908    9.945939    5.354921
  22 C      3.473460    9.087705    5.170939
  23 C      2.308215    9.551709    5.322699

Unit cell:
           periodic     x           y           z      points  spacing
  1. axis:    yes   16.000000    0.000000    0.000000    80     0.2000
  2. axis:    yes    0.000000   16.000000    0.000000    80     0.2000
  3. axis:    yes    0.000000    0.000000   10.000000    48     0.2083

Effective grid spacing dv^(1/3) = 0.2027

                     log10-error:    total        iterations:
           time      wfs    density  energy       fermi  poisson
iter:   1  10:33:00          +inf  -152.889873    3      5      
iter:   2  10:33:01         -1.99  -152.863934    3      2      
iter:   3  10:33:02         -2.12  -152.854804    3      2      
iter:   4  10:33:02         -2.18  -152.841568    3      2      
iter:   5  10:33:03         -2.31  -152.833340    3      2      
iter:   6  10:33:03         -2.47  -152.828196    3      2      
iter:   7  10:33:04         -2.80  -152.825655    2      2      
iter:   8  10:33:05         -2.91  -152.824650    3      1      
iter:   9  10:33:05         -3.09  -152.823619    2      1      
iter:  10  10:33:06         -3.22  -152.823658    2      1      
iter:  11  10:33:06         -3.39  -152.824241    2      1      
iter:  12  10:33:07         -3.51  -152.824330    2      1      
iter:  13  10:33:07         -3.70  -152.823732    2      1      
iter:  14  10:33:08         -3.79  -152.823818    2      1      
iter:  15  10:33:08         -4.00  -152.823989    2      1      
iter:  16  10:33:09         -4.16  -152.824158    2      1      

Converged after 16 iterations.

Dipole moment: (-1.808312, 0.647651, -0.106202) |e|*Ang

Energy contributions relative to reference atoms: (reference = -24663.074771)

Kinetic:       +209.798252
Potential:     -181.714879
External:        +0.000000
XC:            -183.603346
Entropy (-ST):   -0.395548
Local:           +2.893590
--------------------------
Free energy:   -153.021932
Extrapolated:  -152.824158

Fermi level: -4.66647

 Band  Eigenvalues  Occupancy
    0    -28.73531    2.00000
    1    -25.43497    2.00000
    2    -23.64674    2.00000
    3    -22.96825    2.00000
    4    -21.97226    2.00000
    5    -20.92458    2.00000
    6    -20.23915    2.00000
    7    -19.81302    2.00000
    8    -19.17521    2.00000
    9    -18.46671    2.00000
   10    -18.02202    2.00000
   11    -17.61454    2.00000
   12    -17.52715    2.00000
   13    -16.60047    2.00000
   14    -16.25497    2.00000
   15    -15.82102    2.00000
   16    -15.40735    2.00000
   17    -14.97412    2.00000
   18    -14.88358    2.00000
   19    -14.15752    2.00000
   20    -12.85590    2.00000
   21    -12.78850    2.00000
   22    -12.21211    2.00000
   23    -11.91798    2.00000
   24    -11.21449    2.00000
   25    -10.96755    2.00000
   26    -10.48786    2.00000
   27    -10.41286    2.00000
   28     -9.98932    2.00000
   29     -9.39212    2.00000
   30     -9.17361    2.00000
   31     -8.63228    2.00000
   32     -8.22283    2.00000
   33     -7.99446    2.00000
   34     -7.91492    2.00000
   35     -7.62453    2.00000
   36     -7.41630    2.00000
   37     -7.30674    2.00000
   38     -6.79643    2.00000
   39     -6.65363    2.00000
   40     -6.53151    2.00000
   41     -6.39301    2.00000
   42     -6.16807    2.00000
   43     -5.76414    1.99997
   44     -5.53568    1.99966
   45     -5.18820    1.98921
   46     -5.10982    1.97653
   47     -4.66462    0.99075
   48     -4.59965    0.67779
   49     -4.50477    0.33122
   50     -4.24907    0.03031
   51     -4.02947    0.00342
   52     -3.88807    0.00083
   53     -3.78586    0.00030
   54     -3.29144    0.00000
   55     -2.79545    0.00000
   56     -2.26872    0.00000
   57     -1.94064    0.00000
   58     -1.11553    0.00000
   59     -0.86141    0.00000
   60     -0.57731    0.00000
   61      0.22273    0.00000
   62      0.56992    0.00000
   63      0.85053    0.00000
   64      1.08940    0.00000
   65      1.38607    0.00000
   66      1.57830    0.00000
   67      1.92386    0.00000
   68      2.39072    0.00000
   69      2.56883    0.00000
   70      3.66837    0.00000
   71      3.97264    0.00000
   72      4.52336    0.00000
   73      4.65547    0.00000
   74      5.15828    0.00000
   75      5.65629    0.00000
   76      5.71652    0.00000
   77      6.39678    0.00000
   78      6.60411    0.00000
   79      6.80448    0.00000
   80      7.23063    0.00000
   81      7.27239    0.00000
   82      7.60658    0.00000
   83      7.96162    0.00000
   84      8.12968    0.00000
   85      8.21781    0.00000
   86      8.30567    0.00000
   87      8.63867    0.00000
   88      8.69438    0.00000
   89      8.73029    0.00000
   90      9.02495    0.00000
   91      9.08872    0.00000
   92      9.26108    0.00000
   93      9.38498    0.00000
   94      9.44347    0.00000
   95      9.57732    0.00000
   96      9.77865    0.00000
   97      9.83265    0.00000


Forces in eV/Ang:
  0 C    -0.63636   -0.36307    0.04295
  1 C    -0.58915   -0.83718   -1.30023
  2 C    -0.29666    2.14021    1.42810
  3 C    16.76477    6.88002   14.45894
  4 C     3.19881   -2.61243   -0.38449
  5 C    -1.18843    1.87695    1.54842
  6 C     5.09776    2.96096    3.26234
  7 C     3.95580    4.62173    0.98147
  8 C     1.87246    9.27236   21.22560
  9 C    -1.37189    0.23552    0.49656
 10 C    -0.32469   -0.96678   -0.32136
 11 C     0.76035   -0.14101   -0.33442
 12 C    -1.65916   -0.69181    0.87466
 13 C     1.46191    1.77894   -0.59391
 14 C    -0.97525   -0.50225    0.30773
 15 C     1.02413   -8.30444   -2.24672
 16 C     0.27039   -0.74310    0.04759
 17 C    -1.04976   -7.45610  -18.50528
 18 C    -6.18359   -2.96127   -5.43904
 19 C     0.25287   -1.38857    0.26130
 20 C   -18.67843   -3.12730  -14.00068
 21 C    -0.21448    0.10114    0.02435
 22 C     0.38485   -0.83328   -2.17785
 23 C    -1.78471    1.04472    0.38163

System changes: positions 

Initializing position-dependent things.

Density initialized from wave functions
           .--------------------------------------.  
          /|                                      |  
         / |                                      |  
        /  |                                      |  
       /   |                                      |  
      /    |                                      |  
     /     |                                      |  
    /      |                                      |  
   /       |                                      |  
  /       C|          C  C                        |  
 *         | C C    C      C                      |  
 |         |      C  C   C                        |  
 |         .--CC--C--C---C--C--C------------------.  
 |        /           C   C                      /   
 |       /      C     C                         /    
 |      /          C  C                        /     
 |     /                                      /      
 |    /                                      /       
 |   /                                      /        
 |  /                                      /         
 | /                                      /          
 |/                                      /           
 *--------------------------------------*            

Positions:
   0 C     10.770774    6.148599    5.188566
   1 C      9.364562    4.128867    5.110020
   2 C      9.517969    5.553572    5.216462
   3 C      5.418957    8.734943    5.823781
   4 C      7.489147    9.952949    5.677670
   5 C      6.240412    9.854628    5.872264
   6 C      7.721874    7.599331    5.415338
   7 C      8.216991    6.216788    5.298444
   8 C      6.250124    7.556822    5.623652
   9 C      8.362373    8.899170    5.364137
  10 C      8.053882    1.895230    4.623911
  11 C      7.151170    5.799061    4.487046
  12 C      6.733701    2.261224    5.011519
  13 C      7.749709    3.290900    4.553738
  14 C      5.470383    2.545314    5.381869
  15 C      7.611261    4.591618    4.433935
  16 C      4.278906    4.761449    5.438586
  17 C      6.459643    6.991974    4.536665
  18 C      5.040659    7.124659    4.948073
  19 C      4.279746    6.021428    5.284333
  20 C      4.684634    8.560533    4.922224
  21 C      1.042802    9.946075    5.355005
  22 C      3.471983    9.084196    5.163479
  23 C      2.300917    9.556261    5.324191

Unit cell:
           periodic     x           y           z      points  spacing
  1. axis:    yes   16.000000    0.000000    0.000000    80     0.2000
  2. axis:    yes    0.000000   16.000000    0.000000    80     0.2000
  3. axis:    yes    0.000000    0.000000   10.000000    48     0.2083

Effective grid spacing dv^(1/3) = 0.2027

                     log10-error:    total        iterations:
           time      wfs    density  energy       fermi  poisson
iter:   1  10:33:11          +inf  -155.468173    3      5      
iter:   2  10:33:11         -1.95  -155.420568    3      2      
iter:   3  10:33:12         -2.09  -155.401421    3      2      
iter:   4  10:33:13         -2.19  -155.388976    3      2      
iter:   5  10:33:13         -2.34  -155.385203    3      2      
iter:   6  10:33:14         -2.55  -155.383889    2      2      
iter:   7  10:33:14         -2.69  -155.382214    3      2      
iter:   8  10:33:15         -2.89  -155.382884    2      1      
iter:   9  10:33:15         -2.99  -155.381559    2      2      
iter:  10  10:33:16         -3.28  -155.382656    2      1      
iter:  11  10:33:17         -3.41  -155.382583    2      1      
iter:  12  10:33:17         -3.50  -155.382332    2      1      
iter:  13  10:33:18         -3.76  -155.381977    2      1      
iter:  14  10:33:18         -3.88  -155.381691    2      1      
iter:  15  10:33:19         -4.00  -155.382020    2      1      
iter:  16  10:33:19         -4.28  -155.381506    2      1      

Converged after 16 iterations.

Dipole moment: (-1.797722, 0.641890, -0.099589) |e|*Ang

Energy contributions relative to reference atoms: (reference = -24663.074771)

Kinetic:       +198.835048
Potential:     -174.960081
External:        +0.000000
XC:            -181.964090
Entropy (-ST):   -0.387227
Local:           +2.901230
--------------------------
Free energy:   -155.575119
Extrapolated:  -155.381506

Fermi level: -4.67515

 Band  Eigenvalues  Occupancy
    0    -28.16828    2.00000
    1    -25.06175    2.00000
    2    -23.51319    2.00000
    3    -22.73725    2.00000
    4    -21.88621    2.00000
    5    -20.86817    2.00000
    6    -20.14612    2.00000
    7    -19.77200    2.00000
    8    -19.19536    2.00000
    9    -18.53521    2.00000
   10    -17.95261    2.00000
   11    -17.64152    2.00000
   12    -17.51488    2.00000
   13    -16.49938    2.00000
   14    -16.22419    2.00000
   15    -15.77195    2.00000
   16    -15.28815    2.00000
   17    -14.89698    2.00000
   18    -14.84686    2.00000
   19    -13.99057    2.00000
   20    -12.86590    2.00000
   21    -12.83480    2.00000
   22    -12.18772    2.00000
   23    -11.87142    2.00000
   24    -11.18567    2.00000
   25    -10.96907    2.00000
   26    -10.48462    2.00000
   27    -10.39989    2.00000
   28     -9.97487    2.00000
   29     -9.45966    2.00000
   30     -9.12221    2.00000
   31     -8.62531    2.00000
   32     -8.20991    2.00000
   33     -8.01510    2.00000
   34     -7.94013    2.00000
   35     -7.59872    2.00000
   36     -7.41879    2.00000
   37     -7.34106    2.00000
   38     -6.79064    2.00000
   39     -6.68169    2.00000
   40     -6.48933    2.00000
   41     -6.41741    2.00000
   42     -6.19707    2.00000
   43     -5.80690    1.99998
   44     -5.59019    1.99979
   45     -5.23593    1.99269
   46     -5.12447    1.97788
   47     -4.67780    1.01324
   48     -4.60776    0.67526
   49     -4.50597    0.31108
   50     -4.24228    0.02603
   51     -4.03539    0.00333
   52     -3.85269    0.00054
   53     -3.74985    0.00019
   54     -3.33145    0.00000
   55     -2.82847    0.00000
   56     -2.26841    0.00000
   57     -1.90661    0.00000
   58     -1.12863    0.00000
   59     -0.85309    0.00000
   60     -0.66284    0.00000
   61      0.15721    0.00000
   62      0.59489    0.00000
   63      0.85734    0.00000
   64      1.13429    0.00000
   65      1.40254    0.00000
   66      1.64222    0.00000
   67      1.97508    0.00000
   68      2.50593    0.00000
   69      2.61524    0.00000
   70      3.80535    0.00000
   71      4.03955    0.00000
   72      4.54274    0.00000
   73      4.65656    0.00000
   74      5.19091    0.00000
   75      5.61836    0.00000
   76      5.74410    0.00000
   77      6.38116    0.00000
   78      6.57762    0.00000
   79      6.75388    0.00000
   80      7.29101    0.00000
   81      7.40101    0.00000
   82      7.67590    0.00000
   83      7.98864    0.00000
   84      8.16351    0.00000
   85      8.23016    0.00000
   86      8.39378    0.00000
   87      8.64482    0.00000
   88      8.65898    0.00000
   89      8.72133    0.00000
   90      9.03647    0.00000
   91      9.10674    0.00000
   92      9.21876    0.00000
   93      9.35642    0.00000
   94      9.46671    0.00000
   95      9.56472    0.00000
   96      9.73363    0.00000
   97      9.78222    0.00000


Forces in eV/Ang:
  0 C    -0.51878   -0.28698    0.05175
  1 C    -0.60363   -0.49855   -1.33567
  2 C    -0.17517    1.64080    1.40582
  3 C    15.73839    6.19020   12.71953
  4 C     2.31211   -2.34276   -0.21573
  5 C    -0.50403    2.12811    1.36031
  6 C     4.28099    2.50486    3.11668
  7 C     2.95249    4.13832    0.34618
  8 C     2.23718    6.30813   15.33708
  9 C    -0.92448    0.21595    0.43669
 10 C    -0.58728   -0.79922   -0.23747
 11 C     1.36978   -0.03841    0.23318
 12 C    -1.36071   -0.74471    0.73517
 13 C     1.52482    0.21216   -0.39319
 14 C    -0.96209   -0.46722    0.31534
 15 C     0.74569   -5.65224   -2.15721
 16 C     0.25147   -1.00722    0.10999
 17 C    -2.22384   -5.23652  -13.44360
 18 C    -4.48143   -2.28931   -4.59261
 19 C     0.12650   -1.24710    0.19289
 20 C   -16.89086   -3.34228  -12.41863
 21 C    -0.56454    0.20970    0.03517
 22 C    -0.79271   -0.32453   -1.86271
 23 C    -0.83635    0.67423    0.24186

System changes: positions 

Initializing position-dependent things.

Density initialized from wave functions
           .--------------------------------------.  
          /|                                      |  
         / |                                      |  
        /  |                                      |  
       /   |                                      |  
      /    |                                      |  
     /     |                                      |  
    /      |                                      |  
   /       |                                      |  
  /       C|          C  C                        |  
 *         | C C    C      C                      |  
 |         |      C  C   C                        |  
 |         .---C--C--C---C--C--C------------------.  
 |        /   C       C   C                      /   
 |       /      C     C                         /    
 |      /          C  C                        /     
 |     /                                      /      
 |    /                                      /       
 |   /                                      /        
 |  /                                      /         
 | /                                      /          
 |/                                      /           
 *--------------------------------------*            

Positions:
   0 C     10.768041    6.147193    5.188931
   1 C      9.360693    4.127855    5.101237
   2 C      9.517829    5.560956    5.225183
   3 C      5.454031    8.754148    5.824761
   4 C      7.498387    9.940301    5.677497
   5 C      6.246244    9.872130    5.879347
   6 C      7.738348    7.610470    5.432765
   7 C      8.229558    6.239140    5.297021
   8 C      6.270894    7.555914    5.643680
   9 C      8.359652    8.901996    5.366400
  10 C      8.048247    1.891425    4.623004
  11 C      7.166679    5.793409    4.491896
  12 C      6.727307    2.255915    5.015079
  13 C      7.759799    3.281827    4.552692
  14 C      5.464133    2.542484    5.384036
  15 C      7.613711    4.575294    4.421085
  16 C      4.280280    4.753464    5.439715
  17 C      6.425992    6.999730    4.523481
  18 C      5.031036    7.117287    4.925967
  19 C      4.279377    6.013116    5.284762
  20 C      4.646866    8.549715    4.921441
  21 C      1.038669    9.947539    5.355259
  22 C      3.458753    9.083859    5.154093
  23 C      2.298985    9.559632    5.325175

Unit cell:
           periodic     x           y           z      points  spacing
  1. axis:    yes   16.000000    0.000000    0.000000    80     0.2000
  2. axis:    yes    0.000000   16.000000    0.000000    80     0.2000
  3. axis:    yes    0.000000    0.000000   10.000000    48     0.2083

Effective grid spacing dv^(1/3) = 0.2027

                     log10-error:    total        iterations:
           time      wfs    density  energy       fermi  poisson
iter:   1  10:33:21          +inf  -157.991801    4      5      
iter:   2  10:33:22         -1.81  -157.889953    3      2      
iter:   3  10:33:22         -2.07  -157.872519    3      2      
iter:   4  10:33:23         -2.16  -157.855331    3      2      
iter:   5  10:33:23         -2.30  -157.849611    3      2      
iter:   6  10:33:24         -2.48  -157.848951    3      2      
iter:   7  10:33:25         -2.64  -157.847848    2      2      
iter:   8  10:33:25         -2.84  -157.847335    2      2      
iter:   9  10:33:26         -2.97  -157.846594    3      2      
iter:  10  10:33:26         -3.20  -157.847735    2      1      
iter:  11  10:33:27         -3.32  -157.848405    2      1      
iter:  12  10:33:27         -3.48  -157.847785    2      1      
iter:  13  10:33:28         -3.59  -157.848089    2      1      
iter:  14  10:33:29         -3.86  -157.847090    2      1      
iter:  15  10:33:29         -4.01  -157.846606    2      1      

Converged after 15 iterations.

Dipole moment: (-1.824648, 0.666588, -0.098706) |e|*Ang

Energy contributions relative to reference atoms: (reference = -24663.074771)

Kinetic:       +190.227121
Potential:     -169.981918
External:        +0.000000
XC:            -180.783339
Entropy (-ST):   -0.373346
Local:           +2.878204
--------------------------
Free energy:   -158.033279
Extrapolated:  -157.846606

Fermi level: -4.67474

 Band  Eigenvalues  Occupancy
    0    -27.75362    2.00000
    1    -24.61504    2.00000
    2    -23.40738    2.00000
    3    -22.54214    2.00000
    4    -21.92408    2.00000
    5    -20.79777    2.00000
    6    -20.07737    2.00000
    7    -19.72911    2.00000
    8    -19.19001    2.00000
    9    -18.58285    2.00000
   10    -17.83971    2.00000
   11    -17.67588    2.00000
   12    -17.48409    2.00000
   13    -16.37973    2.00000
   14    -16.20684    2.00000
   15    -15.73317    2.00000
   16    -15.11547    2.00000
   17    -14.88981    2.00000
   18    -14.75253    2.00000
   19    -13.90134    2.00000
   20    -12.86503    2.00000
   21    -12.76863    2.00000
   22    -12.12716    2.00000
   23    -11.82996    2.00000
   24    -11.14550    2.00000
   25    -10.98031    2.00000
   26    -10.46372    2.00000
   27    -10.38850    2.00000
   28     -9.99505    2.00000
   29     -9.59677    2.00000
   30     -9.11530    2.00000
   31     -8.65113    2.00000
   32     -8.21595    2.00000
   33     -8.07581    2.00000
   34     -7.95367    2.00000
   35     -7.57700    2.00000
   36     -7.38729    2.00000
   37     -7.37381    2.00000
   38     -6.78697    2.00000
   39     -6.71893    2.00000
   40     -6.50952    2.00000
   41     -6.41894    2.00000
   42     -6.18488    2.00000
   43     -5.82708    1.99998
   44     -5.65304    1.99989
   45     -5.26827    1.99472
   46     -5.12684    1.97848
   47     -4.68733    1.06287
   48     -4.60697    0.67353
   49     -4.48913    0.27031
   50     -4.19690    0.01668
   51     -4.02640    0.00305
   52     -3.81203    0.00036
   53     -3.71690    0.00014
   54     -3.33135    0.00000
   55     -2.84386    0.00000
   56     -2.33813    0.00000
   57     -1.88898    0.00000
   58     -1.12042    0.00000
   59     -0.86662    0.00000
   60     -0.74082    0.00000
   61      0.12164    0.00000
   62      0.63439    0.00000
   63      0.89029    0.00000
   64      1.17250    0.00000
   65      1.40336    0.00000
   66      1.72660    0.00000
   67      2.03641    0.00000
   68      2.59599    0.00000
   69      2.78350    0.00000
   70      3.92222    0.00000
   71      4.25645    0.00000
   72      4.58133    0.00000
   73      4.64888    0.00000
   74      5.37882    0.00000
   75      5.62102    0.00000
   76      5.82246    0.00000
   77      6.37991    0.00000
   78      6.70354    0.00000
   79      6.72302    0.00000
   80      7.33819    0.00000
   81      7.48437    0.00000
   82      7.78142    0.00000
   83      7.98235    0.00000
   84      8.19842    0.00000
   85      8.30608    0.00000
   86      8.51805    0.00000
   87      8.62333    0.00000
   88      8.66320    0.00000
   89      8.76596    0.00000
   90      8.96475    0.00000
   91      9.12017    0.00000
   92      9.19201    0.00000
   93      9.35436    0.00000
   94      9.47554    0.00000
   95      9.54448    0.00000
   96      9.66068    0.00000
   97      9.78405    0.00000


Forces in eV/Ang:
  0 C    -0.38369   -0.20491    0.06001
  1 C    -0.65785   -0.18942   -1.40119
  2 C    -0.15238    1.18803    1.36566
  3 C    11.09653    4.43940    7.63866
  4 C     2.07517   -2.11857   -0.15204
  5 C    -0.38024    2.48825    1.24439
  6 C     4.08774    2.15999    3.07745
  7 C     2.37029    3.69572   -0.06440
  8 C     2.13346    5.88755   12.83255
  9 C    -0.42844    0.22830    0.41254
 10 C    -0.65228   -0.96611   -0.16900
 11 C     1.08202    1.14923    0.52491
 12 C    -1.30721   -0.73500    0.70084
 13 C     1.40977    0.02414   -0.33064
 14 C    -0.85756   -0.45375    0.27221
 15 C     0.87285   -4.77001   -2.01466
 16 C     0.22109   -1.09447    0.17329
 17 C    -1.94572   -5.88134  -11.90026
 18 C    -4.25693   -1.88891   -3.74467
 19 C     0.15640   -1.11099    0.08016
 20 C   -11.56549   -2.74088   -7.39321
 21 C    -0.42747    0.16589    0.03679
 22 C    -0.73577   -0.35612   -1.57087
 23 C    -1.62007    0.96508    0.29453

System changes: positions 

Initializing position-dependent things.

Density initialized from wave functions
           .--------------------------------------.  
          /|                                      |  
         / |                                      |  
        /  |                                      |  
       /   |                                      |  
      /    |                                      |  
     /     |                                      |  
    /      |                                      |  
   /       |                                      |  
  /       C|          C   C                       |  
 *         | C C    CC     C                      |  
 |         |      C      C                        |  
 |         .---C--C--C---C--C--C------------------.  
 |        /   C       C   C                      /   
 |       /      C     C                         /    
 |      /          C  C                        /     
 |     /                                      /      
 |    /                                      /       
 |   /                                      /        
 |  /                                      /         
 | /                                      /          
 |/                                      /           
 *--------------------------------------*            

Positions:
   0 C     10.766097    6.146289    5.189449
   1 C      9.355567    4.129398    5.090240
   2 C      9.517725    5.565643    5.235210
   3 C      5.480898    8.768478    5.812345
   4 C      7.507448    9.927003    5.677752
   5 C      6.251765    9.895033    5.886935
   6 C      7.759146    7.621582    5.453867
   7 C      8.239390    6.262183    5.291565
   8 C      6.292387    7.562915    5.665952
   9 C      8.360719    8.904715    5.368952
  10 C      8.041172    1.885166    4.622498
  11 C      7.180721    5.800704    4.500255
  12 C      6.719909    2.249839    5.019156
  13 C      7.770679    3.270205    4.551860
  14 C      5.457787    2.539273    5.386147
  15 C      7.618187    4.561670    4.406976
  16 C      4.281687    4.743232    5.441606
  17 C      6.394969    6.988907    4.500668
  18 C      5.017070    7.110579    4.906454
  19 C      4.279454    6.005076    5.284421
  20 C      4.622965    8.536896    4.933987
  21 C      1.034386    9.949089    5.355589
  22 C      3.444434    9.083666    5.145322
  23 C      2.290205    9.565829    5.326738

Unit cell:
           periodic     x           y           z      points  spacing
  1. axis:    yes   16.000000    0.000000    0.000000    80     0.2000
  2. axis:    yes    0.000000   16.000000    0.000000    80     0.2000
  3. axis:    yes    0.000000    0.000000   10.000000    48     0.2083

Effective grid spacing dv^(1/3) = 0.2027

                     log10-error:    total        iterations:
           time      wfs    density  energy       fermi  poisson
iter:   1  10:33:31          +inf  -159.859518    4      5      
iter:   2  10:33:32         -1.94  -159.808351    3      2      
iter:   3  10:33:32         -2.10  -159.792739    3      2      
iter:   4  10:33:33         -2.20  -159.781956    3      2      
iter:   5  10:33:33         -2.34  -159.778483    3      2      
iter:   6  10:33:34         -2.53  -159.776848    2      2      
iter:   7  10:33:34         -2.72  -159.776087    2      2      
iter:   8  10:33:35         -2.84  -159.776011    2      2      
iter:   9  10:33:36         -3.08  -159.776630    2      1      
iter:  10  10:33:36         -3.21  -159.777432    2      1      
iter:  11  10:33:37         -3.37  -159.777210    2      1      
iter:  12  10:33:37         -3.55  -159.776628    2      1      
iter:  13  10:33:38         -3.72  -159.776378    2      1      
iter:  14  10:33:38         -3.88  -159.775976    2      1      
iter:  15  10:33:39         -4.00  -159.775821    1      1      
iter:  16  10:33:39         -4.20  -159.775751    2      1      

Converged after 16 iterations.

Dipole moment: (-1.856696, 0.648999, -0.107724) |e|*Ang

Energy contributions relative to reference atoms: (reference = -24663.074771)

Kinetic:       +183.337780
Potential:     -166.056014
External:        +0.000000
XC:            -179.772388
Entropy (-ST):   -0.366550
Local:           +2.898147
--------------------------
Free energy:   -159.959026
Extrapolated:  -159.775751

Fermi level: -4.69629

 Band  Eigenvalues  Occupancy
    0    -27.25286    2.00000
    1    -24.31560    2.00000
    2    -23.33348    2.00000
    3    -22.34224    2.00000
    4    -21.91696    2.00000
    5    -20.73163    2.00000
    6    -20.00220    2.00000
    7    -19.70203    2.00000
    8    -19.16491    2.00000
    9    -18.62427    2.00000
   10    -17.75439    2.00000
   11    -17.67588    2.00000
   12    -17.47946    2.00000
   13    -16.30878    2.00000
   14    -16.18280    2.00000
   15    -15.71227    2.00000
   16    -14.99210    2.00000
   17    -14.88578    2.00000
   18    -14.62555    2.00000
   19    -13.80070    2.00000
   20    -12.83173    2.00000
   21    -12.68783    2.00000
   22    -12.08578    2.00000
   23    -11.81062    2.00000
   24    -11.15514    2.00000
   25    -10.96629    2.00000
   26    -10.47088    2.00000
   27    -10.38295    2.00000
   28     -9.99410    2.00000
   29     -9.69840    2.00000
   30     -9.09948    2.00000
   31     -8.64005    2.00000
   32     -8.24856    2.00000
   33     -8.10908    2.00000
   34     -7.96812    2.00000
   35     -7.55729    2.00000
   36     -7.42231    2.00000
   37     -7.38891    2.00000
   38     -6.79333    2.00000
   39     -6.73831    2.00000
   40     -6.52933    2.00000
   41     -6.38597    2.00000
   42     -6.18560    2.00000
   43     -5.84014    1.99998
   44     -5.69501    1.99991
   45     -5.30138    1.99530
   46     -5.12157    1.97195
   47     -4.71720    1.10419
   48     -4.62882    0.67489
   49     -4.49624    0.23829
   50     -4.19173    0.01279
   51     -4.02487    0.00242
   52     -3.77990    0.00021
   53     -3.66866    0.00007
   54     -3.29990    0.00000
   55     -2.86498    0.00000
   56     -2.37291    0.00000
   57     -1.84515    0.00000
   58     -1.12254    0.00000
   59     -0.84145    0.00000
   60     -0.77240    0.00000
   61      0.07107    0.00000
   62      0.66647    0.00000
   63      0.89831    0.00000
   64      1.21754    0.00000
   65      1.37202    0.00000
   66      1.86887    0.00000
   67      2.09824    0.00000
   68      2.66089    0.00000
   69      2.91140    0.00000
   70      4.01681    0.00000
   71      4.37008    0.00000
   72      4.60163    0.00000
   73      4.65479    0.00000
   74      5.37055    0.00000
   75      5.62193    0.00000
   76      5.88114    0.00000
   77      6.44625    0.00000
   78      6.65444    0.00000
   79      6.89880    0.00000
   80      7.39996    0.00000
   81      7.56404    0.00000
   82      7.84493    0.00000
   83      8.00956    0.00000
   84      8.24670    0.00000
   85      8.33362    0.00000
   86      8.55128    0.00000
   87      8.65337    0.00000
   88      8.70126    0.00000
   89      8.80309    0.00000
   90      8.88030    0.00000
   91      9.12937    0.00000
   92      9.20735    0.00000
   93      9.35145    0.00000
   94      9.47882    0.00000
   95      9.52387    0.00000
   96      9.61664    0.00000
   97      9.77896    0.00000


Forces in eV/Ang:
  0 C    -0.31911   -0.15958    0.06298
  1 C    -0.80853   -0.00069   -1.47162
  2 C    -0.17470    0.94755    1.29235
  3 C     9.47239    3.72230    5.88706
  4 C     1.67849   -1.81508   -0.09037
  5 C    -0.35525    2.58420    1.12798
  6 C     3.67355    1.91065    3.09269
  7 C     2.26465    3.27420   -0.18196
  8 C     2.37436    4.77537    8.91221
  9 C     0.06687    0.21674    0.45340
 10 C    -0.71583   -1.15333   -0.09523
 11 C     1.10717    0.65960    0.39893
 12 C    -1.20822   -0.73088    0.63511
 13 C     1.28558    0.28140   -0.30941
 14 C    -0.80433   -0.42675    0.25156
 15 C     0.89098   -3.71069   -1.77514
 16 C     0.21111   -0.92714    0.18297
 17 C    -2.25299   -4.80918   -8.71932
 18 C    -3.86555   -1.85850   -3.07326
 19 C     0.04431   -1.31902    0.01980
 20 C    -9.55893   -2.41943   -5.60963
 21 C    -0.75549    0.26810    0.04959
 22 C    -0.69802   -0.34971   -1.35343
 23 C    -1.45142    0.92958    0.27505

System changes: positions 

Initializing position-dependent things.

Density initialized from wave functions
           .--------------------------------------.  
          /|                                      |  
         / |                                      |  
        /  |                                      |  
       /   |                                      |  
      /    |                                      |  
     /     |                                      |  
    /      |                                      |  
   /       |                                      |  
  /       C|          C   C                       |  
 *         | C C    CC     C                      |  
 |         |      C      C                        |  
 |         .---C--C--C---C--C--C------------------.  
 |        /   C       C   C                      /   
 |       /      C     C                         /    
 |      /          C  C                        /     
 |     /                                      /      
 |    /                                      /       
 |   /                                      /        
 |  /                                      /         
 | /                                      /          
 |/                                      /           
 *--------------------------------------*            

Positions:
   0 C     10.764154    6.145495    5.190084
   1 C      9.347509    4.132384    5.076196
   2 C      9.516848    5.570113    5.246533
   3 C      5.512556    8.783655    5.799956
   4 C      7.516440    9.913615    5.678216
   5 C      6.255258    9.922398    5.895420
   6 C      7.783275    7.634021    5.480473
   7 C      8.253536    6.286771    5.285681
   8 C      6.319236    7.572909    5.673975
   9 C      8.366492    8.907534    5.372804
  10 C      8.032773    1.874670    4.622491
  11 C      7.195385    5.803984    4.506804
  12 C      6.711088    2.242767    5.023801
  13 C      7.782115    3.264868    4.550376
  14 C      5.450745    2.535624    5.388406
  15 C      7.624850    4.548608    4.392494
  16 C      4.283365    4.733867    5.443772
  17 C      6.360317    6.975561    4.485798
  18 C      4.997313    7.099698    4.887709
  19 C      4.278632    5.992489    5.283609
  20 C      4.596943    8.523035    4.947666
  21 C      1.025759    9.952050    5.356124
  22 C      3.431697    9.082180    5.136161
  23 C      2.279485    9.573658    5.328751

Unit cell:
           periodic     x           y           z      points  spacing
  1. axis:    yes   16.000000    0.000000    0.000000    80     0.2000
  2. axis:    yes    0.000000   16.000000    0.000000    80     0.2000
  3. axis:    yes    0.000000    0.000000   10.000000    48     0.2083

Effective grid spacing dv^(1/3) = 0.2027

                     log10-error:    total        iterations:
           time      wfs    density  energy       fermi  poisson
iter:   1  10:33:41          +inf  -161.543292    3      5      
iter:   2  10:33:42         -2.00  -161.515492    3      2      
iter:   3  10:33:42         -2.11  -161.495624    3      2      
iter:   4  10:33:43         -2.29  -161.491974    3      2      
iter:   5  10:33:44         -2.40  -161.489118    3      2      
iter:   6  10:33:44         -2.57  -161.486966    3      2      
iter:   7  10:33:45         -2.76  -161.486783    2      2      
iter:   8  10:33:45         -3.00  -161.486782    2      2      
iter:   9  10:33:46         -3.16  -161.488015    2      1      
iter:  10  10:33:46         -3.29  -161.488499    1      1      
iter:  11  10:33:47         -3.45  -161.487955    2      1      
iter:  12  10:33:48         -3.62  -161.487217    2      1      
iter:  13  10:33:48         -3.70  -161.487590    2      1      
iter:  14  10:33:49         -4.02  -161.486843    2      1      

Converged after 14 iterations.

Dipole moment: (-1.912213, 0.605129, -0.123387) |e|*Ang

Energy contributions relative to reference atoms: (reference = -24663.074771)

Kinetic:       +177.632660
Potential:     -162.934053
External:        +0.000000
XC:            -178.899824
Entropy (-ST):   -0.356704
Local:           +2.892727
--------------------------
Free energy:   -161.665195
Extrapolated:  -161.486843

Fermi level: -4.72127

 Band  Eigenvalues  Occupancy
    0    -26.78017    2.00000
    1    -24.03729    2.00000
    2    -23.22151    2.00000
    3    -22.15121    2.00000
    4    -21.92328    2.00000
    5    -20.66193    2.00000
    6    -19.95345    2.00000
    7    -19.66259    2.00000
    8    -19.16630    2.00000
    9    -18.68027    2.00000
   10    -17.69885    2.00000
   11    -17.67499    2.00000
   12    -17.46117    2.00000
   13    -16.23993    2.00000
   14    -16.15854    2.00000
   15    -15.70908    2.00000
   16    -14.95718    2.00000
   17    -14.84836    2.00000
   18    -14.47418    2.00000
   19    -13.72251    2.00000
   20    -12.78675    2.00000
   21    -12.56111    2.00000
   22    -12.03242    2.00000
   23    -11.78449    2.00000
   24    -11.16353    2.00000
   25    -10.94524    2.00000
   26    -10.49586    2.00000
   27    -10.43575    2.00000
   28     -9.97000    2.00000
   29     -9.76590    2.00000
   30     -9.08664    2.00000
   31     -8.61271    2.00000
   32     -8.25019    2.00000
   33     -8.12728    2.00000
   34     -7.98683    2.00000
   35     -7.54724    2.00000
   36     -7.47835    2.00000
   37     -7.36834    2.00000
   38     -6.81419    2.00000
   39     -6.78589    2.00000
   40     -6.57137    2.00000
   41     -6.34276    2.00000
   42     -6.19657    2.00000
   43     -5.86043    1.99998
   44     -5.74595    1.99993
   45     -5.34382    1.99605
   46     -5.11792    1.96283
   47     -4.75356    1.16007
   48     -4.65373    0.67460
   49     -4.49925    0.19590
   50     -4.17569    0.00851
   51     -4.02941    0.00198
   52     -3.75185    0.00012
   53     -3.61767    0.00003
   54     -3.20443    0.00000
   55     -2.94747    0.00000
   56     -2.44092    0.00000
   57     -1.80747    0.00000
   58     -1.10546    0.00000
   59     -0.79691    0.00000
   60     -0.77196    0.00000
   61      0.05910    0.00000
   62      0.69453    0.00000
   63      0.90716    0.00000
   64      1.23762    0.00000
   65      1.35510    0.00000
   66      1.97522    0.00000
   67      2.16383    0.00000
   68      2.70845    0.00000
   69      3.00262    0.00000
   70      4.09166    0.00000
   71      4.47310    0.00000
   72      4.55152    0.00000
   73      4.65026    0.00000
   74      5.35304    0.00000
   75      5.68124    0.00000
   76      5.97302    0.00000
   77      6.42620    0.00000
   78      6.68785    0.00000
   79      7.06609    0.00000
   80      7.43371    0.00000
   81      7.62767    0.00000
   82      7.84807    0.00000
   83      8.08067    0.00000
   84      8.30979    0.00000
   85      8.34958    0.00000
   86      8.54482    0.00000
   87      8.66614    0.00000
   88      8.78021    0.00000
   89      8.84434    0.00000
   90      8.86801    0.00000
   91      9.15452    0.00000
   92      9.22134    0.00000
   93      9.34688    0.00000
   94      9.48532    0.00000
   95      9.51392    0.00000
   96      9.60482    0.00000
   97      9.78821    0.00000


Forces in eV/Ang:
  0 C    -0.25899   -0.11918    0.06892
  1 C    -0.91041    0.12471   -1.52444
  2 C    -0.07319    0.64247    1.21128
  3 C     7.45586    2.85838    4.02827
  4 C     1.21860   -1.57680   -0.02152
  5 C    -0.21247    2.70957    0.97029
  6 C     3.46494    1.56641    3.06264
  7 C     1.86580    2.84705   -0.38337
  8 C     2.61354    4.32556    6.15741
  9 C     0.49011    0.32957    0.54936
 10 C    -0.89935   -1.03376   -0.01830
 11 C     1.00466    0.65875    0.34149
 12 C    -0.99835   -0.69374    0.53922
 13 C     1.30537   -0.15245   -0.17050
 14 C    -0.74393   -0.38155    0.24392
 15 C     0.89586   -2.48838   -1.54536
 16 C     0.19520   -1.17616    0.24093
 17 C    -2.12772   -4.49878   -6.54231
 18 C    -3.81298   -1.74908   -2.56707
 19 C    -0.08640   -1.20028   -0.06789
 20 C    -7.09833   -2.17167   -3.78843
 21 C    -0.93533    0.32490    0.07077
 22 C    -1.16870   -0.11664   -1.05804
 23 C    -1.10966    0.81073    0.20223

System changes: positions 

Initializing position-dependent things.

Density initialized from wave functions
           .--------------------------------------.  
          /|                                      |  
         / |                                      |  
        /  |                                      |  
       /   |                                      |  
      /    |                                      |  
     /     |                                      |  
    /      |                                      |  
   /       |                                      |  
  /       C|          C   C                       |  
 *         | C C    CC     C                      |  
 |         |     C       C                        |  
 |         .---C--C--C---C--C--C------------------.  
 |        /   C       C   C                      /   
 |       /      C     C                         /    
 |      /          C  C                        /     
 |     /                                      /      
 |    /                                      /       
 |   /                                      /        
 |  /                                      /         
 | /                                      /          
 |/                                      /           
 *--------------------------------------*            

Positions:
   0 C     10.762340    6.144822    5.190796
   1 C      9.338163    4.135697    5.061033
   2 C      9.516879    5.573113    5.257768
   3 C      5.541447    8.796566    5.787613
   4 C      7.523017    9.900915    5.679020
   5 C      6.258612    9.951344    5.903261
   6 C      7.809401    7.645056    5.508679
   7 C      8.266432    6.309998    5.278874
   8 C      6.348898    7.588651    5.675746
   9 C      8.375213    8.911634    5.378064
  10 C      8.022436    1.865215    4.623012
  11 C      7.208612    5.807329    4.511968
  12 C      6.703433    2.235834    5.028009
  13 C      7.794679    3.256661    4.549946
  14 C      5.443790    2.532187    5.390767
  15 C      7.632268    4.541278    4.379090
  16 C      4.285055    4.721349    5.446523
  17 C      6.328946    6.956733    4.473991
  18 C      4.972182    7.087377    4.869886
  19 C      4.276655    5.980693    5.282152
  20 C      4.576361    8.508627    4.961316
  21 C      1.015273    9.955621    5.356898
  22 C      3.414685    9.082722    5.128576
  23 C      2.271722    9.580618    5.330175

Unit cell:
           periodic     x           y           z      points  spacing
  1. axis:    yes   16.000000    0.000000    0.000000    80     0.2000
  2. axis:    yes    0.000000   16.000000    0.000000    80     0.2000
  3. axis:    yes    0.000000    0.000000   10.000000    48     0.2083

Effective grid spacing dv^(1/3) = 0.2027

                     log10-error:    total        iterations:
           time      wfs    density  energy       fermi  poisson
iter:   1  10:33:50          +inf  -163.007196    3      5      
iter:   2  10:33:51         -2.01  -162.976354    2      2      
iter:   3  10:33:52         -2.14  -162.958956    3      2      
iter:   4  10:33:52         -2.29  -162.955011    2      2      
iter:   5  10:33:53         -2.38  -162.952566    3      2      
iter:   6  10:33:53         -2.53  -162.949494    3      2      
iter:   7  10:33:54         -2.78  -162.949270    2      2      
iter:   8  10:33:55         -2.89  -162.949149    2      2      
iter:   9  10:33:55         -3.07  -162.949354    2      2      
iter:  10  10:33:56         -3.26  -162.950278    2      1      
iter:  11  10:33:56         -3.37  -162.950379    2      1      
iter:  12  10:33:57         -3.49  -162.951124    2      1      
iter:  13  10:33:57         -3.82  -162.949692    2      1      
iter:  14  10:33:58         -3.96  -162.948917    2      1      
iter:  15  10:33:58         -4.01  -162.949019    2      1      

Converged after 15 iterations.

Dipole moment: (-2.016207, 0.563778, -0.140497) |e|*Ang

Energy contributions relative to reference atoms: (reference = -24663.074771)

Kinetic:       +172.347306
Potential:     -159.969117
External:        +0.000000
XC:            -178.040238
Entropy (-ST):   -0.351593
Local:           +2.888826
--------------------------
Free energy:   -163.124816
Extrapolated:  -162.949019

Fermi level: -4.74116

 Band  Eigenvalues  Occupancy
    0    -26.29830    2.00000
    1    -23.82770    2.00000
    2    -23.11868    2.00000
    3    -21.98530    2.00000
    4    -21.89921    2.00000
    5    -20.60682    2.00000
    6    -19.91888    2.00000
    7    -19.64255    2.00000
    8    -19.14070    2.00000
    9    -18.71036    2.00000
   10    -17.69982    2.00000
   11    -17.60746    2.00000
   12    -17.41307    2.00000
   13    -16.24389    2.00000
   14    -16.10240    2.00000
   15    -15.69096    2.00000
   16    -14.96045    2.00000
   17    -14.76544    2.00000
   18    -14.30367    2.00000
   19    -13.64445    2.00000
   20    -12.70462    2.00000
   21    -12.41152    2.00000
   22    -11.96886    2.00000
   23    -11.73092    2.00000
   24    -11.16384    2.00000
   25    -10.91845    2.00000
   26    -10.53723    2.00000
   27    -10.49212    2.00000
   28     -9.97485    2.00000
   29     -9.75304    2.00000
   30     -9.07353    2.00000
   31     -8.59013    2.00000
   32     -8.28152    2.00000
   33     -8.13249    2.00000
   34     -7.99175    2.00000
   35     -7.55407    2.00000
   36     -7.51629    2.00000
   37     -7.35483    2.00000
   38     -6.83446    2.00000
   39     -6.81905    2.00000
   40     -6.60087    2.00000
   41     -6.35843    2.00000
   42     -6.18714    2.00000
   43     -5.85819    1.99997
   44     -5.77637    1.99994
   45     -5.37497    1.99647
   46     -5.10033    1.94637
   47     -4.78437    1.21277
   48     -4.67347    0.67394
   49     -4.49799    0.16158
   50     -4.18153    0.00740
   51     -4.01971    0.00147
   52     -3.72414    0.00008
   53     -3.54828    0.00001
   54     -3.12466    0.00000
   55     -3.03055    0.00000
   56     -2.46932    0.00000
   57     -1.77130    0.00000
   58     -1.06431    0.00000
   59     -0.76181    0.00000
   60     -0.70021    0.00000
   61      0.04409    0.00000
   62      0.72788    0.00000
   63      0.91579    0.00000
   64      1.23369    0.00000
   65      1.34613    0.00000
   66      2.03220    0.00000
   67      2.24291    0.00000
   68      2.74478    0.00000
   69      3.03037    0.00000
   70      4.15001    0.00000
   71      4.47508    0.00000
   72      4.56211    0.00000
   73      4.67829    0.00000
   74      5.42055    0.00000
   75      5.74645    0.00000
   76      6.04252    0.00000
   77      6.41296    0.00000
   78      6.81586    0.00000
   79      7.19418    0.00000
   80      7.46091    0.00000
   81      7.67950    0.00000
   82      7.84760    0.00000
   83      8.13799    0.00000
   84      8.35193    0.00000
   85      8.38663    0.00000
   86      8.53970    0.00000
   87      8.66085    0.00000
   88      8.75864    0.00000
   89      8.91781    0.00000
   90      8.95223    0.00000
   91      9.18555    0.00000
   92      9.21219    0.00000
   93      9.35411    0.00000
   94      9.48512    0.00000
   95      9.51204    0.00000
   96      9.63051    0.00000
   97      9.79825    0.00000


Forces in eV/Ang:
  0 C    -0.19218   -0.08501    0.07474
  1 C    -1.06758    0.23790   -1.56284
  2 C    -0.03299    0.38436    1.10528
  3 C     5.92377    2.26508    2.71622
  4 C     0.87204   -1.27318    0.04096
  5 C    -0.19307    2.67228    0.81988
  6 C     3.15856    1.30854    2.92557
  7 C     1.67042    2.40549   -0.46283
  8 C     2.74382    3.76954    3.76215
  9 C     0.90632    0.45623    0.65313
 10 C    -0.94119   -1.04163    0.00748
 11 C     0.80042    0.65250    0.26356
 12 C    -0.97088   -0.62726    0.51692
 13 C     1.30192    0.03474   -0.14342
 14 C    -0.66287   -0.35263    0.23387
 15 C     1.03558   -2.04847   -1.27290
 16 C     0.14911   -1.18129    0.26316
 17 C    -1.95691   -3.92375   -4.46333
 18 C    -3.61926   -1.55146   -2.26026
 19 C    -0.30866   -1.43042   -0.07497
 20 C    -5.52233   -1.76901   -2.44677
 21 C    -0.86671    0.29908    0.08260
 22 C    -0.61806   -0.36276   -0.91949
 23 C    -1.49555    0.97777    0.21007

System changes: positions 

Initializing position-dependent things.

Density initialized from wave functions
           .--------------------------------------.  
          /|                                      |  
         / |                                      |  
        /  |                                      |  
       /   |                                      |  
      /    |                                      |  
     /     |                                      |  
    /      |                                      |  
   /       |                                      |  
  /       C|          C   C                       |  
 *         |C  C    CC     C                      |  
 |         |     C       C                        |  
 |         .---C-C---C---C--C--C------------------.  
 |        /   C       C   C                      /   
 |       /      C     C                         /    
 |      /          C  C                        /     
 |     /                                      /      
 |    /                                      /       
 |   /                                      /        
 |  /                                      /         
 | /                                      /          
 |/                                      /           
 *--------------------------------------*            

Positions:
   0 C     10.760872    6.144282    5.191589
   1 C      9.326920    4.139564    5.044900
   2 C      9.517152    5.574710    5.268621
   3 C      5.568920    8.808762    5.776284
   4 C      7.528017    9.889879    5.680209
   5 C      6.260981    9.980357    5.910412
   6 C      7.835672    7.655291    5.537054
   7 C      8.279556    6.331272    5.271968
   8 C      6.380182    7.606347    5.670542
   9 C      8.387179    8.917145    5.384696
  10 C      8.011705    1.855270    4.623520
  11 C      7.219533    5.811537    4.516153
  12 C      6.694943    2.229332    5.032572
  13 C      7.808045    3.251836    4.549372
  14 C      5.437212    2.528778    5.393181
  15 C      7.641893    4.532289    4.367293
  16 C      4.286375    4.708419    5.449493
  17 C      6.300482    6.936964    4.468169
  18 C      4.944828    7.075432    4.851569
  19 C      4.272467    5.965744    5.280911
  20 C      4.555916    8.495916    4.974601
  21 C      1.005888    9.958817    5.357795
  22 C      3.404831    9.079846    5.120995
  23 C      2.258209    9.590111    5.331946

Unit cell:
           periodic     x           y           z      points  spacing
  1. axis:    yes   16.000000    0.000000    0.000000    80     0.2000
  2. axis:    yes    0.000000   16.000000    0.000000    80     0.2000
  3. axis:    yes    0.000000    0.000000   10.000000    48     0.2083

Effective grid spacing dv^(1/3) = 0.2027

                     log10-error:    total        iterations:
           time      wfs    density  energy       fermi  poisson
iter:   1  10:34:00          +inf  -164.287875    3      5      
iter:   2  10:34:01         -1.97  -164.246897    3      2      
iter:   3  10:34:01         -2.17  -164.236567    2      2      
iter:   4  10:34:02         -2.27  -164.229558    2      2      
iter:   5  10:34:03         -2.40  -164.227765    2      2      
iter:   6  10:34:03         -2.56  -164.224878    3      2      
iter:   7  10:34:04         -2.79  -164.224351    2      2      
iter:   8  10:34:04         -2.95  -164.224770    2      1      
iter:   9  10:34:05         -3.05  -164.224469    2      2      
iter:  10  10:34:05         -3.29  -164.224993    2      1      
iter:  11  10:34:06         -3.41  -164.225319    2      1      
iter:  12  10:34:06         -3.55  -164.225243    2      1      
iter:  13  10:34:07         -3.75  -164.224706    2      1      
iter:  14  10:34:08         -3.85  -164.224461    2      1      
iter:  15  10:34:08         -4.12  -164.224447    2      1      

Converged after 15 iterations.

Dipole moment: (-2.091395, 0.494570, -0.159375) |e|*Ang

Energy contributions relative to reference atoms: (reference = -24663.074771)

Kinetic:       +167.121395
Potential:     -156.864970
External:        +0.000000
XC:            -177.201071
Entropy (-ST):   -0.346716
Local:           +2.893558
--------------------------
Free energy:   -164.397805
Extrapolated:  -164.224447

Fermi level: -4.77054

 Band  Eigenvalues  Occupancy
    0    -25.87653    2.00000
    1    -23.68712    2.00000
    2    -23.01236    2.00000
    3    -21.95019    2.00000
    4    -21.79185    2.00000
    5    -20.56063    2.00000
    6    -19.90903    2.00000
    7    -19.62770    2.00000
    8    -19.11282    2.00000
    9    -18.76008    2.00000
   10    -17.72384    2.00000
   11    -17.58999    2.00000
   12    -17.36172    2.00000
   13    -16.27559    2.00000
   14    -16.03224    2.00000
   15    -15.67763    2.00000
   16    -14.97228    2.00000
   17    -14.69158    2.00000
   18    -14.16179    2.00000
   19    -13.59250    2.00000
   20    -12.62935    2.00000
   21    -12.27582    2.00000
   22    -11.94275    2.00000
   23    -11.66234    2.00000
   24    -11.15806    2.00000
   25    -10.90886    2.00000
   26    -10.59501    2.00000
   27    -10.55831    2.00000
   28    -10.01689    2.00000
   29     -9.70651    2.00000
   30     -9.05950    2.00000
   31     -8.57397    2.00000
   32     -8.27895    2.00000
   33     -8.15241    2.00000
   34     -7.98273    2.00000
   35     -7.60019    2.00000
   36     -7.54255    2.00000
   37     -7.33929    2.00000
   38     -6.88551    2.00000
   39     -6.84719    2.00000
   40     -6.63836    2.00000
   41     -6.31402    2.00000
   42     -6.19516    2.00000
   43     -5.87330    1.99997
   44     -5.82436    1.99995
   45     -5.42415    1.99710
   46     -5.10222    1.93001
   47     -4.82359    1.25919
   48     -4.70225    0.67122
   49     -4.50823    0.13534
   50     -4.19147    0.00609
   51     -4.01793    0.00108
   52     -3.71490    0.00005
   53     -3.48457    0.00001
   54     -3.28869    0.00000
   55     -2.86000    0.00000
   56     -2.46432    0.00000
   57     -1.74273    0.00000
   58     -1.00241    0.00000
   59     -0.72536    0.00000
   60     -0.61469    0.00000
   61      0.03540    0.00000
   62      0.76045    0.00000
   63      0.91419    0.00000
   64      1.21165    0.00000
   65      1.34914    0.00000
   66      2.03919    0.00000
   67      2.28002    0.00000
   68      2.73192    0.00000
   69      3.00703    0.00000
   70      4.16982    0.00000
   71      4.44610    0.00000
   72      4.62148    0.00000
   73      4.70879    0.00000
   74      5.51134    0.00000
   75      5.72806    0.00000
   76      5.98174    0.00000
   77      6.50381    0.00000
   78      6.92959    0.00000
   79      7.25373    0.00000
   80      7.46074    0.00000
   81      7.69020    0.00000
   82      7.83922    0.00000
   83      8.17965    0.00000
   84      8.33842    0.00000
   85      8.42564    0.00000
   86      8.58061    0.00000
   87      8.64416    0.00000
   88      8.75750    0.00000
   89      8.95498    0.00000
   90      9.02792    0.00000
   91      9.15805    0.00000
   92      9.22156    0.00000
   93      9.35321    0.00000
   94      9.47738    0.00000
   95      9.53273    0.00000
   96      9.67366    0.00000
   97      9.80368    0.00000


Forces in eV/Ang:
  0 C    -0.13246   -0.05969    0.08134
  1 C    -1.23207    0.31574   -1.59520
  2 C    -0.01273    0.15293    0.96429
  3 C     4.58818    1.72559    1.66999
  4 C     0.58713   -0.97101    0.09874
  5 C    -0.16840    2.56173    0.68254
  6 C     2.78104    1.07359    2.63065
  7 C     1.42406    1.96024   -0.57644
  8 C     2.70280    3.33096    2.03915
  9 C     1.20371    0.60034    0.75149
 10 C    -1.06556   -0.94907    0.02507
 11 C     0.73701    0.40014    0.16875
 12 C    -0.82927   -0.56289    0.45686
 13 C     1.38928   -0.23482   -0.03760
 14 C    -0.63290   -0.30324    0.23413
 15 C     1.03437   -1.10018   -1.04168
 16 C     0.12536   -1.36533    0.29303
 17 C    -1.68171   -3.37323   -2.74936
 18 C    -3.43342   -1.44252   -2.02598
 19 C    -0.45696   -1.31312   -0.18634
 20 C    -3.70473   -1.64904   -1.45974
 21 C    -1.18111    0.39244    0.08246
 22 C    -1.48288    0.06164   -0.58714
 23 C    -0.54661    0.60564    0.04101

System changes: positions 

Initializing position-dependent things.

Density initialized from wave functions
           .--------------------------------------.  
          /|                                      |  
         / |                                      |  
        /  |                                      |  
       /   |                                      |  
      /    |                                      |  
     /     |                                      |  
    /      |                                      |  
   /       |                                      |  
  /       C|           C  C                       |  
 *         |C  C    CC     C                      |  
 |         |     C       C                        |  
 |         .---C-C---C---C--C--C------------------.  
 |        /   C       C   C                      /   
 |       /      C     C                         /    
 |      /          C  C                        /     
 |     /                                      /      
 |    /                                      /       
 |   /                                      /        
 |  /                                      /         
 | /                                      /          
 |/                                      /           
 *--------------------------------------*            

Positions:
   0 C     10.759620    6.143758    5.192512
   1 C      9.313026    4.143825    5.027041
   2 C      9.517328    5.575288    5.279162
   3 C      5.595912    8.820695    5.765550
   4 C      7.532559    9.880117    5.681770
   5 C      6.262367   10.010022    5.917369
   6 C      7.862312    7.665478    5.565099
   7 C      8.293297    6.351426    5.264374
   8 C      6.412604    7.627803    5.664358
   9 C      8.401802    8.924538    5.392969
  10 C      7.999227    1.845180    4.623945
  11 C      7.230154    5.813617    4.519150
  12 C      6.686398    2.222935    5.037311
  13 C      7.823764    3.245884    4.549425
  14 C      5.430134    2.525462    5.395862
  15 C      7.652713    4.526691    4.356181
  16 C      4.287634    4.692746    5.452885
  17 C      6.274656    6.915618    4.465167
  18 C      4.913863    7.062196    4.831271
  19 C      4.266703    5.950613    5.278592
  20 C      4.540101    8.481701    4.987077
  21 C      0.992705    9.963172    5.358712
  22 C      3.385949    9.080840    5.115324
  23 C      2.253184    9.596597    5.332175

Unit cell:
           periodic     x           y           z      points  spacing
  1. axis:    yes   16.000000    0.000000    0.000000    80     0.2000
  2. axis:    yes    0.000000   16.000000    0.000000    80     0.2000
  3. axis:    yes    0.000000    0.000000   10.000000    48     0.2083

Effective grid spacing dv^(1/3) = 0.2027

                     log10-error:    total        iterations:
           time      wfs    density  energy       fermi  poisson
iter:   1  10:34:10          +inf  -165.461715    3      5      
iter:   2  10:34:10         -1.94  -165.402727    3      2      
iter:   3  10:34:11         -2.17  -165.391789    3      2      
iter:   4  10:34:12         -2.28  -165.383724    2      2      
iter:   5  10:34:12         -2.41  -165.382681    2      2      
iter:   6  10:34:13         -2.56  -165.380244    2      2      
iter:   7  10:34:13         -2.74  -165.379308    2      2      
iter:   8  10:34:14         -3.00  -165.380019    2      1      
iter:   9  10:34:14         -3.11  -165.380743    2      1      
iter:  10  10:34:15         -3.31  -165.379881    2      1      
iter:  11  10:34:15         -3.44  -165.379799    2      1      
iter:  12  10:34:16         -3.58  -165.380025    2      1      
iter:  13  10:34:17         -3.78  -165.379344    2      1      
iter:  14  10:34:17         -3.98  -165.379233    2      1      
iter:  15  10:34:18         -4.15  -165.379093    2      1      

Converged after 15 iterations.

Dipole moment: (-2.242048, 0.454827, -0.174480) |e|*Ang

Energy contributions relative to reference atoms: (reference = -24663.074771)

Kinetic:       +161.171334
Potential:     -153.091749
External:        +0.000000
XC:            -176.173431
Entropy (-ST):   -0.347228
Local:           +2.888367
--------------------------
Free energy:   -165.552707
Extrapolated:  -165.379093

Fermi level: -4.77869

 Band  Eigenvalues  Occupancy
    0    -25.44121    2.00000
    1    -23.56884    2.00000
    2    -22.87891    2.00000
    3    -21.93228    2.00000
    4    -21.62943    2.00000
    5    -20.53662    2.00000
    6    -19.89631    2.00000
    7    -19.62479    2.00000
    8    -19.04432    2.00000
    9    -18.77523    2.00000
   10    -17.72000    2.00000
   11    -17.56224    2.00000
   12    -17.26056    2.00000
   13    -16.30992    2.00000
   14    -15.98155    2.00000
   15    -15.64935    2.00000
   16    -14.95751    2.00000
   17    -14.58369    2.00000
   18    -13.99490    2.00000
   19    -13.52415    2.00000
   20    -12.52346    2.00000
   21    -12.12085    2.00000
   22    -11.90892    2.00000
   23    -11.55454    2.00000
   24    -11.10142    2.00000
   25    -10.89313    2.00000
   26    -10.62911    2.00000
   27    -10.58718    2.00000
   28    -10.05472    2.00000
   29     -9.63003    2.00000
   30     -9.04683    2.00000
   31     -8.56724    2.00000
   32     -8.32823    2.00000
   33     -8.17469    2.00000
   34     -7.94147    2.00000
   35     -7.64741    2.00000
   36     -7.55419    2.00000
   37     -7.32337    2.00000
   38     -6.90235    2.00000
   39     -6.85619    2.00000
   40     -6.65128    2.00000
   41     -6.38690    2.00000
   42     -6.17759    2.00000
   43     -5.86137    1.99996
   44     -5.83966    1.99995
   45     -5.45087    1.99759
   46     -5.08618    1.91169
   47     -4.83904    1.29295
   48     -4.70934    0.66650
   49     -4.50633    0.12320
   50     -4.21769    0.00730
   51     -3.99675    0.00080
   52     -3.70813    0.00004
   53     -3.52654    0.00001
   54     -3.32915    0.00000
   55     -2.68306    0.00000
   56     -2.43094    0.00000
   57     -1.70615    0.00000
   58     -0.93332    0.00000
   59     -0.67474    0.00000
   60     -0.50514    0.00000
   61      0.03526    0.00000
   62      0.82020    0.00000
   63      0.92252    0.00000
   64      1.17402    0.00000
   65      1.36130    0.00000
   66      2.01967    0.00000
   67      2.29955    0.00000
   68      2.72828    0.00000
   69      2.96183    0.00000
   70      4.15922    0.00000
   71      4.44470    0.00000
   72      4.67806    0.00000
   73      4.78883    0.00000
   74      5.59995    0.00000
   75      5.70727    0.00000
   76      5.96629    0.00000
   77      6.66225    0.00000
   78      7.02250    0.00000
   79      7.31275    0.00000
   80      7.47465    0.00000
   81      7.70418    0.00000
   82      7.85613    0.00000
   83      8.18139    0.00000
   84      8.32804    0.00000
   85      8.45122    0.00000
   86      8.61154    0.00000
   87      8.65219    0.00000
   88      8.78972    0.00000
   89      8.96007    0.00000
   90      9.10186    0.00000
   91      9.14347    0.00000
   92      9.24857    0.00000
   93      9.36269    0.00000
   94      9.47321    0.00000
   95      9.56971    0.00000
   96      9.72218    0.00000
   97      9.81389    0.00000


Forces in eV/Ang:
  0 C    -0.09302   -0.05449    0.09187
  1 C    -1.43944    0.40459   -1.63997
  2 C     0.02741   -0.05574    0.85300
  3 C     3.34668    1.27024    0.81337
  4 C     0.20774   -0.63604    0.17830
  5 C    -0.00130    2.43140    0.51272
  6 C     2.38451    0.91437    2.25781
  7 C     1.21603    1.54444   -0.63203
  8 C     2.49757    2.68431    0.53842
  9 C     1.47333    0.69263    0.82055
 10 C    -1.12716   -0.87430    0.03547
 11 C     0.59759    0.36652    0.14619
 12 C    -0.76416   -0.49804    0.43224
 13 C     1.52288   -0.20776    0.03170
 14 C    -0.61149   -0.25256    0.22406
 15 C     1.12444   -0.67609   -0.77606
 16 C     0.10102   -1.35600    0.26930
 17 C    -1.28557   -2.70964   -1.15482
 18 C    -3.02827   -1.19425   -1.84236
 19 C    -0.62361   -1.42199   -0.23909
 20 C    -2.84162   -1.17457   -0.60187
 21 C    -0.80731    0.28710    0.07919
 22 C    -0.30498   -0.49322   -0.57206
 23 C    -1.52570    1.00635    0.12367

System changes: positions 

Initializing position-dependent things.

Density initialized from wave functions
           .--------------------------------------.  
          /|                                      |  
         / |                                      |  
        /  |                                      |  
       /   |                                      |  
      /    |                                      |  
     /     |                                      |  
    /      |                                      |  
   /       |                                      |  
[...]
   10    -18.00101    2.00000
   11    -17.49141    2.00000
   12    -16.46939    2.00000
   13    -16.12695    2.00000
   14    -15.77825    2.00000
   15    -15.30353    2.00000
   16    -14.30177    2.00000
   17    -14.22893    2.00000
   18    -13.64644    2.00000
   19    -13.21378    2.00000
   20    -12.60439    2.00000
   21    -12.20552    2.00000
   22    -11.48764    2.00000
   23    -10.99774    2.00000
   24    -10.73866    2.00000
   25    -10.73697    2.00000
   26    -10.41484    2.00000
   27    -10.19455    2.00000
   28     -9.87840    2.00000
   29     -9.85145    2.00000
   30     -9.23128    2.00000
   31     -8.77657    2.00000
   32     -8.67442    2.00000
   33     -8.55778    2.00000
   34     -8.26172    2.00000
   35     -7.88899    2.00000
   36     -7.85356    2.00000
   37     -7.52335    2.00000
   38     -7.07217    2.00000
   39     -6.93571    2.00000
   40     -6.58182    2.00000
   41     -6.19096    2.00000
   42     -6.16584    2.00000
   43     -5.79582    1.99994
   44     -5.71112    1.99987
   45     -5.49470    1.99885
   46     -4.91064    1.66994
   47     -4.85984    1.50545
   48     -4.71281    0.82332
   49     -4.08497    0.00262
   50     -3.14697    0.00000
   51     -2.94288    0.00000
   52     -2.72714    0.00000
   53     -2.42073    0.00000
   54     -2.22217    0.00000
   55     -1.71011    0.00000
   56     -1.31222    0.00000
   57     -0.65940    0.00000
   58     -0.05320    0.00000
   59      0.04162    0.00000
   60      1.32527    0.00000
   61      1.42491    0.00000
   62      1.59620    0.00000
   63      1.77569    0.00000
   64      3.15764    0.00000
   65      3.24050    0.00000
   66      3.51884    0.00000
   67      3.85949    0.00000
   68      4.31187    0.00000
   69      4.34735    0.00000
   70      4.57788    0.00000
   71      4.82616    0.00000
   72      5.19619    0.00000
   73      5.71532    0.00000
   74      6.55368    0.00000
   75      6.73436    0.00000
   76      7.00544    0.00000
   77      7.41343    0.00000
   78      7.93030    0.00000
   79      8.02163    0.00000
   80      8.18641    0.00000
   81      8.46575    0.00000
   82      8.59207    0.00000
   83      8.65273    0.00000
   84      8.84616    0.00000
   85      8.87889    0.00000
   86      9.30469    0.00000
   87      9.35165    0.00000
   88      9.42470    0.00000
   89      9.44431    0.00000
   90      9.65215    0.00000
   91      9.75989    0.00000
   92     10.03988    0.00000
   93     10.09117    0.00000
   94     10.10199    0.00000
   95     10.22836    0.00000
   96     10.37049    0.00000
   97     10.40770    0.00000


Forces in eV/Ang:
  0 C    -0.02655    0.00539    0.01434
  1 C     0.00793    0.04838    0.01279
  2 C     0.01795   -0.08161    0.01363
  3 C     0.05241   -0.00418   -0.01055
  4 C    -0.05215   -0.03818    0.06660
  5 C     0.04481   -0.00633   -0.05799
  6 C    -0.02675    0.01239    0.02413
  7 C    -0.07936   -0.01101   -0.09343
  8 C     0.03574    0.01766   -0.07102
  9 C     0.01582    0.06491    0.01396
 10 C     0.01756    0.01378   -0.03272
 11 C    -0.08093    0.00158    0.02698
 12 C     0.01545   -0.02160   -0.04506
 13 C    -0.04798    0.04985   -0.03251
 14 C    -0.01597    0.04270   -0.00544
 15 C     0.05245   -0.03826    0.06777
 16 C    -0.04209    0.05871    0.02141
 17 C    -0.05579    0.02328    0.04232
 18 C     0.00002    0.00540    0.00522
 19 C     0.03166    0.00955    0.05776
 20 C     0.03520   -0.05707    0.02743
 21 C     0.07698   -0.03449    0.02799
 22 C    -0.00317    0.00633   -0.04192
 23 C    -0.09434   -0.01774   -0.02939

System changes: positions 

Initializing position-dependent things.

Density initialized from wave functions
           .--------------------------------------.  
          /|                                      |  
         / |                                      |  
        /  |                                      |  
       /   |                                      |  
      /    |                                      |  
     /     |                                      |  
    /      |                                      |  
   /       |                                      |  
  /      C |           C  C C                     |  
 *         |C  C     C    C                       |  
 |         |     C     C   C                      |  
 |         .-----C---C-C-----C--------------------.  
 |        /    C       C     C                   /   
 |       /    C        C  C                     /    
 |      /     C  C  C                          /     
 |     /                                      /      
 |    /                                      /       
 |   /                                      /        
 |  /                                      /         
 | /                                      /          
 |/                                      /           
 *--------------------------------------*            

Positions:
   0 C     10.184427    4.878844    5.036614
   1 C      9.245678    3.897940    4.864291
   2 C     10.094895    6.155588    5.194351
   3 C      5.839488    8.939889    5.462630
   4 C      7.610690   10.324167    5.778480
   5 C      6.289681   10.243044    5.789295
   6 C      8.307142    8.159975    5.412283
   7 C      8.856970    6.813324    5.215942
   8 C      6.890046    7.997022    5.309920
   9 C      8.643235    9.511153    5.721527
  10 C      7.166832    2.046140    4.692830
  11 C      7.657953    5.877396    4.997336
  12 C      5.886256    2.334700    4.688388
  13 C      8.054615    3.119081    4.768890
  14 C      4.734818    2.958471    4.663821
  15 C      7.914312    4.536256    4.840795
  16 C      4.388217    4.239509    4.732281
  17 C      6.463351    6.674624    5.064790
  18 C      5.024079    6.675064    5.036930
  19 C      4.280198    5.517658    4.831706
  20 C      4.599003    8.113789    5.271702
  21 C      0.944062    9.658922    5.422144
  22 C      3.345884    8.595713    5.327412
  23 C      2.152766    9.119332    5.380273

Unit cell:
           periodic     x           y           z      points  spacing
  1. axis:    yes   16.000000    0.000000    0.000000    80     0.2000
  2. axis:    yes    0.000000   16.000000    0.000000    80     0.2000
  3. axis:    yes    0.000000    0.000000   10.000000    48     0.2083

Effective grid spacing dv^(1/3) = 0.2027

                     log10-error:    total        iterations:
           time      wfs    density  energy       fermi  poisson
iter:   1  10:51:58          +inf  -181.877455    2      5      
iter:   2  10:51:58         -2.39  -181.875770    3      1      
iter:   3  10:51:59         -2.63  -181.874680    2      1      
iter:   4  10:52:00         -2.71  -181.873684    3      2      
iter:   5  10:52:00         -2.70  -181.916827    3      2      
iter:   6  10:52:01         -2.14  -181.878993    3      2      
iter:   7  10:52:01         -2.43  -181.873846    2      1      
iter:   8  10:52:02         -2.70  -181.873315    3      1      
iter:   9  10:52:02         -3.36  -181.873166    2      1      
iter:  10  10:52:03         -3.55  -181.873236    2      1      
iter:  11  10:52:03         -3.56  -181.873281    2      1      
iter:  12  10:52:04         -3.95  -181.873295    1      1      
iter:  13  10:52:04         -4.11  -181.873364    2      1      

Converged after 13 iterations.

Dipole moment: (-2.374118, -0.387139, -0.066203) |e|*Ang

Energy contributions relative to reference atoms: (reference = -24663.074771)

Kinetic:       +108.177961
Potential:     -116.834427
External:        +0.000000
XC:            -176.057635
Entropy (-ST):   -0.344333
Local:           +3.012904
--------------------------
Free energy:   -182.045531
Extrapolated:  -181.873364

Fermi level: -4.74786

 Band  Eigenvalues  Occupancy
    0    -23.47033    2.00000
    1    -22.80981    2.00000
    2    -21.24834    2.00000
    3    -20.97708    2.00000
    4    -20.56710    2.00000
    5    -19.97889    2.00000
    6    -19.70318    2.00000
    7    -19.24110    2.00000
    8    -18.48223    2.00000
    9    -18.20531    2.00000
   10    -17.99593    2.00000
   11    -17.48887    2.00000
   12    -16.46379    2.00000
   13    -16.13180    2.00000
   14    -15.78847    2.00000
   15    -15.29895    2.00000
   16    -14.30814    2.00000
   17    -14.23337    2.00000
   18    -13.63917    2.00000
   19    -13.21615    2.00000
   20    -12.61286    2.00000
   21    -12.19325    2.00000
   22    -11.49212    2.00000
   23    -10.99441    2.00000
   24    -10.74271    2.00000
   25    -10.73917    2.00000
   26    -10.41636    2.00000
   27    -10.19699    2.00000
   28     -9.86721    2.00000
   29     -9.84554    2.00000
   30     -9.22702    2.00000
   31     -8.77008    2.00000
   32     -8.68304    2.00000
   33     -8.55239    2.00000
   34     -8.26189    2.00000
   35     -7.88274    2.00000
   36     -7.84944    2.00000
   37     -7.52554    2.00000
   38     -7.06456    2.00000
   39     -6.93210    2.00000
   40     -6.58458    2.00000
   41     -6.18987    2.00000
   42     -6.16216    2.00000
   43     -5.79380    1.99994
   44     -5.70725    1.99986
   45     -5.49205    1.99883
   46     -4.90445    1.65440
   47     -4.85710    1.49768
   48     -4.71692    0.84654
   49     -4.08890    0.00275
   50     -3.14684    0.00000
   51     -2.92967    0.00000
   52     -2.70614    0.00000
   53     -2.42429    0.00000
   54     -2.22645    0.00000
   55     -1.71103    0.00000
   56     -1.31110    0.00000
   57     -0.69290    0.00000
   58     -0.04848    0.00000
   59      0.06673    0.00000
   60      1.31324    0.00000
   61      1.42115    0.00000
   62      1.59457    0.00000
   63      1.79274    0.00000
   64      3.15957    0.00000
   65      3.23676    0.00000
   66      3.52054    0.00000
   67      3.87436    0.00000
   68      4.32970    0.00000
   69      4.33531    0.00000
   70      4.54273    0.00000
   71      4.81146    0.00000
   72      5.16737    0.00000
   73      5.70564    0.00000
   74      6.55198    0.00000
   75      6.75618    0.00000
   76      6.99632    0.00000
   77      7.40978    0.00000
   78      7.93084    0.00000
   79      8.04205    0.00000
   80      8.17828    0.00000
   81      8.46634    0.00000
   82      8.58692    0.00000
   83      8.64057    0.00000
   84      8.84839    0.00000
   85      8.87184    0.00000
   86      9.31073    0.00000
   87      9.35035    0.00000
   88      9.42794    0.00000
   89      9.44252    0.00000
   90      9.63648    0.00000
   91      9.76038    0.00000
   92     10.03960    0.00000
   93     10.08797    0.00000
   94     10.10285    0.00000
   95     10.22571    0.00000
   96     10.37052    0.00000
   97     10.41039    0.00000


Forces in eV/Ang:
  0 C     0.00306   -0.07863    0.00771
  1 C     0.09173    0.10113    0.01848
  2 C    -0.06261   -0.00928    0.01613
  3 C     0.10964    0.00007   -0.02029
  4 C    -0.03587   -0.02023    0.04648
  5 C     0.00783   -0.06246   -0.07015
  6 C    -0.02121    0.10896    0.05979
  7 C    -0.03907   -0.02611   -0.04989
  8 C    -0.01109    0.01029   -0.06284
  9 C     0.03481   -0.00639    0.00677
 10 C    -0.02486   -0.03321   -0.02059
 11 C    -0.07063    0.00321   -0.02479
 12 C     0.02864   -0.02861   -0.04323
 13 C    -0.12761    0.06420   -0.01379
 14 C    -0.02916    0.09537   -0.03068
 15 C     0.05779   -0.01835    0.01689
 16 C     0.02972    0.02315    0.04257
 17 C    -0.10071    0.07072    0.05198
 18 C     0.02413   -0.02951   -0.06376
 19 C     0.04690   -0.03664    0.09575
 20 C    -0.06367   -0.03482    0.02536
 21 C     0.06621   -0.02796    0.01135
 22 C    -0.04627   -0.00589   -0.05887
 23 C     0.03422   -0.04030   -0.00326

System changes: positions 

Initializing position-dependent things.

Density initialized from wave functions
           .--------------------------------------.  
          /|                                      |  
         / |                                      |  
        /  |                                      |  
       /   |                                      |  
      /    |                                      |  
     /     |                                      |  
    /      |                                      |  
   /       |                                      |  
  /      C |           C  C C                     |  
 *         |C  C     C    C                       |  
 |         |     C     C   C                      |  
 |         .-----C---C-C-----C--------------------.  
 |        /    C       C     C                   /   
 |       /    C        C  C                     /    
 |      /     C  C  C                          /     
 |     /                                      /      
 |    /                                      /       
 |   /                                      /        
 |  /                                      /         
 | /                                      /          
 |/                                      /           
 *--------------------------------------*            

Positions:
   0 C     10.185398    4.880147    5.039936
   1 C      9.245298    3.901939    4.864230
   2 C     10.091787    6.156733    5.195655
   3 C      5.838495    8.938192    5.461398
   4 C      7.608160   10.318829    5.788581
   5 C      6.287397   10.237707    5.795834
   6 C      8.304634    8.161697    5.409844
   7 C      8.854600    6.815262    5.210945
   8 C      6.888158    7.998063    5.302789
   9 C      8.642978    9.508254    5.726669
  10 C      7.168587    2.047418    4.697941
  11 C      7.656054    5.879649    4.989319
  12 C      5.888062    2.333929    4.695845
  13 C      8.054422    3.121586    4.767514
  14 C      4.736261    2.957402    4.672143
  15 C      7.915231    4.538290    4.834370
  16 C      4.390504    4.238255    4.737797
  17 C      6.461279    6.676828    5.055358
  18 C      5.022874    6.674473    5.030592
  19 C      4.281130    5.515855    4.833977
  20 C      4.597211    8.111655    5.269647
  21 C      0.948131    9.665730    5.421969
  22 C      3.344780    8.594080    5.325445
  23 C      2.153886    9.120507    5.380198

Unit cell:
           periodic     x           y           z      points  spacing
  1. axis:    yes   16.000000    0.000000    0.000000    80     0.2000
  2. axis:    yes    0.000000   16.000000    0.000000    80     0.2000
  3. axis:    yes    0.000000    0.000000   10.000000    48     0.2083

Effective grid spacing dv^(1/3) = 0.2027

                     log10-error:    total        iterations:
           time      wfs    density  energy       fermi  poisson
iter:   1  10:52:06          +inf  -181.876057    3      5      
iter:   2  10:52:06         -2.69  -181.875137    3      1      
iter:   3  10:52:07         -3.02  -181.875031    2      1      
iter:   4  10:52:07         -3.21  -181.872325    2      1      
iter:   5  10:52:08         -3.06  -181.878830    3      1      
iter:   6  10:52:08         -2.55  -181.874947    3      1      
iter:   7  10:52:09         -3.81  -181.875273    2      1      
iter:   8  10:52:09         -3.48  -181.876140    2      1      
iter:   9  10:52:10         -3.06  -181.874938    2      1      
iter:  10  10:52:11         -3.46  -181.875242    2      1      
iter:  11  10:52:11         -3.96  -181.875685    2      1      
iter:  12  10:52:12         -3.34  -181.875027    2      1      
iter:  13  10:52:12         -3.83  -181.875204    2      1      
iter:  14  10:52:13         -4.48  -181.875304    2      1      

Converged after 14 iterations.

Dipole moment: (-2.333846, -0.391792, -0.067072) |e|*Ang

Energy contributions relative to reference atoms: (reference = -24663.074771)

Kinetic:       +109.159844
Potential:     -117.602271
External:        +0.000000
XC:            -176.280129
Entropy (-ST):   -0.344894
Local:           +3.019699
--------------------------
Free energy:   -182.047751
Extrapolated:  -181.875304

Fermi level: -4.74980

 Band  Eigenvalues  Occupancy
    0    -23.47328    2.00000
    1    -22.81770    2.00000
    2    -21.25253    2.00000
    3    -20.98273    2.00000
    4    -20.57239    2.00000
    5    -19.98269    2.00000
    6    -19.70875    2.00000
    7    -19.24711    2.00000
    8    -18.48954    2.00000
    9    -18.20523    2.00000
   10    -17.99710    2.00000
   11    -17.49244    2.00000
   12    -16.46731    2.00000
   13    -16.12951    2.00000
   14    -15.78893    2.00000
   15    -15.30066    2.00000
   16    -14.31111    2.00000
   17    -14.23295    2.00000
   18    -13.64213    2.00000
   19    -13.22084    2.00000
   20    -12.61677    2.00000
   21    -12.19417    2.00000
   22    -11.48862    2.00000
   23    -10.99516    2.00000
   24    -10.74363    2.00000
   25    -10.74096    2.00000
   26    -10.41292    2.00000
   27    -10.20095    2.00000
   28     -9.87178    2.00000
   29     -9.84720    2.00000
   30     -9.23160    2.00000
   31     -8.77318    2.00000
   32     -8.68482    2.00000
   33     -8.55472    2.00000
   34     -8.26818    2.00000
   35     -7.88542    2.00000
   36     -7.85133    2.00000
   37     -7.52756    2.00000
   38     -7.05853    2.00000
   39     -6.93347    2.00000
   40     -6.58728    2.00000
   41     -6.18667    2.00000
   42     -6.16396    2.00000
   43     -5.79489    1.99994
   44     -5.70621    1.99986
   45     -5.49146    1.99880
   46     -4.90452    1.64903
   47     -4.85975    1.50033
   48     -4.71946    0.84944
   49     -4.08515    0.00259
   50     -3.14431    0.00000
   51     -2.92569    0.00000
   52     -2.71113    0.00000
   53     -2.41624    0.00000
   54     -2.22532    0.00000
   55     -1.71231    0.00000
   56     -1.30696    0.00000
   57     -0.68481    0.00000
   58     -0.04041    0.00000
   59      0.06685    0.00000
   60      1.32746    0.00000
   61      1.42814    0.00000
   62      1.60021    0.00000
   63      1.79412    0.00000
   64      3.16705    0.00000
   65      3.24879    0.00000
   66      3.52744    0.00000
   67      3.88319    0.00000
   68      4.34222    0.00000
   69      4.34618    0.00000
   70      4.56124    0.00000
   71      4.82364    0.00000
   72      5.18719    0.00000
   73      5.72328    0.00000
   74      6.57500    0.00000
   75      6.75954    0.00000
   76      7.00933    0.00000
   77      7.41429    0.00000
   78      7.93790    0.00000
   79      8.04013    0.00000
   80      8.18086    0.00000
   81      8.47368    0.00000
   82      8.59033    0.00000
   83      8.64413    0.00000
   84      8.84650    0.00000
   85      8.87364    0.00000
   86      9.31795    0.00000
   87      9.35123    0.00000
   88      9.42685    0.00000
   89      9.44706    0.00000
   90      9.64670    0.00000
   91      9.75994    0.00000
   92     10.04595    0.00000
   93     10.08914    0.00000
   94     10.10278    0.00000
   95     10.22906    0.00000
   96     10.37510    0.00000
   97     10.41013    0.00000


Forces in eV/Ang:
  0 C     0.03107   -0.02791    0.01528
  1 C     0.06382    0.03120    0.00812
  2 C    -0.05703   -0.01747    0.01109
  3 C     0.02454   -0.01678   -0.02016
  4 C    -0.04552   -0.00647    0.04449
  5 C     0.05092    0.00991   -0.05473
  6 C    -0.01311    0.01808    0.03744
  7 C    -0.03725   -0.03566   -0.04035
  8 C     0.03241   -0.00768   -0.06489
  9 C     0.03117    0.05967    0.02966
 10 C    -0.02076   -0.04745   -0.02174
 11 C    -0.06314   -0.01377   -0.04049
 12 C    -0.00818   -0.01834   -0.04296
 13 C    -0.08090    0.05024   -0.00319
 14 C    -0.01066    0.07108   -0.02134
 15 C     0.01046    0.03575    0.01678
 16 C     0.01945    0.00145    0.04289
 17 C    -0.03862    0.02237    0.05180
 18 C     0.02402    0.02776   -0.04973
 19 C     0.01841   -0.03115    0.07712
 20 C    -0.04785   -0.02292    0.02265
 21 C     0.04730   -0.03548    0.01896
 22 C    -0.00606   -0.01524   -0.05185
 23 C    -0.00373   -0.02857   -0.00377

