
  ___ ___ ___ _ _ _  
 |   |   |_  | | | | 
 | | | | | . | | | | 
 |__ |  _|___|_____|  1.3.0b1
 |___|_|             

User:   esb@s65n11.grendel.cscaa.dk
Date:   Thu Nov  9 12:15:02 2017
Arch:   x86_64
Pid:    78446
Python: 2.7.13
gpaw:   /home/esb/DFT/gpaw_git/gpaw
_gpaw:  /home/esb/DFT/gpaw_git/build/bin.linux-x86_64-2.7/gpaw-python
ase:    /home/esb/DFT/ase_git/ase (version 3.15.0b1)
numpy:  /comm/swstack/core/python/2.7.13/lib/python2.7/site-packages/numpy (version 1.13.3)
scipy:  /comm/swstack/core/python/2.7.13/lib/python2.7/site-packages/scipy (version 0.19.1)
units:  Angstrom and eV
cores:  16
Extra parameters: {'blacs': True}

Input parameters:
  basis: dzp
  gpts: [80 80 48]
  kpts: [1 1 1]
  maxiter: 99
  mixer: {backend: pulay,
          beta: 0.05,
          method: separate,
          nmaxold: 5,
          weight: 75}
  mode: lcao
  nbands: -50
  occupations: {name: fermi-dirac,
                width: 0.1}
  poissonsolver: {eps: 1e-07,
                  name: fd,
                  nn: 3,
                  relax: GS}
  xc: PBE

System changes: positions, numbers, cell, pbc, initial_charges, initial_magmoms 

Initialize ...

C-setup:
  name: Carbon
  id: 4aa54d4b901d75f77cc0ea3eec22967b
  Z: 6
  valence: 4
  core: 2
  charge: 0.0
  file: /home/esb/DFT/gpaw-setups-0.8.7929/C.PBE.gz
  cutoffs: 0.64(comp), 1.14(filt), 1.14(core), lmax=2
  valence states:
                energy  radius
    2s(2.00)   -13.751   0.635
    2p(2.00)    -5.284   0.635
    *s          13.461   0.635
    *p          21.927   0.635
    *d           0.000   0.635

  LCAO basis set for C:
    Name: dzp
    File: /home/esb/DFT/gpaw-setups-0.8.7929/C.dzp.basis.gz
    Number of radial functions: 5
    Number of spherical harmonics: 13
      l=0, rc=5.5469 Bohr: 2s-sz confined orbital
      l=1, rc=6.6719 Bohr: 2p-sz confined orbital
      l=0, rc=3.0312 Bohr: 2s-dz split-valence wave
      l=1, rc=3.7500 Bohr: 2p-dz split-valence wave
      l=2, rc=6.6719 Bohr: d-type Gaussian polarization

Reference energy: -24663.074771

Spin-paired calculation

Occupation numbers:
  Fermi-Dirac: width=0.1000 eV

Convergence criteria:
  Maximum total energy change: 0.0005 eV / electron
  Maximum integral of absolute density change: 0.0001 electrons
  Maximum integral of absolute eigenstate change: 4e-08 eV^2
  Maximum number of iterations: 99

Symmetries present (total): 1

  ( 1  0  0)
  ( 0  1  0)
  ( 0  0  1)

1 k-point (Gamma)
1 k-point in the irreducible part of the Brillouin zone
       k-points in crystal coordinates                weights
   0:     0.00000000    0.00000000    0.00000000          1/1

Wave functions: LCAO
  Diagonalizer: Serial LAPACK
  Atomic Correction: dense with blas
  Datatype: float
  Eigensolver: None 

LCAO using direct dense diagonalizer 

Densities:
  Coarse grid: 80*80*48 grid
  Fine grid: 160*160*96 grid
  Total Charge: 0.000000 

Density mixing:
  Method: separate
  Backend: pulay
  Linear mixing parameter: 0.05
  Mixing with 5 old densities
  Damping of long wave oscillations: 75 

Hamiltonian:
  XC and Coulomb potentials evaluated on a 160*160*96 grid
  Using the PBE Exchange-Correlation functional
  Interpolation: tri-quintic (5. degree polynomial)
  Poisson solver: Gauss-Seidel solver with 6 multi-grid levels
    Coarsest grid: 5 x 5 x 3 points
    Stencil: 6*3+1=19 point O(h^6) finite-difference Laplacian
    Max iterations: 1000
    Tolerance: 1.000000e-07 

Memory estimate:
  Process memory now: 77.55 MiB
  Calculator: 15.59 MiB
    Density: 6.13 MiB
      Arrays: 3.81 MiB
      Localized functions: 0.86 MiB
      Mixer: 1.46 MiB
    Hamiltonian: 5.40 MiB
      Arrays: 2.49 MiB
      XC: 0.00 MiB
      Poisson: 2.85 MiB
      vbar: 0.07 MiB
    Wavefunctions: 4.05 MiB
      C [qnM]: 0.23 MiB
      S, T [2 x qmm]: 1.49 MiB
      P [aqMi]: 0.01 MiB
      TCI: 0.00 MiB
      BasisFunctions: 2.33 MiB
      Eigensolver: 0.00 MiB

Total number of cores used: 16
Domain decomposition: 2 x 4 x 2

Number of atoms: 24
Number of atomic orbitals: 312
Number of bands in calculation: 98
Bands to converge: occupied states only
Number of valence electrons: 96

... initialized

Initializing position-dependent things.

Density initialized from atomic densities
           .--------------------------------------.  
          /|                                      |  
         / |                                      |  
        /  |                                      |  
       /   |                                      |  
      /    |                                      |  
     /     |                                      |  
    /      |                                      |  
   /       |                                      |  
  /        |    C     C   C                       |  
 *         |  C     C       C                     |  
 |         | C       C    C    C                  |  
 |         .---C---C-C-----C----C-----------------.  
 |        /    C     C  C     C  C               /   
 |       /       C      C  C  C                 /    
 |      /                                      /     
 |     /                                      /      
 |    /                                      /       
 |   /                                      /        
 |  /                                      /         
 | /                                      /          
 |/                                      /           
 *--------------------------------------*            

Positions:
   0 C      3.243281    6.174632    5.664165
   1 C      3.478645    7.461403    5.782887
   2 C      3.962109    8.671975    5.906811
   3 C      4.691322    4.070902    5.432875
   4 C      4.483426    5.475644    5.523497
   5 C      5.713535    3.344428    5.326439
   6 C      5.378194    8.712916    5.802876
   7 C      5.816388    6.119330    5.454633
   8 C      6.237274    7.531132    5.555899
   9 C      7.023028    3.875364    5.245263
  10 C      6.241915    9.843237    5.865144
  11 C      7.020796    5.340016    5.298345
  12 C     11.022087    7.563475    3.460211
  13 C     10.481532    8.711712    3.798771
  14 C      9.770033    9.708933    4.261263
  15 C     10.423703    5.094372    3.808731
  16 C     10.184815    6.493581    3.908132
  17 C      9.786676    4.071655    4.172404
  18 C      8.573449    9.283403    4.897570
  19 C      8.878933    6.666122    4.586928
  20 C      8.141235    7.871069    5.016454
  21 C      8.529458    4.144324    4.818449
  22 C      7.552736   10.077273    5.493751
  23 C      8.088022    5.530561    4.995969

Unit cell:
           periodic     x           y           z      points  spacing
  1. axis:    yes   16.000000    0.000000    0.000000    80     0.2000
  2. axis:    yes    0.000000   16.000000    0.000000    80     0.2000
  3. axis:    yes    0.000000    0.000000   10.000000    48     0.2083

Effective grid spacing dv^(1/3) = 0.2027

                     log10-error:    total        iterations:
           time      wfs    density  energy       fermi  poisson
iter:   1  12:15:03          +inf  -183.096661    2      6      
iter:   2  12:15:04         -0.89  -182.058852    3      3      
iter:   3  12:15:04         -0.92  -179.378709    35     4      
iter:   4  12:15:05         -1.15  -178.815747    4      2      
iter:   5  12:15:06         -1.20  -178.793720    32     3      
iter:   6  12:15:06         -1.46  -178.588322    3      3      
iter:   7  12:15:07         -1.58  -178.343013    4      3      
iter:   8  12:15:08         -1.79  -178.333714    3      2      
iter:   9  12:15:08         -1.85  -178.227574    4      3      
iter:  10  12:15:09         -2.19  -178.230512    2      2      
iter:  11  12:15:09         -2.28  -178.215284    3      2      
iter:  12  12:15:10         -2.38  -178.219732    3      2      
iter:  13  12:15:11         -2.54  -178.219374    3      2      
iter:  14  12:15:11         -2.64  -178.217773    3      2      
iter:  15  12:15:12         -2.72  -178.218074    3      2      
iter:  16  12:15:12         -2.82  -178.218144    2      2      
iter:  17  12:15:13         -3.32  -178.214725    2      1      
iter:  18  12:15:13         -3.38  -178.213920    2      1      
iter:  19  12:15:14         -3.49  -178.216193    2      1      
iter:  20  12:15:15         -3.58  -178.215449    2      1      
iter:  21  12:15:15         -3.74  -178.213263    2      1      
iter:  22  12:15:16         -3.79  -178.209090    2      1      
iter:  23  12:15:16         -4.02  -178.212362    2      1      

Converged after 23 iterations.

Dipole moment: (0.135387, -0.615517, 0.082809) |e|*Ang

Energy contributions relative to reference atoms: (reference = -24663.074771)

Kinetic:       +124.480160
Potential:     -127.820503
External:        +0.000000
XC:            -177.722891
Entropy (-ST):   -0.223359
Local:           +2.962552
--------------------------
Free energy:   -178.324041
Extrapolated:  -178.212362

Fermi level: -4.56478

 Band  Eigenvalues  Occupancy
    0    -24.34614    2.00000
    1    -21.85972    2.00000
    2    -21.67959    2.00000
    3    -20.85694    2.00000
    4    -20.78371    2.00000
    5    -19.89506    2.00000
    6    -19.68474    2.00000
    7    -19.50989    2.00000
    8    -18.85461    2.00000
    9    -18.13362    2.00000
   10    -17.44751    2.00000
   11    -16.79214    2.00000
   12    -16.43739    2.00000
   13    -16.31994    2.00000
   14    -15.52511    2.00000
   15    -15.39920    2.00000
   16    -13.94170    2.00000
   17    -13.92833    2.00000
   18    -12.95350    2.00000
   19    -12.61141    2.00000
   20    -12.56154    2.00000
   21    -12.30840    2.00000
   22    -11.80781    2.00000
   23    -11.45920    2.00000
   24    -11.41769    2.00000
   25    -10.88706    2.00000
   26    -10.67317    2.00000
   27    -10.53384    2.00000
   28     -9.82309    2.00000
   29     -9.71779    2.00000
   30     -9.55982    2.00000
   31     -8.66122    2.00000
   32     -8.65236    2.00000
   33     -8.54879    2.00000
   34     -8.54273    2.00000
   35     -7.80152    2.00000
   36     -7.36870    2.00000
   37     -7.24844    2.00000
   38     -7.21708    2.00000
   39     -7.14529    2.00000
   40     -6.93875    2.00000
   41     -6.65433    2.00000
   42     -6.42600    2.00000
   43     -5.72526    1.99998
   44     -5.63468    1.99995
   45     -5.01763    1.97864
   46     -4.88861    1.92450
   47     -4.74438    1.71533
   48     -4.42029    0.38159
   49     -3.19375    0.00000
   50     -3.15364    0.00000
   51     -2.99880    0.00000
   52     -2.89805    0.00000
   53     -2.79118    0.00000
   54     -2.45734    0.00000
   55     -2.20167    0.00000
   56     -1.32783    0.00000
   57     -1.27280    0.00000
   58     -0.84135    0.00000
   59     -0.19745    0.00000
   60      0.13179    0.00000
   61      0.74612    0.00000
   62      1.58513    0.00000
   63      2.08334    0.00000
   64      2.33788    0.00000
   65      3.00257    0.00000
   66      3.46505    0.00000
   67      3.56658    0.00000
   68      4.77183    0.00000
   69      4.79717    0.00000
   70      5.11793    0.00000
   71      5.43512    0.00000
   72      6.25161    0.00000
   73      6.33446    0.00000
   74      6.45033    0.00000
   75      7.04479    0.00000
   76      7.20957    0.00000
   77      7.40953    0.00000
   78      7.59954    0.00000
   79      7.79690    0.00000
   80      7.95376    0.00000
   81      8.22139    0.00000
   82      8.62775    0.00000
   83      8.82617    0.00000
   84      8.84158    0.00000
   85      9.18604    0.00000
   86      9.34410    0.00000
   87      9.46618    0.00000
   88      9.47329    0.00000
   89      9.50589    0.00000
   90      9.59790    0.00000
   91      9.64170    0.00000
   92     10.05145    0.00000
   93     10.16340    0.00000
   94     10.22250    0.00000
   95     10.30294    0.00000
   96     10.39563    0.00000
   97     10.43700    0.00000


Forces in eV/Ang:
  0 C     0.42729   -0.25254   -0.10773
  1 C    -0.19486    0.35040    0.12605
  2 C    -0.31442   -0.38102   -0.04414
  3 C    -1.25378    1.31067    0.34528
  4 C    -1.12581   -1.25959    0.10733
  5 C     2.90955   -0.75921   -0.43213
  6 C     1.87028    0.65661    0.06706
  7 C     2.32903    2.57084    0.34089
  8 C     0.81124   -0.77222   -1.08307
  9 C    -0.94676   -0.73449   -0.10280
 10 C     6.46056    1.17671   -1.95173
 11 C   -27.33387   -4.77034    7.42629
 12 C    -0.32236   -0.40594    0.06953
 13 C     0.10835    0.35855    0.03645
 14 C     0.34232   -0.27447   -0.23112
 15 C     0.75137    1.67013   -0.23722
 16 C     1.35348   -0.77188   -0.58463
 17 C    -2.30580   -1.67723    1.03546
 18 C    -1.69949    0.01119    1.07756
 19 C    -2.50191    1.71139    1.72641
 20 C    -0.92463   -1.09017   -0.61457
 21 C     0.95657   -0.39016   -0.64972
 22 C    -6.51989   -1.14443    1.69258
 23 C    27.14229    4.96056   -8.00456

System changes: positions 

Initializing position-dependent things.

Density initialized from wave functions
           .--------------------------------------.  
          /|                                      |  
         / |                                      |  
        /  |                                      |  
       /   |                                      |  
      /    |                                      |  
     /     |                                      |  
    /      |                                      |  
   /       |                                      |  
  /        |    C     C   C                       |  
 *         |  C     C       C                     |  
 |         | C       C    C    C                  |  
 |         .---C---C-C-----C----C-----------------.  
 |        /    C     C  C     C  C               /   
 |       /       C      C  C  C                 /    
 |      /                                      /     
 |     /                                      /      
 |    /                                      /       
 |   /                                      /        
 |  /                                      /         
 | /                                      /          
 |/                                      /           
 *--------------------------------------*            

Positions:
   0 C      3.243876    6.174280    5.664015
   1 C      3.478374    7.461891    5.783062
   2 C      3.961671    8.671444    5.906750
   3 C      4.689577    4.072726    5.433356
   4 C      4.481858    5.473890    5.523646
   5 C      5.717586    3.343371    5.325838
   6 C      5.380798    8.713830    5.802969
   7 C      5.819631    6.122909    5.455108
   8 C      6.238404    7.530057    5.554391
   9 C      7.021710    3.874341    5.245120
  10 C      6.250910    9.844875    5.862426
  11 C      6.982739    5.333375    5.308684
  12 C     11.021638    7.562910    3.460308
  13 C     10.481683    8.712212    3.798822
  14 C      9.770509    9.708551    4.260941
  15 C     10.424749    5.096697    3.808400
  16 C     10.186700    6.492506    3.907319
  17 C      9.783466    4.069319    4.173846
  18 C      8.571083    9.283419    4.899070
  19 C      8.875449    6.668505    4.589332
  20 C      8.139948    7.869551    5.015598
  21 C      8.530790    4.143781    4.817545
  22 C      7.543659   10.075680    5.496108
  23 C      8.125812    5.537468    4.984825

Unit cell:
           periodic     x           y           z      points  spacing
  1. axis:    yes   16.000000    0.000000    0.000000    80     0.2000
  2. axis:    yes    0.000000   16.000000    0.000000    80     0.2000
  3. axis:    yes    0.000000    0.000000   10.000000    48     0.2083

Effective grid spacing dv^(1/3) = 0.2027

                     log10-error:    total        iterations:
           time      wfs    density  energy       fermi  poisson
iter:   1  12:15:18          +inf  -180.286311    3      5      
iter:   2  12:15:19         -2.18  -180.264315    2      2      
iter:   3  12:15:20         -2.29  -180.235133    2      2      
iter:   4  12:15:20         -2.53  -180.238879    2      2      
iter:   5  12:15:21         -2.66  -180.237476    2      1      
iter:   6  12:15:21         -2.70  -180.228761    3      2      
iter:   7  12:15:22         -2.95  -180.243176    2      2      
iter:   8  12:15:23         -2.68  -180.230401    2      2      
iter:   9  12:15:23         -3.47  -180.230618    2      1      
iter:  10  12:15:24         -3.64  -180.231338    2      1      
iter:  11  12:15:24         -3.78  -180.230648    2      1      
iter:  12  12:15:25         -3.78  -180.230608    2      1      
iter:  13  12:15:25         -4.09  -180.230609    1      1      

Converged after 13 iterations.

Dipole moment: (0.137997, -0.619855, 0.089453) |e|*Ang

Energy contributions relative to reference atoms: (reference = -24663.074771)

Kinetic:       +116.706926
Potential:     -122.889277
External:        +0.000000
XC:            -176.926887
Entropy (-ST):   -0.180222
Local:           +2.968741
--------------------------
Free energy:   -180.320720
Extrapolated:  -180.230609

Fermi level: -4.52256

 Band  Eigenvalues  Occupancy
    0    -24.07370    2.00000
    1    -21.89973    2.00000
    2    -21.65659    2.00000
    3    -20.80898    2.00000
    4    -20.78443    2.00000
    5    -19.90436    2.00000
    6    -19.67707    2.00000
    7    -19.50568    2.00000
    8    -18.93900    2.00000
    9    -18.15502    2.00000
   10    -17.50332    2.00000
   11    -16.74135    2.00000
   12    -16.44752    2.00000
   13    -16.24693    2.00000
   14    -15.49134    2.00000
   15    -15.43914    2.00000
   16    -14.01887    2.00000
   17    -13.95180    2.00000
   18    -12.92894    2.00000
   19    -12.62861    2.00000
   20    -12.55343    2.00000
   21    -12.29160    2.00000
   22    -11.71350    2.00000
   23    -11.50537    2.00000
   24    -11.27535    2.00000
   25    -10.80640    2.00000
   26    -10.68889    2.00000
   27    -10.44409    2.00000
   28     -9.88975    2.00000
   29     -9.73832    2.00000
   30     -9.54099    2.00000
   31     -8.91245    2.00000
   32     -8.63030    2.00000
   33     -8.56897    2.00000
   34     -8.54159    2.00000
   35     -7.80490    2.00000
   36     -7.33770    2.00000
   37     -7.27776    2.00000
   38     -7.20347    2.00000
   39     -7.12640    2.00000
   40     -6.96492    2.00000
   41     -6.66612    2.00000
   42     -6.35914    2.00000
   43     -5.79189    1.99999
   44     -5.66075    1.99998
   45     -5.03706    1.98841
   46     -4.95847    1.97474
   47     -4.71481    1.74484
   48     -4.34594    0.29203
   49     -3.18848    0.00000
   50     -3.14609    0.00000
   51     -3.00053    0.00000
   52     -2.85064    0.00000
   53     -2.81359    0.00000
   54     -2.48325    0.00000
   55     -2.11809    0.00000
   56     -1.31753    0.00000
   57     -1.25886    0.00000
   58     -0.84731    0.00000
   59     -0.22756    0.00000
   60      0.09770    0.00000
   61      0.69662    0.00000
   62      1.43273    0.00000
   63      2.08397    0.00000
   64      2.35201    0.00000
   65      3.11961    0.00000
   66      3.52386    0.00000
   67      3.57818    0.00000
   68      4.66026    0.00000
   69      4.73351    0.00000
   70      5.35454    0.00000
   71      5.55060    0.00000
   72      6.20365    0.00000
   73      6.39800    0.00000
   74      6.47889    0.00000
   75      7.06854    0.00000
   76      7.22466    0.00000
   77      7.42459    0.00000
   78      7.62498    0.00000
   79      7.79724    0.00000
   80      7.94588    0.00000
   81      8.23675    0.00000
   82      8.62856    0.00000
   83      8.81110    0.00000
   84      8.88708    0.00000
   85      9.21734    0.00000
   86      9.35975    0.00000
   87      9.46875    0.00000
   88      9.47186    0.00000
   89      9.50212    0.00000
   90      9.60228    0.00000
   91      9.63353    0.00000
   92     10.06490    0.00000
   93     10.14414    0.00000
   94     10.22352    0.00000
   95     10.33658    0.00000
   96     10.40540    0.00000
   97     10.43946    0.00000


Forces in eV/Ang:
  0 C     0.35118   -0.18911   -0.10250
  1 C    -0.17453    0.24396    0.11164
  2 C    -0.19771   -0.28167   -0.03615
  3 C    -0.83287    0.86441    0.31135
  4 C    -1.12231   -1.11633    0.11739
  5 C     2.12433   -0.58633   -0.35943
  6 C     1.86891    0.54464    0.05251
  7 C     1.51760    2.32687    0.40084
  8 C     0.87754   -0.32166   -1.04670
  9 C    -0.77667   -0.17161   -0.12970
 10 C     5.76338    0.97147   -1.78186
 11 C   -15.65404   -3.33618    4.29743
 12 C    -0.28133   -0.32056    0.04417
 13 C     0.11700    0.25275    0.02674
 14 C     0.22162   -0.22561   -0.15660
 15 C     0.54285    1.10861   -0.09363
 16 C     1.30501   -0.64710   -0.56000
 17 C    -1.70508   -1.25671    0.71282
 18 C    -1.66374   -0.09443    1.05537
 19 C    -1.74136    1.74590    1.33229
 20 C    -1.10373   -0.68551   -0.50927
 21 C     0.62800    0.07869   -0.53495
 22 C    -5.81360   -1.09287    1.47070
 23 C    15.71517    2.29085   -4.58895

System changes: positions 

Initializing position-dependent things.

Density initialized from wave functions
           .--------------------------------------.  
          /|                                      |  
         / |                                      |  
        /  |                                      |  
       /   |                                      |  
      /    |                                      |  
     /     |                                      |  
    /      |                                      |  
   /       |                                      |  
  /        |    C     C   C                       |  
 *         |  C     C       C                     |  
 |         | C       C    C    C                  |  
 |         .---C---C-C-----C----C-----------------.  
 |        /    C     C  C     C  C               /   
 |       /       C      C  C  C                 /    
 |      /                                      /     
 |     /                                      /      
 |    /                                      /       
 |   /                                      /        
 |  /                                      /         
 | /                                      /          
 |/                                      /           
 *--------------------------------------*            

Positions:
   0 C      3.245897    6.173377    5.663285
   1 C      3.477225    7.462852    5.783785
   2 C      3.961144    8.670140    5.906543
   3 C      4.686772    4.075560    5.435425
   4 C      4.473418    5.466651    5.524615
   5 C      5.727125    3.340376    5.323727
   6 C      5.394889    8.717014    5.803245
   7 C      5.824374    6.138451    5.458628
   8 C      6.245574    7.531355    5.546794
   9 C      7.017255    3.877699    5.243919
  10 C      6.288636    9.850509    5.850385
  11 C      6.961176    5.320057    5.315245
  12 C     11.019854    7.561197    3.460431
  13 C     10.482638    8.713244    3.798944
  14 C      9.771184    9.707252    4.260375
  15 C     10.427121    5.100421    3.808881
  16 C     10.196147    6.488655    3.903296
  17 C      9.775565    4.063313    4.176557
  18 C      8.558824    9.281833    4.906851
  19 C      8.868597    6.681965    4.596127
  20 C      8.130139    7.867724    5.012626
  21 C      8.532812    4.148251    4.814457
  22 C      7.505629   10.067860    5.505371
  23 C      8.149926    5.532683    4.978435

Unit cell:
           periodic     x           y           z      points  spacing
  1. axis:    yes   16.000000    0.000000    0.000000    80     0.2000
  2. axis:    yes    0.000000   16.000000    0.000000    80     0.2000
  3. axis:    yes    0.000000    0.000000   10.000000    48     0.2083

Effective grid spacing dv^(1/3) = 0.2027

                     log10-error:    total        iterations:
           time      wfs    density  energy       fermi  poisson
iter:   1  12:15:28          +inf  -181.617975    3      5      
iter:   2  12:15:28         -2.01  -181.559066    3      2      
iter:   3  12:15:29         -2.10  -181.465230    3      2      
iter:   4  12:15:29         -2.41  -181.457472    3      2      
iter:   5  12:15:30         -2.63  -181.457272    2      1      
iter:   6  12:15:31         -2.68  -181.457477    2      2      
iter:   7  12:15:31         -2.98  -181.457622    2      2      
iter:   8  12:15:32         -3.04  -181.457146    2      2      
iter:   9  12:15:32         -3.38  -181.457699    2      1      
iter:  10  12:15:33         -3.47  -181.457766    2      1      
iter:  11  12:15:34         -3.59  -181.456919    2      1      
iter:  12  12:15:34         -3.86  -181.457324    2      1      
iter:  13  12:15:35         -3.97  -181.457894    2      1      
iter:  14  12:15:35         -4.10  -181.457603    2      1      

Converged after 14 iterations.

Dipole moment: (0.138309, -0.612813, 0.097937) |e|*Ang

Energy contributions relative to reference atoms: (reference = -24663.074771)

Kinetic:       +115.467598
Potential:     -122.590917
External:        +0.000000
XC:            -177.236957
Entropy (-ST):   -0.157641
Local:           +2.981492
--------------------------
Free energy:   -181.536424
Extrapolated:  -181.457603

Fermi level: -4.46414

 Band  Eigenvalues  Occupancy
    0    -23.95482    2.00000
    1    -21.88723    2.00000
    2    -21.63550    2.00000
    3    -20.78681    2.00000
    4    -20.73599    2.00000
    5    -19.91271    2.00000
    6    -19.68123    2.00000
    7    -19.47951    2.00000
    8    -18.95222    2.00000
    9    -18.29279    2.00000
   10    -17.52416    2.00000
   11    -16.75078    2.00000
   12    -16.43935    2.00000
   13    -16.28850    2.00000
   14    -15.43809    2.00000
   15    -15.43294    2.00000
   16    -14.02567    2.00000
   17    -13.99460    2.00000
   18    -12.92835    2.00000
   19    -12.65400    2.00000
   20    -12.51934    2.00000
   21    -12.18685    2.00000
   22    -11.63476    2.00000
   23    -11.51888    2.00000
   24    -11.20904    2.00000
   25    -10.81411    2.00000
   26    -10.73042    2.00000
   27    -10.34569    2.00000
   28     -9.90551    2.00000
   29     -9.72818    2.00000
   30     -9.54730    2.00000
   31     -9.13368    2.00000
   32     -8.66376    2.00000
   33     -8.56084    2.00000
   34     -8.53241    2.00000
   35     -7.80960    2.00000
   36     -7.32819    2.00000
   37     -7.30298    2.00000
   38     -7.17771    2.00000
   39     -7.10652    2.00000
   40     -6.93626    2.00000
   41     -6.65275    2.00000
   42     -6.28448    2.00000
   43     -6.07237    2.00000
   44     -5.82200    2.00000
   45     -5.10216    1.99662
   46     -4.93230    1.98164
   47     -4.67115    1.77593
   48     -4.26761    0.24580
   49     -3.22461    0.00001
   50     -3.12041    0.00000
   51     -3.04443    0.00000
   52     -2.81824    0.00000
   53     -2.63880    0.00000
   54     -2.31328    0.00000
   55     -2.09521    0.00000
   56     -1.30479    0.00000
   57     -1.26011    0.00000
   58     -0.74300    0.00000
   59     -0.08679    0.00000
   60      0.02551    0.00000
   61      0.66913    0.00000
   62      1.40731    0.00000
   63      2.19139    0.00000
   64      2.32156    0.00000
   65      3.24563    0.00000
   66      3.60947    0.00000
   67      3.67836    0.00000
   68      4.61926    0.00000
   69      4.63734    0.00000
   70      5.32277    0.00000
   71      5.73940    0.00000
   72      6.16866    0.00000
   73      6.51026    0.00000
   74      6.55080    0.00000
   75      6.94971    0.00000
   76      7.32783    0.00000
   77      7.44957    0.00000
   78      7.53083    0.00000
   79      7.89833    0.00000
   80      7.94112    0.00000
   81      8.17464    0.00000
   82      8.62869    0.00000
   83      8.79273    0.00000
   84      8.90125    0.00000
   85      9.22553    0.00000
   86      9.35674    0.00000
   87      9.45472    0.00000
   88      9.46482    0.00000
   89      9.50477    0.00000
   90      9.59766    0.00000
   91      9.63585    0.00000
   92     10.06965    0.00000
   93     10.17713    0.00000
   94     10.23880    0.00000
   95     10.31033    0.00000
   96     10.43841    0.00000
   97     10.46537    0.00000


Forces in eV/Ang:
  0 C     0.09841    0.00496   -0.07197
  1 C    -0.12133    0.01035    0.07896
  2 C     0.44682   -0.00331   -0.03614
  3 C    -0.02049    0.04453    0.20997
  4 C    -0.66790   -0.62039    0.12582
  5 C     0.81825   -0.18774   -0.24239
  6 C     1.53381    0.55927    0.02024
  7 C     0.95446    1.36224    0.35896
  8 C     0.88455    0.17781   -0.93533
  9 C    -0.39450   -0.20817   -0.18280
 10 C     1.48171   -0.08653   -0.70756
 11 C   -10.59286   -1.97664    2.96752
 12 C    -0.10376   -0.05922   -0.04436
 13 C     0.12938    0.02261    0.00886
 14 C    -0.37518   -0.16340    0.19611
 15 C     0.11016    0.06393    0.16006
 16 C     0.78459   -0.35522   -0.28426
 17 C    -0.71899   -0.45054    0.18641
 18 C    -1.39489    0.03118    0.87646
 19 C    -1.02854    1.00451    0.90950
 20 C    -1.22577   -0.20083   -0.34531
 21 C     0.27804   -0.08370   -0.37229
 22 C    -1.51824   -0.61255    0.14648
 23 C    10.58655    1.79864   -3.03159

System changes: positions 

Initializing position-dependent things.

Density initialized from wave functions
           .--------------------------------------.  
          /|                                      |  
         / |                                      |  
        /  |                                      |  
       /   |                                      |  
      /    |                                      |  
     /     |                                      |  
    /      |                                      |  
   /       |                                      |  
  /        |    C      C  C                       |  
 *         |  C     C       C                     |  
 |         | C       C    C    C                  |  
 |         .---C---C-C-----C----C-----------------.  
 |        /    C     C  C     C  C               /   
 |       /       C      C  C  C                 /    
 |      /                                      /     
 |     /                                      /      
 |    /                                      /       
 |   /                                      /        
 |  /                                      /         
 | /                                      /          
 |/                                      /           
 *--------------------------------------*            

Positions:
   0 C      3.246147    6.174658    5.662154
   1 C      3.475458    7.461239    5.784926
   2 C      3.971829    8.671893    5.906004
   3 C      4.693258    4.069176    5.438477
   4 C      4.462765    5.458590    5.526962
   5 C      5.729184    3.340040    5.320603
   6 C      5.421031    8.725527    5.803354
   7 C      5.830187    6.157272    5.465546
   8 C      6.261901    7.540968    5.531066
   9 C      7.013221    3.880668    5.240271
  10 C      6.296674    9.844160    5.842416
  11 C      6.925830    5.305520    5.327050
  12 C     11.018923    7.561764    3.459151
  13 C     10.485039    8.711862    3.798943
  14 C      9.761817    9.705107    4.265500
  15 C     10.425594    5.092498    3.813972
  16 C     10.208162    6.484566    3.899224
  17 C      9.772329    4.062234    4.174798
  18 C      8.535380    9.281405    4.921562
  19 C      8.861215    6.698330    4.606438
  20 C      8.106222    7.870113    5.008190
  21 C      8.532988    4.152000    4.809658
  22 C      7.497089   10.058809    5.502312
  23 C      8.188019    5.531336    4.969433

Unit cell:
           periodic     x           y           z      points  spacing
  1. axis:    yes   16.000000    0.000000    0.000000    80     0.2000
  2. axis:    yes    0.000000   16.000000    0.000000    80     0.2000
  3. axis:    yes    0.000000    0.000000   10.000000    48     0.2083

Effective grid spacing dv^(1/3) = 0.2027

                     log10-error:    total        iterations:
           time      wfs    density  energy       fermi  poisson
iter:   1  12:15:37          +inf  -182.404640    2      5      
iter:   2  12:15:38         -1.99  -182.357797    3      2      
iter:   3  12:15:39         -2.08  -182.281964    3      2      
iter:   4  12:15:39         -2.45  -182.280934    3      2      
iter:   5  12:15:40         -2.69  -182.280366    2      1      
iter:   6  12:15:40         -2.73  -182.278952    2      2      
iter:   7  12:15:41         -3.09  -182.278947    2      1      
iter:   8  12:15:42         -3.17  -182.278900    2      1      
iter:   9  12:15:42         -3.46  -182.280341    2      1      
iter:  10  12:15:43         -3.52  -182.281201    2      1      
iter:  11  12:15:43         -3.58  -182.279532    2      1      
iter:  12  12:15:44         -3.88  -182.279615    2      1      
iter:  13  12:15:44         -3.82  -182.280571    2      1      
iter:  14  12:15:45         -3.83  -182.279997    2      1      
iter:  15  12:15:46         -4.39  -182.280084    2      1      

Converged after 15 iterations.

Dipole moment: (0.138532, -0.597606, 0.111766) |e|*Ang

Energy contributions relative to reference atoms: (reference = -24663.074771)

Kinetic:       +113.918453
Potential:     -121.749148
External:        +0.000000
XC:            -177.360866
Entropy (-ST):   -0.149160
Local:           +2.986057
--------------------------
Free energy:   -182.354664
Extrapolated:  -182.280084

Fermi level: -4.39774

 Band  Eigenvalues  Occupancy
    0    -23.74676    2.00000
    1    -21.87423    2.00000
    2    -21.64479    2.00000
    3    -20.78287    2.00000
    4    -20.71422    2.00000
    5    -19.95220    2.00000
    6    -19.64421    2.00000
    7    -19.51482    2.00000
    8    -18.96030    2.00000
    9    -18.31772    2.00000
   10    -17.57595    2.00000
   11    -16.72342    2.00000
   12    -16.43771    2.00000
   13    -16.27776    2.00000
   14    -15.52210    2.00000
   15    -15.26099    2.00000
   16    -14.09247    2.00000
   17    -14.07348    2.00000
   18    -12.89562    2.00000
   19    -12.63997    2.00000
   20    -12.49424    2.00000
   21    -12.04602    2.00000
   22    -11.61484    2.00000
   23    -11.56920    2.00000
   24    -11.10332    2.00000
   25    -10.85229    2.00000
   26    -10.77172    2.00000
   27    -10.14101    2.00000
   28     -9.89762    2.00000
   29     -9.71074    2.00000
   30     -9.59289    2.00000
   31     -9.41341    2.00000
   32     -8.75604    2.00000
   33     -8.56533    2.00000
   34     -8.51798    2.00000
   35     -7.82758    2.00000
   36     -7.36067    2.00000
   37     -7.27385    2.00000
   38     -7.13292    2.00000
   39     -7.07119    2.00000
   40     -6.91398    2.00000
   41     -6.69106    2.00000
   42     -6.25649    2.00000
   43     -6.19063    2.00000
   44     -5.85385    2.00000
   45     -5.21066    1.99941
   46     -4.88358    1.98459
   47     -4.60971    1.78561
   48     -4.19386    0.23037
   49     -3.13628    0.00001
   50     -3.12785    0.00001
   51     -3.01709    0.00000
   52     -2.79256    0.00000
   53     -2.65226    0.00000
   54     -2.29687    0.00000
   55     -1.92667    0.00000
   56     -1.30975    0.00000
   57     -1.27720    0.00000
   58     -0.57898    0.00000
   59     -0.08004    0.00000
   60      0.02450    0.00000
   61      0.67190    0.00000
   62      1.35205    0.00000
   63      2.24466    0.00000
   64      2.31607    0.00000
   65      3.30776    0.00000
   66      3.68442    0.00000
   67      3.75338    0.00000
   68      4.43074    0.00000
   69      4.47940    0.00000
   70      5.21857    0.00000
   71      5.99259    0.00000
   72      6.14212    0.00000
   73      6.56515    0.00000
   74      6.56591    0.00000
   75      7.07940    0.00000
   76      7.34770    0.00000
   77      7.47332    0.00000
   78      7.70654    0.00000
   79      7.88917    0.00000
   80      8.03227    0.00000
   81      8.17655    0.00000
   82      8.69713    0.00000
   83      8.74016    0.00000
   84      8.93756    0.00000
   85      9.22541    0.00000
   86      9.34316    0.00000
   87      9.41366    0.00000
   88      9.46050    0.00000
   89      9.51409    0.00000
   90      9.58956    0.00000
   91      9.59823    0.00000
   92     10.09679    0.00000
   93     10.16424    0.00000
   94     10.23700    0.00000
   95     10.28451    0.00000
   96     10.40740    0.00000
   97     10.43958    0.00000


Forces in eV/Ang:
  0 C    -0.08259   -0.14232   -0.06113
  1 C     0.26351    0.60221    0.11660
  2 C     0.58754   -0.34526   -0.06600
  3 C    -0.47072    0.33518    0.22754
  4 C    -0.18974   -0.30004    0.13898
  5 C     0.73364   -0.56942   -0.24455
  6 C     0.51570   -0.06171   -0.03078
  7 C     0.10746    0.54113    0.27028
  8 C     1.09147    0.37035   -0.83916
  9 C    -0.01236   -0.19371   -0.24134
 10 C     0.70899    0.26230   -0.32684
 11 C    -4.35712   -0.57251    1.37611
 12 C     0.07961   -0.12790   -0.13168
 13 C    -0.34125    0.46265    0.28589
 14 C    -0.38479   -0.54123    0.20682
 15 C     0.38061    0.50127   -0.02341
 16 C     0.32420   -0.20661   -0.01109
 17 C    -0.54038   -0.78336    0.11047
 18 C    -0.39294   -0.22909    0.20126
 19 C    -0.14157    0.45231    0.36312
 20 C    -1.42049   -0.09507   -0.12405
 21 C    -0.06450   -0.19574   -0.22772
 22 C    -0.80542    0.00095    0.11079
 23 C     4.39883    0.97740   -1.10651

System changes: positions 

Initializing position-dependent things.

Density initialized from wave functions
           .--------------------------------------.  
          /|                                      |  
         / |                                      |  
        /  |                                      |  
       /   |                                      |  
      /    |                                      |  
     /     |                                      |  
    /      |                                      |  
   /       |                                      |  
  /        |    C      C  C                       |  
 *         |  C     C       C                     |  
 |         | C       C    C    C                  |  
 |         .---C---C-C-----C----C-----------------.  
 |        /    C     C  C     C  C               /   
 |       /       C      C  C  C                 /    
 |      /                                      /     
 |     /                                      /      
 |    /                                      /       
 |   /                                      /        
 |  /                                      /         
 | /                                      /          
 |/                                      /           
 *--------------------------------------*            

Positions:
   0 C      3.243558    6.172636    5.660543
   1 C      3.480877    7.472893    5.787693
   2 C      3.989743    8.665931    5.904440
   3 C      4.688820    4.070516    5.444041
   4 C      4.456030    5.451163    5.530808
   5 C      5.739055    3.329158    5.314904
   6 C      5.439933    8.726182    5.802576
   7 C      5.828554    6.171981    5.473914
   8 C      6.291283    7.555586    5.508197
   9 C      7.013325    3.880704    5.233607
  10 C      6.303687    9.844996    5.835509
  11 C      6.898133    5.299286    5.339810
  12 C     11.020903    7.560074    3.455578
  13 C     10.478397    8.720544    3.805109
  14 C      9.748800    9.692994    4.272633
  15 C     10.431496    5.095937    3.816320
  16 C     10.217887    6.479988    3.898296
  17 C      9.764694    4.048585    4.173879
  18 C      8.520107    9.275822    4.930140
  19 C      8.861542    6.712366    4.614547
  20 C      8.066408    7.871994    5.004989
  21 C      8.529091    4.151467    4.804131
  22 C      7.487887   10.057076    5.500339
  23 C      8.218907    5.535372    4.965540

Unit cell:
           periodic     x           y           z      points  spacing
  1. axis:    yes   16.000000    0.000000    0.000000    80     0.2000
  2. axis:    yes    0.000000   16.000000    0.000000    80     0.2000
  3. axis:    yes    0.000000    0.000000   10.000000    48     0.2083

Effective grid spacing dv^(1/3) = 0.2027

                     log10-error:    total        iterations:
           time      wfs    density  energy       fermi  poisson
iter:   1  12:15:48          +inf  -182.767022    3      5      
iter:   2  12:15:48         -1.95  -182.705460    2      2      
iter:   3  12:15:49         -2.07  -182.638473    2      2      
iter:   4  12:15:49         -2.41  -182.628929    2      2      
iter:   5  12:15:50         -2.63  -182.627429    2      2      
iter:   6  12:15:51         -2.73  -182.629753    2      2      
iter:   7  12:15:51         -3.05  -182.627834    2      2      
iter:   8  12:15:52         -3.38  -182.627673    2      1      
iter:   9  12:15:52         -3.46  -182.627241    2      1      
iter:  10  12:15:53         -3.67  -182.627196    2      1      
iter:  11  12:15:54         -3.77  -182.627178    2      1      
iter:  12  12:15:54         -3.96  -182.627396    1      1      
iter:  13  12:15:55         -4.07  -182.627512    1      1      

Converged after 13 iterations.

Dipole moment: (0.132683, -0.551445, 0.123980) |e|*Ang

Energy contributions relative to reference atoms: (reference = -24663.074771)

Kinetic:       +109.908187
Potential:     -118.667956
External:        +0.000000
XC:            -176.758291
Entropy (-ST):   -0.153508
Local:           +2.967302
--------------------------
Free energy:   -182.704266
Extrapolated:  -182.627512

Fermi level: -4.38811

 Band  Eigenvalues  Occupancy
    0    -23.55450    2.00000
    1    -21.84143    2.00000
    2    -21.69252    2.00000
    3    -20.75763    2.00000
    4    -20.69880    2.00000
    5    -19.92599    2.00000
    6    -19.60565    2.00000
    7    -19.50046    2.00000
    8    -18.93368    2.00000
    9    -18.33607    2.00000
   10    -17.61154    2.00000
   11    -16.76546    2.00000
   12    -16.45821    2.00000
   13    -16.27235    2.00000
   14    -15.46939    2.00000
   15    -15.08735    2.00000
   16    -14.17626    2.00000
   17    -14.04861    2.00000
   18    -12.90045    2.00000
   19    -12.61595    2.00000
   20    -12.50774    2.00000
   21    -11.98310    2.00000
   22    -11.60578    2.00000
   23    -11.56323    2.00000
   24    -11.00472    2.00000
   25    -10.88277    2.00000
   26    -10.77886    2.00000
   27    -10.13675    2.00000
   28     -9.73831    2.00000
   29     -9.68059    2.00000
   30     -9.62004    2.00000
   31     -9.51693    2.00000
   32     -8.97183    2.00000
   33     -8.54693    2.00000
   34     -8.50594    2.00000
   35     -7.80848    2.00000
   36     -7.34726    2.00000
   37     -7.24862    2.00000
   38     -7.11995    2.00000
   39     -7.05115    2.00000
   40     -6.87611    2.00000
   41     -6.62349    2.00000
   42     -6.27152    2.00000
   43     -6.16301    2.00000
   44     -5.88660    2.00000
   45     -5.28400    1.99974
   46     -4.84368    1.97920
   47     -4.59875    1.78305
   48     -4.18790    0.23798
   49     -3.21492    0.00002
   50     -3.17792    0.00001
   51     -3.09709    0.00000
   52     -2.77184    0.00000
   53     -2.59949    0.00000
   54     -2.22546    0.00000
   55     -1.82421    0.00000
   56     -1.32605    0.00000
   57     -1.30106    0.00000
   58     -0.34756    0.00000
   59     -0.10878    0.00000
   60      0.08313    0.00000
   61      0.72202    0.00000
   62      1.34596    0.00000
   63      2.25362    0.00000
   64      2.28220    0.00000
   65      3.27819    0.00000
   66      3.66145    0.00000
   67      3.83073    0.00000
   68      4.11569    0.00000
   69      4.32694    0.00000
   70      5.11792    0.00000
   71      5.71634    0.00000
   72      6.44278    0.00000
   73      6.55289    0.00000
   74      6.66982    0.00000
   75      7.04111    0.00000
   76      7.34798    0.00000
   77      7.51375    0.00000
   78      7.74592    0.00000
   79      7.91826    0.00000
   80      8.02174    0.00000
   81      8.21450    0.00000
   82      8.72551    0.00000
   83      8.73845    0.00000
   84      8.97943    0.00000
   85      9.19354    0.00000
   86      9.30126    0.00000
   87      9.41318    0.00000
   88      9.45854    0.00000
   89      9.50620    0.00000
   90      9.56280    0.00000
   91      9.60519    0.00000
   92     10.13844    0.00000
   93     10.15629    0.00000
   94     10.24896    0.00000
   95     10.28177    0.00000
   96     10.37165    0.00000
   97     10.40621    0.00000


Forces in eV/Ang:
  0 C    -0.16362    0.50875    0.03331
  1 C     0.03870   -0.53830   -0.01399
  2 C     0.81350    0.01269    0.00325
  3 C     0.60077   -0.68188    0.03713
  4 C    -0.05621    0.25843    0.17841
  5 C    -0.64348    0.11391   -0.08311
  6 C     0.36174   -0.08319   -0.15459
  7 C     0.08954    0.09572    0.12137
  8 C     1.07452    0.22376   -0.71090
  9 C     0.20720   -0.04700   -0.24214
 10 C    -0.47617    0.26228    0.09778
 11 C    -0.82307    0.14251    0.47098
 12 C    -0.01725    0.51812   -0.02980
 13 C     0.12293   -0.52866   -0.04800
 14 C    -0.63104   -0.23788    0.37692
 15 C    -0.23530   -0.84182    0.27795
 16 C     0.05658    0.27901    0.14829
 17 C     0.41259    0.30169   -0.37622
 18 C    -0.33101   -0.20353    0.03797
 19 C    -0.01705    0.11663    0.14589
 20 C    -1.30156   -0.20313   -0.03094
 21 C    -0.25040   -0.14148   -0.10376
 22 C     0.35781    0.40062   -0.14505
 23 C     0.86097    0.41075   -0.01182

System changes: positions 

Initializing position-dependent things.

Density initialized from wave functions
           .--------------------------------------.  
          /|                                      |  
         / |                                      |  
        /  |                                      |  
       /   |                                      |  
      /    |                                      |  
     /     |                                      |  
    /      |                                      |  
   /       |                                      |  
  /        |           C  C                       |  
 *         |  C C   C       C                     |  
 |         | C       C   C     C                  |  
 |         .---C---C-C-----C----C-----------------.  
 |        /    C     C   C    C  C               /   
 |       /       C      C  C  C                 /    
 |      /                                      /     
 |     /                                      /      
 |    /                                      /       
 |   /                                      /        
 |  /                                      /         
 | /                                      /          
 |/                                      /           
 *--------------------------------------*            

Positions:
   0 C      3.240015    6.179487    5.660241
   1 C      3.483973    7.470147    5.788839
   2 C      4.010501    8.663086    5.903747
   3 C      4.695696    4.060879    5.447424
   4 C      4.451115    5.451021    5.535481
   5 C      5.734480    3.325446    5.310763
   6 C      5.455588    8.725212    5.799813
   7 C      5.829039    6.181861    5.480071
   8 C      6.322491    7.566137    5.485760
   9 C      7.016233    3.880807    5.226609
  10 C      6.304614    9.850527    5.832357
  11 C      6.879251    5.298223    5.351342
  12 C     11.021366    7.567152    3.453473
  13 C     10.477211    8.716539    3.807299
  14 C      9.733185    9.683446    4.281654
  15 C     10.430901    5.084917    3.821737
  16 C     10.224290    6.481858    3.899749
  17 C      9.766889    4.046246    4.167816
  18 C      8.506849    9.269671    4.935338
  19 C      8.861273    6.722252    4.620977
  20 C      8.026539    7.869618    5.002800
  21 C      8.523379    4.149889    4.799703
  22 C      7.484049   10.061751    5.498565
  23 C      8.240367    5.540988    4.965526

Unit cell:
           periodic     x           y           z      points  spacing
  1. axis:    yes   16.000000    0.000000    0.000000    80     0.2000
  2. axis:    yes    0.000000   16.000000    0.000000    80     0.2000
  3. axis:    yes    0.000000    0.000000   10.000000    48     0.2083

Effective grid spacing dv^(1/3) = 0.2027

                     log10-error:    total        iterations:
           time      wfs    density  energy       fermi  poisson
iter:   1  12:15:57          +inf  -182.840726    3      5      
iter:   2  12:15:57         -2.15  -182.817126    2      2      
iter:   3  12:15:58         -2.25  -182.784660    2      2      
iter:   4  12:15:59         -2.57  -182.779503    2      2      
iter:   5  12:15:59         -2.81  -182.777661    2      1      
iter:   6  12:16:00         -2.91  -182.780990    2      2      
iter:   7  12:16:00         -3.21  -182.780192    2      1      
iter:   8  12:16:01         -3.37  -182.778883    2      1      
iter:   9  12:16:02         -3.55  -182.779854    2      1      
iter:  10  12:16:02         -3.63  -182.779989    2      1      
iter:  11  12:16:03         -3.72  -182.779424    2      1      
iter:  12  12:16:03         -4.03  -182.780072    2      1      

Converged after 12 iterations.

Dipole moment: (0.128877, -0.533294, 0.126876) |e|*Ang

Energy contributions relative to reference atoms: (reference = -24663.074771)

Kinetic:       +108.219168
Potential:     -117.332671
External:        +0.000000
XC:            -176.564134
Entropy (-ST):   -0.172394
Local:           +2.983762
--------------------------
Free energy:   -182.866269
Extrapolated:  -182.780072

Fermi level: -4.41061

 Band  Eigenvalues  Occupancy
    0    -23.42050    2.00000
    1    -21.80686    2.00000
    2    -21.73082    2.00000
    3    -20.73071    2.00000
    4    -20.68384    2.00000
    5    -19.93521    2.00000
    6    -19.59193    2.00000
    7    -19.50865    2.00000
    8    -18.92217    2.00000
    9    -18.33665    2.00000
   10    -17.56164    2.00000
   11    -16.80656    2.00000
   12    -16.42274    2.00000
   13    -16.25128    2.00000
   14    -15.47643    2.00000
   15    -15.01229    2.00000
   16    -14.20851    2.00000
   17    -14.06007    2.00000
   18    -12.91987    2.00000
   19    -12.58594    2.00000
   20    -12.49404    2.00000
   21    -11.91693    2.00000
   22    -11.62104    2.00000
   23    -11.49876    2.00000
   24    -10.95343    2.00000
   25    -10.88168    2.00000
   26    -10.78120    2.00000
   27    -10.18121    2.00000
   28     -9.77897    2.00000
   29     -9.65002    2.00000
   30     -9.57350    2.00000
   31     -9.51270    2.00000
   32     -9.05404    2.00000
   33     -8.53175    2.00000
   34     -8.49584    2.00000
   35     -7.81560    2.00000
   36     -7.34325    2.00000
   37     -7.22151    2.00000
   38     -7.11487    2.00000
   39     -7.05143    2.00000
   40     -6.85732    2.00000
   41     -6.64297    2.00000
   42     -6.29582    2.00000
   43     -6.17039    2.00000
   44     -5.91848    2.00000
   45     -5.27315    1.99964
   46     -4.83457    1.97158
   47     -4.60399    1.74735
   48     -4.22966    0.28141
   49     -3.14779    0.00001
   50     -3.14244    0.00001
   51     -3.04361    0.00000
   52     -2.80790    0.00000
   53     -2.57599    0.00000
   54     -2.21661    0.00000
   55     -1.74277    0.00000
   56     -1.32778    0.00000
   57     -1.31566    0.00000
   58     -0.26664    0.00000
   59     -0.13912    0.00000
   60      0.31970    0.00000
   61      0.93463    0.00000
   62      1.38204    0.00000
   63      2.25781    0.00000
   64      2.27041    0.00000
   65      3.19760    0.00000
   66      3.61873    0.00000
   67      3.85950    0.00000
   68      3.88034    0.00000
   69      4.21496    0.00000
   70      5.05369    0.00000
   71      5.55460    0.00000
   72      6.51346    0.00000
   73      6.61260    0.00000
   74      6.67977    0.00000
   75      6.95549    0.00000
   76      7.24050    0.00000
   77      7.34512    0.00000
   78      7.72889    0.00000
   79      7.92967    0.00000
   80      8.07350    0.00000
   81      8.26024    0.00000
   82      8.75784    0.00000
   83      8.78004    0.00000
   84      9.00958    0.00000
   85      9.17205    0.00000
   86      9.26103    0.00000
   87      9.38058    0.00000
   88      9.45465    0.00000
   89      9.51679    0.00000
   90      9.58694    0.00000
   91      9.61646    0.00000
   92     10.09801    0.00000
   93     10.16269    0.00000
   94     10.24429    0.00000
   95     10.31170    0.00000
   96     10.32927    0.00000
   97     10.36691    0.00000


Forces in eV/Ang:
  0 C    -0.12301    0.00407   -0.00118
  1 C     0.30301    0.24420    0.05951
  2 C     0.49828   -0.38157   -0.03143
  3 C    -0.16389    0.13759    0.12158
  4 C     0.08309    0.09845    0.14917
  5 C     0.13209   -0.17287   -0.16583
  6 C     0.33928   -0.10028   -0.23211
  7 C    -0.08138   -0.07503    0.03933
  8 C     0.92836    0.14130   -0.59698
  9 C    -0.02465    0.07078   -0.16856
 10 C    -0.80037    0.30324    0.25643
 11 C     1.09856    0.15701   -0.02134
 12 C     0.09726    0.04572   -0.08277
 13 C    -0.27370    0.11327    0.20483
 14 C    -0.29996   -0.52318    0.17832
 15 C     0.13344    0.16496    0.03909
 16 C    -0.02971    0.05797    0.19695
 17 C    -0.12874   -0.20497   -0.09449
 18 C    -0.38915   -0.23731   -0.02075
 19 C     0.11192   -0.00718   -0.01371
 20 C    -1.07870   -0.19686   -0.01514
 21 C    -0.09155    0.04577   -0.13389
 22 C     0.68714    0.55406   -0.17877
 23 C    -0.92978   -0.17827    0.54579

System changes: positions 

Initializing position-dependent things.

Density initialized from wave functions
           .--------------------------------------.  
          /|                                      |  
         / |                                      |  
        /  |                                      |  
       /   |                                      |  
      /    |                                      |  
     /     |                                      |  
    /      |                                      |  
   /       |                                      |  
  /        |           C  C                       |  
 *         |  C C   C      C                      |  
 |         | C       C   C     C                  |  
 |         .---C---C-C-----C----C-----------------.  
 |        /    C     C   C    C  C               /   
 |       /       C      C  C  C                 /    
 |      /                                      /     
 |     /                                      /      
 |    /                                      /       
 |   /                                      /        
 |  /                                      /         
 | /                                      /          
 |/                                      /           
 *--------------------------------------*            

Positions:
   0 C      3.236578    6.182630    5.659882
   1 C      3.490247    7.473359    5.790578
   2 C      4.029249    8.655285    5.902802
   3 C      4.695660    4.059056    5.451566
   4 C      4.448489    5.450955    5.540403
   5 C      5.736768    3.319910    5.305511
   6 C      5.471596    8.723919    5.794880
   7 C      5.829502    6.188662    5.484568
   8 C      6.354583    7.574044    5.463231
   9 C      7.016475    3.881787    5.220083
  10 C      6.298080    9.858628    5.832764
  11 C      6.869652    5.296413    5.361694
  12 C     11.022932    7.570935    3.451003
  13 C     10.472222    8.716976    3.811863
  14 C      9.720299    9.669857    4.289125
  15 C     10.433423    5.083135    3.825108
  16 C     10.228806    6.482772    3.902891
  17 C      9.763962    4.040118    4.163977
  18 C      8.491635    9.262670    4.939217
  19 C      8.861108    6.729477    4.625722
  20 C      7.987049    7.864916    5.000790
  21 C      8.519595    4.149885    4.794619
  22 C      7.487254   10.071383    5.496011
  23 C      8.254065    5.543511    4.969101

Unit cell:
           periodic     x           y           z      points  spacing
  1. axis:    yes   16.000000    0.000000    0.000000    80     0.2000
  2. axis:    yes    0.000000   16.000000    0.000000    80     0.2000
  3. axis:    yes    0.000000    0.000000   10.000000    48     0.2083

Effective grid spacing dv^(1/3) = 0.2027

                     log10-error:    total        iterations:
           time      wfs    density  energy       fermi  poisson
iter:   1  12:16:05          +inf  -182.928169    3      5      
iter:   2  12:16:06         -2.21  -182.907622    3      2      
iter:   3  12:16:07         -2.32  -182.880452    3      2      
iter:   4  12:16:07         -2.62  -182.876638    3      2      
iter:   5  12:16:08         -2.91  -182.876617    2      1      
iter:   6  12:16:08         -2.99  -182.877063    2      2      
iter:   7  12:16:09         -3.34  -182.876361    2      1      
iter:   8  12:16:10         -3.49  -182.875901    2      1      
iter:   9  12:16:10         -3.67  -182.875789    2      1      
iter:  10  12:16:11         -3.74  -182.875681    2      1      
iter:  11  12:16:11         -3.83  -182.875948    2      1      
iter:  12  12:16:12         -3.95  -182.876080    2      1      
iter:  13  12:16:12         -4.05  -182.875695    2      1      

Converged after 13 iterations.

Dipole moment: (0.124143, -0.502610, 0.130373) |e|*Ang

Energy contributions relative to reference atoms: (reference = -24663.074771)

Kinetic:       +105.540881
Potential:     -115.175544
External:        +0.000000
XC:            -176.126159
Entropy (-ST):   -0.187606
Local:           +2.978930
--------------------------
Free energy:   -182.969498
Extrapolated:  -182.875695

Fermi level: -4.43559

 Band  Eigenvalues  Occupancy
    0    -23.34150    2.00000
    1    -21.76891    2.00000
    2    -21.76749    2.00000
    3    -20.71164    2.00000
    4    -20.66637    2.00000
    5    -19.92716    2.00000
    6    -19.57480    2.00000
    7    -19.49786    2.00000
    8    -18.88524    2.00000
    9    -18.31558    2.00000
   10    -17.54660    2.00000
   11    -16.87469    2.00000
   12    -16.41364    2.00000
   13    -16.21450    2.00000
   14    -15.43365    2.00000
   15    -14.95480    2.00000
   16    -14.24811    2.00000
   17    -14.04092    2.00000
   18    -12.92479    2.00000
   19    -12.57769    2.00000
   20    -12.47576    2.00000
   21    -11.88740    2.00000
   22    -11.61470    2.00000
   23    -11.45586    2.00000
   24    -10.93723    2.00000
   25    -10.85885    2.00000
   26    -10.76468    2.00000
   27    -10.28611    2.00000
   28     -9.83806    2.00000
   29     -9.61787    2.00000
   30     -9.59279    2.00000
   31     -9.47000    2.00000
   32     -9.02585    2.00000
   33     -8.51998    2.00000
   34     -8.48455    2.00000
   35     -7.80449    2.00000
   36     -7.31482    2.00000
   37     -7.20994    2.00000
   38     -7.11624    2.00000
   39     -7.05645    2.00000
   40     -6.82613    2.00000
   41     -6.61916    2.00000
   42     -6.27747    2.00000
   43     -6.13043    2.00000
   44     -5.93002    2.00000
   45     -5.27975    1.99957
   46     -4.82429    1.95981
   47     -4.61895    1.72439
   48     -4.26835    0.31622
   49     -3.17487    0.00001
   50     -3.16746    0.00001
   51     -3.05000    0.00000
   52     -2.79552    0.00000
   53     -2.55122    0.00000
   54     -2.28206    0.00000
   55     -1.70406    0.00000
   56     -1.32510    0.00000
   57     -1.31915    0.00000
   58     -0.23478    0.00000
   59     -0.21168    0.00000
   60      0.47328    0.00000
   61      1.29094    0.00000
   62      1.43552    0.00000
   63      2.23231    0.00000
   64      2.26846    0.00000
   65      3.06137    0.00000
   66      3.58694    0.00000
   67      3.74597    0.00000
   68      3.85940    0.00000
   69      4.15767    0.00000
   70      5.01968    0.00000
   71      5.46971    0.00000
   72      6.44401    0.00000
   73      6.69140    0.00000
   74      6.71514    0.00000
   75      6.85046    0.00000
   76      7.21962    0.00000
   77      7.31088    0.00000
   78      7.80192    0.00000
   79      7.93461    0.00000
   80      8.11869    0.00000
   81      8.28769    0.00000
   82      8.76335    0.00000
   83      8.81454    0.00000
   84      9.03560    0.00000
   85      9.13351    0.00000
   86      9.22689    0.00000
   87      9.38508    0.00000
   88      9.45369    0.00000
   89      9.52584    0.00000
   90      9.60574    0.00000
   91      9.62621    0.00000
   92     10.08130    0.00000
   93     10.18749    0.00000
   94     10.24383    0.00000
   95     10.27951    0.00000
   96     10.31288    0.00000
   97     10.36564    0.00000


Forces in eV/Ang:
  0 C    -0.10584   -0.03216    0.01510
  1 C     0.24778    0.06237    0.04291
  2 C     0.54245   -0.28141   -0.02885
  3 C     0.05588    0.03049    0.06158
  4 C     0.14511    0.16590    0.12022
  5 C    -0.15933    0.05886   -0.11922
  6 C     0.29968   -0.05065   -0.28435
  7 C     0.04917   -0.18096   -0.03558
  8 C     0.70629    0.07861   -0.44840
  9 C    -0.03820    0.06174   -0.13778
 10 C     0.05549    0.51363    0.06793
 11 C     1.95107    0.31612   -0.27172
 12 C     0.08360   -0.02393   -0.04169
 13 C    -0.19040   -0.00133    0.13953
 14 C    -0.36336   -0.45098    0.21330
 15 C    -0.01638    0.03372    0.08240
 16 C    -0.11260    0.10086    0.20223
 17 C     0.04157    0.07917   -0.16938
 18 C    -0.33178   -0.19075   -0.08721
 19 C     0.02073   -0.21813   -0.03826
 20 C    -0.80192   -0.19736   -0.02190
 21 C    -0.08670    0.05351   -0.12445
 22 C    -0.16623    0.48675    0.11038
 23 C    -1.80755   -0.33042    0.78066

System changes: positions 

Initializing position-dependent things.

Density initialized from wave functions
           .--------------------------------------.  
          /|                                      |  
         / |                                      |  
        /  |                                      |  
       /   |                                      |  
      /    |                                      |  
     /     |                                      |  
    /      |                                      |  
   /       |                                      |  
  /        |           C  C                       |  
 *         |  C C   C      C                      |  
 |         | C       C   C     C                  |  
 |         .---C---C-C-----C----C-----------------.  
 |        /    C     C   C    C  C               /   
 |       /       C      C  C  C                 /    
 |      /                                      /     
 |     /                                      /      
 |    /                                      /       
 |   /                                      /        
 |  /                                      /         
 | /                                      /          
 |/                                      /           
 *--------------------------------------*            

Positions:
   0 C      3.232877    6.184914    5.659799
   1 C      3.497340    7.475467    5.792347
   2 C      4.050381    8.646766    5.901751
   3 C      4.697203    4.057370    5.455332
   4 C      4.447812    5.452587    5.545511
   5 C      5.736376    3.316966    5.300157
   6 C      5.487938    8.722967    5.787901
   7 C      5.832310    6.192676    5.487648
   8 C      6.386975    7.580646    5.440710
   9 C      7.016071    3.882288    5.213467
  10 C      6.297986    9.871199    5.832533
  11 C      6.866182    5.296483    5.371363
  12 C     11.024856    7.573613    3.448789
  13 C     10.466908    8.716583    3.816541
  14 C      9.705646    9.654726    4.297627
  15 C     10.434662    5.081420    3.828917
  16 C     10.231311    6.484569    3.907343
  17 C      9.762211    4.036913    4.159071
  18 C      8.475754    9.255499    4.941586
  19 C      8.859495    6.732520    4.629947
  20 C      7.947878    7.858681    4.998665
  21 C      8.516045    4.149687    4.789059
  22 C      7.483536   10.083389    5.496418
  23 C      8.261763    5.545879    4.975322

Unit cell:
           periodic     x           y           z      points  spacing
  1. axis:    yes   16.000000    0.000000    0.000000    80     0.2000
  2. axis:    yes    0.000000   16.000000    0.000000    80     0.2000
  3. axis:    yes    0.000000    0.000000   10.000000    48     0.2083

Effective grid spacing dv^(1/3) = 0.2027

                     log10-error:    total        iterations:
           time      wfs    density  energy       fermi  poisson
iter:   1  12:16:15          +inf  -183.003519    3      5      
iter:   2  12:16:15         -2.22  -182.982832    2      2      
iter:   3  12:16:16         -2.33  -182.954287    3      2      
iter:   4  12:16:16         -2.64  -182.952401    3      2      
iter:   5  12:16:17         -2.91  -182.951731    2      1      
iter:   6  12:16:18         -3.01  -182.952012    2      2      
iter:   7  12:16:18         -3.16  -182.951574    2      2      
iter:   8  12:16:19         -3.45  -182.951481    2      1      
iter:   9  12:16:19         -3.56  -182.951444    2      1      
iter:  10  12:16:20         -3.75  -182.951855    1      1      
iter:  11  12:16:20         -3.81  -182.951605    2      1      
iter:  12  12:16:21         -3.95  -182.951478    2      1      
iter:  13  12:16:22         -3.99  -182.951781    2      1      
iter:  14  12:16:22         -4.17  -182.951809    2      1      

Converged after 14 iterations.

Dipole moment: (0.118345, -0.469732, 0.131996) |e|*Ang

Energy contributions relative to reference atoms: (reference = -24663.074771)

Kinetic:       +104.621786
Potential:     -114.416731
External:        +0.000000
XC:            -176.042163
Entropy (-ST):   -0.206316
Local:           +2.988456
--------------------------
Free energy:   -183.054967
Extrapolated:  -182.951809

Fermi level: -4.46959

 Band  Eigenvalues  Occupancy
    0    -23.28609    2.00000
    1    -21.79808    2.00000
    2    -21.72958    2.00000
    3    -20.69850    2.00000
    4    -20.64195    2.00000
    5    -19.93651    2.00000
    6    -19.56693    2.00000
    7    -19.46876    2.00000
    8    -18.84294    2.00000
    9    -18.32415    2.00000
   10    -17.50744    2.00000
   11    -16.96687    2.00000
   12    -16.38471    2.00000
   13    -16.20185    2.00000
   14    -15.37292    2.00000
   15    -14.93303    2.00000
   16    -14.29493    2.00000
   17    -14.00362    2.00000
   18    -12.93443    2.00000
   19    -12.58227    2.00000
   20    -12.44654    2.00000
   21    -11.86310    2.00000
   22    -11.59497    2.00000
   23    -11.39649    2.00000
   24    -10.92991    2.00000
   25    -10.84584    2.00000
   26    -10.73553    2.00000
   27    -10.44478    2.00000
   28     -9.84914    2.00000
   29     -9.62040    2.00000
   30     -9.58522    2.00000
   31     -9.37736    2.00000
   32     -8.98561    2.00000
   33     -8.51293    2.00000
   34     -8.47048    2.00000
   35     -7.80563    2.00000
   36     -7.27158    2.00000
   37     -7.20610    2.00000
   38     -7.11489    2.00000
   39     -7.06639    2.00000
   40     -6.79239    2.00000
   41     -6.60402    2.00000
   42     -6.29677    2.00000
   43     -6.11263    2.00000
   44     -5.97812    2.00000
   45     -5.26019    1.99926
   46     -4.82186    1.94265
   47     -4.64173    1.69663
   48     -4.31845    0.36145
   49     -3.18199    0.00001
   50     -3.17179    0.00000
   51     -3.03188    0.00000
   52     -2.80104    0.00000
   53     -2.51172    0.00000
   54     -2.25281    0.00000
   55     -1.68758    0.00000
   56     -1.33988    0.00000
   57     -1.32061    0.00000
   58     -0.27478    0.00000
   59     -0.19350    0.00000
   60      0.56073    0.00000
   61      1.41683    0.00000
   62      1.86414    0.00000
   63      2.21409    0.00000
   64      2.28321    0.00000
   65      2.86066    0.00000
   66      3.55110    0.00000
   67      3.69268    0.00000
   68      3.88344    0.00000
   69      4.14318    0.00000
   70      5.00593    0.00000
   71      5.51797    0.00000
   72      6.33430    0.00000
   73      6.71704    0.00000
   74      6.75152    0.00000
   75      6.76331    0.00000
   76      7.24907    0.00000
   77      7.27934    0.00000
   78      7.75325    0.00000
   79      7.94542    0.00000
   80      8.20180    0.00000
   81      8.31254    0.00000
   82      8.74798    0.00000
   83      8.87362    0.00000
   84      9.05779    0.00000
   85      9.10406    0.00000
   86      9.20724    0.00000
   87      9.39140    0.00000
   88      9.45639    0.00000
   89      9.53708    0.00000
   90      9.63241    0.00000
   91      9.66514    0.00000
   92     10.08519    0.00000
   93     10.20392    0.00000
   94     10.22736    0.00000
   95     10.24993    0.00000
   96     10.30951    0.00000
   97     10.36520    0.00000


Forces in eV/Ang:
  0 C    -0.05154   -0.05786    0.02585
  1 C     0.17105   -0.07341    0.03119
  2 C     0.55183   -0.21182   -0.04786
  3 C     0.01586    0.15409    0.03335
  4 C     0.20543    0.15207    0.09950
  5 C    -0.13686    0.12644   -0.09932
  6 C     0.40184    0.08900   -0.28966
  7 C     0.14623   -0.18387   -0.09897
  8 C     0.17091   -0.02917   -0.23188
  9 C    -0.05952    0.06696   -0.09770
 10 C    -0.34522    0.33109    0.16483
 11 C     2.30355    0.29930   -0.39351
 12 C     0.06562   -0.05739   -0.00418
 13 C    -0.10499   -0.11307    0.08938
 14 C    -0.38876   -0.41405    0.22414
 15 C    -0.04328    0.13211    0.06300
 16 C    -0.17337    0.07772    0.17764
 17 C     0.02130    0.15190   -0.13925
 18 C    -0.47826   -0.05557   -0.03489
 19 C    -0.07546   -0.26787   -0.05463
 20 C    -0.29185   -0.08861   -0.10656
 21 C    -0.05532    0.07190   -0.11925
 22 C     0.25813    0.43368   -0.02759
 23 C    -2.14304   -0.50249    0.87592

System changes: positions 

Initializing position-dependent things.

Density initialized from wave functions
           .--------------------------------------.  
          /|                                      |  
         / |                                      |  
        /  |                                      |  
       /   |                                      |  
      /    |                                      |  
     /     |                                      |  
    /      |                                      |  
   /       |                                      |  
  /        |           C  C                       |  
 *         |  C C   C      C                      |  
 |         | C       C   C     C                  |  
 |         .---C---C-C-----C----C-----------------.  
 |        /    C     C   C    C  C               /   
 |       /       C      C  C  C                 /    
 |      /                                      /     
 |     /                                      /      
 |    /                                      /       
 |   /                                      /        
 |  /                                      /         
 | /                                      /          
 |/                                      /           
 *--------------------------------------*            

Positions:
   0 C      3.229087    6.186673    5.660221
   1 C      3.506114    7.475194    5.794380
   2 C      4.078246    8.635453    5.899978
   3 C      4.697616    4.059643    5.459341
   4 C      4.450356    5.456242    5.551860
   5 C      5.736051    3.315827    5.293484
   6 C      5.509929    8.724023    5.776874
   7 C      5.839576    6.194610    5.488587
   8 C      6.417843    7.584342    5.416617
   9 C      7.014395    3.882686    5.205924
  10 C      6.292489    9.888339    5.835018
  11 C      6.871290    5.297293    5.381652
  12 C     11.027268    7.575695    3.446983
  13 C     10.460964    8.713443    3.821913
  14 C      9.686361    9.634187    4.308800
  15 C     10.435610    5.083367    3.833022
  16 C     10.231040    6.487356    3.914096
  17 C      9.759285    4.035376    4.153254
  18 C      8.452621    9.248530    4.943501
  19 C      8.854478    6.731613    4.633990
  20 C      7.908970    7.850453    4.994367
  21 C      8.512725    4.149693    4.781760
  22 C      7.484125   10.101400    5.496431
  23 C      8.262716    5.545884    4.986800

Unit cell:
           periodic     x           y           z      points  spacing
  1. axis:    yes   16.000000    0.000000    0.000000    80     0.2000
  2. axis:    yes    0.000000   16.000000    0.000000    80     0.2000
  3. axis:    yes    0.000000    0.000000   10.000000    48     0.2083

Effective grid spacing dv^(1/3) = 0.2027

                     log10-error:    total        iterations:
           time      wfs    density  energy       fermi  poisson
iter:   1  12:16:24          +inf  -183.092324    2      5      
iter:   2  12:16:25         -2.21  -183.069407    3      2      
iter:   3  12:16:26         -2.32  -183.037285    3      2      
iter:   4  12:16:26         -2.60  -183.037456    3      2      
iter:   5  12:16:27         -2.87  -183.036648    2      1      
iter:   6  12:16:27         -2.95  -183.036576    2      2      
iter:   7  12:16:28         -3.12  -183.035191    2      1      
iter:   8  12:16:28         -3.30  -183.035032    2      1      
iter:   9  12:16:29         -3.50  -183.036237    2      1      
iter:  10  12:16:30         -3.65  -183.036284    2      1      
iter:  11  12:16:30         -3.72  -183.035808    2      1      
iter:  12  12:16:31         -3.87  -183.035896    2      1      
iter:  13  12:16:31         -3.97  -183.035893    2      1      
iter:  14  12:16:32         -4.10  -183.035706    2      1      

Converged after 14 iterations.

Dipole moment: (0.112189, -0.428719, 0.134455) |e|*Ang

Energy contributions relative to reference atoms: (reference = -24663.074771)

Kinetic:       +104.426885
Potential:     -114.218117
External:        +0.000000
XC:            -176.124324
Entropy (-ST):   -0.225228
Local:           +2.992466
--------------------------
Free energy:   -183.148320
Extrapolated:  -183.035706

Fermi level: -4.49916

 Band  Eigenvalues  Occupancy
    0    -23.26807    2.00000
    1    -21.83868    2.00000
    2    -21.68543    2.00000
    3    -20.69348    2.00000
    4    -20.61322    2.00000
    5    -19.96001    2.00000
    6    -19.55754    2.00000
    7    -19.44461    2.00000
    8    -18.78349    2.00000
    9    -18.32257    2.00000
   10    -17.47259    2.00000
   11    -17.07645    2.00000
   12    -16.34784    2.00000
   13    -16.18818    2.00000
   14    -15.30790    2.00000
   15    -14.94204    2.00000
   16    -14.34019    2.00000
   17    -13.97275    2.00000
   18    -12.93586    2.00000
   19    -12.59696    2.00000
   20    -12.40122    2.00000
   21    -11.85181    2.00000
   22    -11.57256    2.00000
   23    -11.34909    2.00000
   24    -10.92085    2.00000
   25    -10.87036    2.00000
   26    -10.69370    2.00000
   27    -10.58961    2.00000
   28     -9.83767    2.00000
   29     -9.64551    2.00000
   30     -9.54899    2.00000
   31     -9.26994    2.00000
   32     -8.99048    2.00000
   33     -8.50907    2.00000
   34     -8.45281    2.00000
   35     -7.80936    2.00000
   36     -7.23492    2.00000
   37     -7.20467    2.00000
   38     -7.09963    2.00000
   39     -7.07514    2.00000
   40     -6.74579    2.00000
   41     -6.57822    2.00000
   42     -6.30286    2.00000
   43     -6.09099    2.00000
   44     -6.02263    2.00000
   45     -5.23483    1.99872
   46     -4.81830    1.92102
   47     -4.66153    1.67059
   48     -4.36352    0.40966
   49     -3.20206    0.00000
   50     -3.18556    0.00000
   51     -3.01342    0.00000
   52     -2.78947    0.00000
   53     -2.59133    0.00000
   54     -2.18697    0.00000
   55     -1.69378    0.00000
   56     -1.35634    0.00000
   57     -1.31485    0.00000
   58     -0.31907    0.00000
   59     -0.16496    0.00000
   60      0.63107    0.00000
   61      1.45057    0.00000
   62      2.20570    0.00000
   63      2.22552    0.00000
   64      2.44213    0.00000
   65      2.66624    0.00000
   66      3.52125    0.00000
   67      3.69817    0.00000
   68      3.91067    0.00000
   69      4.18676    0.00000
   70      5.01728    0.00000
   71      5.72730    0.00000
   72      6.25015    0.00000
   73      6.65202    0.00000
   74      6.75634    0.00000
   75      6.80040    0.00000
   76      7.26853    0.00000
   77      7.37018    0.00000
   78      7.75738    0.00000
   79      7.95393    0.00000
   80      8.33435    0.00000
   81      8.33812    0.00000
   82      8.72824    0.00000
   83      8.96033    0.00000
   84      9.06501    0.00000
   85      9.08100    0.00000
   86      9.21192    0.00000
   87      9.40813    0.00000
   88      9.46216    0.00000
   89      9.54114    0.00000
   90      9.63492    0.00000
   91      9.74070    0.00000
   92     10.14825    0.00000
   93     10.16926    0.00000
   94     10.22831    0.00000
   95     10.27307    0.00000
   96     10.31698    0.00000
   97     10.36718    0.00000


Forces in eV/Ang:
  0 C     0.04088   -0.13692    0.03987
  1 C     0.16005    0.00091    0.03563
  2 C     0.45781   -0.24111   -0.08383
  3 C     0.14264    0.14158   -0.01432
  4 C     0.23043    0.12866    0.04329
  5 C    -0.25077    0.26448   -0.05833
  6 C     0.26328    0.17730   -0.22275
  7 C     0.18608   -0.16863   -0.13107
  8 C    -0.39450   -0.08338    0.00998
  9 C    -0.03099    0.01134   -0.05659
 10 C     0.10243    0.31206    0.03039
 11 C     2.09579    0.23098   -0.40408
 12 C     0.01855   -0.14001    0.05261
 13 C    -0.11961   -0.07520    0.10284
 14 C    -0.32214   -0.39771    0.14683
 15 C    -0.15269    0.07277    0.07747
 16 C    -0.20926    0.06138    0.12727
 17 C     0.06367    0.29627   -0.13581
 18 C    -0.36465    0.05902   -0.09474
 19 C    -0.18120   -0.25065   -0.02310
 20 C     0.36430    0.00557   -0.21592
 21 C    -0.01541    0.01412   -0.07480
 22 C    -0.17064    0.28080    0.09687
 23 C    -1.95251   -0.51323    0.75680

System changes: positions 

Initializing position-dependent things.

Density initialized from wave functions
           .--------------------------------------.  
          /|                                      |  
         / |                                      |  
        /  |                                      |  
       /   |                                      |  
      /    |                                      |  
     /     |                                      |  
    /      |                                      |  
   /       |                                      |  
  /        |           C  C                       |  
 *         |  C C   C      C                      |  
 |         | C       C   C     C                  |  
 |         .---C---C-C-----C----C-----------------.  
 |        /    C     C   C    C  C               /   
 |       /       C      C  C  C                 /    
 |      /                                      /     
 |     /                                      /      
 |    /                                      /       
 |   /                                      /        
 |  /                                      /         
 | /                                      /          
 |/                                      /           
 *--------------------------------------*            

Positions:
   0 C      3.226934    6.185344    5.661595
   1 C      3.517696    7.475917    5.796841
   2 C      4.110019    8.619173    5.896717
   3 C      4.699731    4.065950    5.462319
   4 C      4.458300    5.462856    5.558111
   5 C      5.732185    3.320344    5.286503
   6 C      5.531824    8.728046    5.762532
[...]

Dipole moment: (0.098897, -0.331903, 0.151287) |e|*Ang

Energy contributions relative to reference atoms: (reference = -24663.074771)

Kinetic:       +115.417862
Potential:     -122.714630
External:        +0.000000
XC:            -178.788942
Entropy (-ST):   -0.244939
Local:           +3.000941
--------------------------
Free energy:   -183.329708
Extrapolated:  -183.207239

Fermi level: -4.47760

 Band  Eigenvalues  Occupancy
    0    -23.37758    2.00000
    1    -21.91725    2.00000
    2    -21.70115    2.00000
    3    -20.75389    2.00000
    4    -20.64339    2.00000
    5    -20.02854    2.00000
    6    -19.59343    2.00000
    7    -19.46155    2.00000
    8    -18.72447    2.00000
    9    -18.41036    2.00000
   10    -17.42641    2.00000
   11    -17.14372    2.00000
   12    -16.28346    2.00000
   13    -16.24846    2.00000
   14    -15.28074    2.00000
   15    -15.02842    2.00000
   16    -14.41994    2.00000
   17    -13.96290    2.00000
   18    -12.97719    2.00000
   19    -12.64201    2.00000
   20    -12.34958    2.00000
   21    -11.94198    2.00000
   22    -11.58022    2.00000
   23    -11.38944    2.00000
   24    -10.95026    2.00000
   25    -10.90434    2.00000
   26    -10.61139    2.00000
   27    -10.60438    2.00000
   28     -9.90358    2.00000
   29     -9.70534    2.00000
   30     -9.55434    2.00000
   31     -9.24073    2.00000
   32     -9.12359    2.00000
   33     -8.51674    2.00000
   34     -8.47394    2.00000
   35     -7.84426    2.00000
   36     -7.22467    2.00000
   37     -7.20375    2.00000
   38     -7.08533    2.00000
   39     -7.05663    2.00000
   40     -6.70758    2.00000
   41     -6.51777    2.00000
   42     -6.38246    2.00000
   43     -6.11771    2.00000
   44     -6.07310    2.00000
   45     -5.14282    1.99742
   46     -4.78108    1.90825
   47     -4.62394    1.62413
   48     -4.35962    0.47019
   49     -3.16373    0.00000
   50     -3.16163    0.00000
   51     -2.94423    0.00000
   52     -2.80390    0.00000
   53     -2.75004    0.00000
   54     -2.08464    0.00000
   55     -1.77855    0.00000
   56     -1.26505    0.00000
   57     -1.19617    0.00000
   58     -0.23411    0.00000
   59     -0.12105    0.00000
   60      0.79102    0.00000
   61      1.49034    0.00000
   62      2.29674    0.00000
   63      2.36988    0.00000
   64      2.92651    0.00000
   65      2.96376    0.00000
   66      3.53444    0.00000
   67      3.71724    0.00000
   68      4.06040    0.00000
   69      4.48910    0.00000
   70      5.16472    0.00000
   71      6.19747    0.00000
   72      6.38498    0.00000
   73      6.58986    0.00000
   74      6.88678    0.00000
   75      7.06033    0.00000
   76      7.46045    0.00000
   77      7.69666    0.00000
   78      7.72288    0.00000
   79      8.00044    0.00000
   80      8.40725    0.00000
   81      8.47390    0.00000
   82      8.69900    0.00000
   83      9.04981    0.00000
   84      9.10969    0.00000
   85      9.16601    0.00000
   86      9.28115    0.00000
   87      9.49136    0.00000
   88      9.49491    0.00000
   89      9.56562    0.00000
   90      9.62068    0.00000
   91      9.88496    0.00000
   92     10.10972    0.00000
   93     10.26135    0.00000
   94     10.31761    0.00000
   95     10.35230    0.00000
   96     10.37199    0.00000
   97     10.51458    0.00000


Forces in eV/Ang:
  0 C     0.00319   -0.05929    0.03418
  1 C    -0.00147    0.03357    0.03173
  2 C    -0.07973    0.08414   -0.02087
  3 C     0.06356   -0.04384   -0.06311
  4 C     0.00976   -0.04176   -0.01120
  5 C    -0.02914   -0.00677   -0.07505
  6 C     0.04083    0.05167   -0.00621
  7 C     0.03261   -0.00362    0.01229
  8 C     0.07126    0.04668    0.02271
  9 C    -0.02236    0.03929    0.02371
 10 C     0.06977    0.01381   -0.05618
 11 C     0.14777    0.01619    0.00104
 12 C     0.02365   -0.07032    0.00183
 13 C     0.02532    0.02263    0.03103
 14 C    -0.00253    0.09077   -0.05759
 15 C    -0.07898   -0.07700   -0.02313
 16 C     0.01708   -0.05552    0.00287
 17 C     0.00666    0.00567   -0.04727
 18 C    -0.03016    0.03839    0.01064
 19 C    -0.03210    0.00255    0.01979
 20 C    -0.06012   -0.01127    0.06240
 21 C     0.02013    0.05539    0.00822
 22 C    -0.09123   -0.00528   -0.01064
 23 C    -0.11152   -0.02260    0.07116

System changes: positions 

Initializing position-dependent things.

Density initialized from wave functions
           .--------------------------------------.  
          /|                                      |  
         / |                                      |  
        /  |                                      |  
       /   |                                      |  
      /    |                                      |  
     /     |                                      |  
    /      |                                      |  
   /       |                                      |  
  /        |           C  C                       |  
 *         |  C C   C      C                      |  
 |         | C       C   C    C                   |  
 |         .---C---C-C-----C----C-----------------.  
 |        /    C     C   C    C  C               /   
 |       /       C      C     C                 /    
 |      /                  C                   /     
 |     /                                      /      
 |    /                                      /       
 |   /                                      /        
 |  /                                      /         
 | /                                      /          
 |/                                      /           
 *--------------------------------------*            

Positions:
   0 C      3.246089    6.174714    5.675892
   1 C      3.540314    7.462606    5.804633
   2 C      4.141824    8.598558    5.880745
   3 C      4.711433    4.088353    5.457582
   4 C      4.487759    5.479385    5.555904
   5 C      5.729563    3.331430    5.262340
   6 C      5.546828    8.743891    5.747051
   7 C      5.869845    6.195162    5.484338
   8 C      6.426401    7.586292    5.396502
   9 C      7.015426    3.873268    5.198134
  10 C      6.286294    9.937253    5.837397
  11 C      6.905653    5.293800    5.397536
  12 C     11.022651    7.557780    3.462293
  13 C     10.443093    8.688588    3.846187
  14 C      9.636164    9.575555    4.316474
  15 C     10.414930    5.103384    3.841596
  16 C     10.194632    6.495941    3.936743
  17 C      9.744655    4.046927    4.126100
  18 C      8.401764    9.252142    4.936298
  19 C      8.825988    6.720507    4.643447
  20 C      7.891910    7.847537    4.980083
  21 C      8.511060    4.138352    4.774876
  22 C      7.477812   10.152059    5.497637
  23 C      8.244118    5.531239    5.016191

Unit cell:
           periodic     x           y           z      points  spacing
  1. axis:    yes   16.000000    0.000000    0.000000    80     0.2000
  2. axis:    yes    0.000000   16.000000    0.000000    80     0.2000
  3. axis:    yes    0.000000    0.000000   10.000000    48     0.2083

Effective grid spacing dv^(1/3) = 0.2027

                     log10-error:    total        iterations:
           time      wfs    density  energy       fermi  poisson
iter:   1  12:17:20          +inf  -183.214934    2      4      
iter:   2  12:17:20         -2.93  -183.213811    2      1      
iter:   3  12:17:21         -3.06  -183.211819    2      1      
iter:   4  12:17:21         -3.42  -183.211155    2      1      
iter:   5  12:17:22         -3.61  -183.210942    2      1      
iter:   6  12:17:23         -3.74  -183.210776    2      1      
iter:   7  12:17:23         -3.92  -183.210535    2      1      
iter:   8  12:17:24         -4.05  -183.210359    2      1      

Converged after 8 iterations.

Dipole moment: (0.100320, -0.334802, 0.152338) |e|*Ang

Energy contributions relative to reference atoms: (reference = -24663.074771)

Kinetic:       +115.341341
Potential:     -122.663185
External:        +0.000000
XC:            -178.765030
Entropy (-ST):   -0.243177
Local:           +2.998103
--------------------------
Free energy:   -183.331948
Extrapolated:  -183.210359

Fermi level: -4.48013

 Band  Eigenvalues  Occupancy
    0    -23.38566    2.00000
    1    -21.91272    2.00000
    2    -21.70882    2.00000
    3    -20.75876    2.00000
    4    -20.64114    2.00000
    5    -20.03274    2.00000
    6    -19.59541    2.00000
    7    -19.45925    2.00000
    8    -18.72991    2.00000
    9    -18.41063    2.00000
   10    -17.42248    2.00000
   11    -17.15020    2.00000
   12    -16.28189    2.00000
   13    -16.24619    2.00000
   14    -15.28125    2.00000
   15    -15.03474    2.00000
   16    -14.41686    2.00000
   17    -13.95873    2.00000
   18    -12.97807    2.00000
   19    -12.64679    2.00000
   20    -12.34458    2.00000
   21    -11.94949    2.00000
   22    -11.57239    2.00000
   23    -11.38975    2.00000
   24    -10.94656    2.00000
   25    -10.90628    2.00000
   26    -10.61935    2.00000
   27    -10.59734    2.00000
   28     -9.90271    2.00000
   29     -9.70205    2.00000
   30     -9.55788    2.00000
   31     -9.24285    2.00000
   32     -9.12665    2.00000
   33     -8.51843    2.00000
   34     -8.47202    2.00000
   35     -7.84810    2.00000
   36     -7.22567    2.00000
   37     -7.20096    2.00000
   38     -7.08598    2.00000
   39     -7.05365    2.00000
   40     -6.71266    2.00000
   41     -6.52322    2.00000
   42     -6.38097    2.00000
   43     -6.12068    2.00000
   44     -6.07404    2.00000
   45     -5.14070    1.99730
   46     -4.78402    1.90860
   47     -4.62860    1.63056
   48     -4.36030    0.46354
   49     -3.17409    0.00000
   50     -3.16790    0.00000
   51     -2.94727    0.00000
   52     -2.81040    0.00000
   53     -2.74898    0.00000
   54     -2.08434    0.00000
   55     -1.78162    0.00000
   56     -1.26529    0.00000
   57     -1.19571    0.00000
   58     -0.23760    0.00000
   59     -0.12468    0.00000
   60      0.79461    0.00000
   61      1.49368    0.00000
   62      2.30116    0.00000
   63      2.36674    0.00000
   64      2.93754    0.00000
   65      2.96595    0.00000
   66      3.53261    0.00000
   67      3.71263    0.00000
   68      4.05158    0.00000
   69      4.49281    0.00000
   70      5.16718    0.00000
   71      6.20413    0.00000
   72      6.38394    0.00000
   73      6.57850    0.00000
   74      6.88074    0.00000
   75      7.04039    0.00000
   76      7.46262    0.00000
   77      7.69050    0.00000
   78      7.72010    0.00000
   79      7.99392    0.00000
   80      8.40309    0.00000
   81      8.47005    0.00000
   82      8.69166    0.00000
   83      9.04627    0.00000
   84      9.10681    0.00000
   85      9.15682    0.00000
   86      9.28004    0.00000
   87      9.49216    0.00000
   88      9.49426    0.00000
   89      9.57025    0.00000
   90      9.61944    0.00000
   91      9.88246    0.00000
   92     10.11102    0.00000
   93     10.25949    0.00000
   94     10.31647    0.00000
   95     10.34765    0.00000
   96     10.37168    0.00000
   97     10.50742    0.00000


Forces in eV/Ang:
  0 C     0.00097   -0.02406    0.02457
  1 C    -0.00944    0.03359    0.02785
  2 C    -0.01814    0.06876   -0.01930
  3 C     0.07470   -0.05502   -0.07081
  4 C    -0.03561   -0.06521    0.00891
  5 C    -0.04624    0.00665   -0.04628
  6 C     0.04506    0.05687   -0.00818
  7 C     0.04701    0.00858    0.01725
  8 C     0.02447    0.05554    0.01602
  9 C    -0.01942    0.02528    0.00868
 10 C     0.11990   -0.01131   -0.07675
 11 C     0.12060    0.01511    0.02163
 12 C     0.02291   -0.04213   -0.00057
 13 C     0.00526    0.05590    0.02088
 14 C    -0.00690    0.03799   -0.02873
 15 C    -0.06847   -0.05988   -0.03438
 16 C     0.06724   -0.07107   -0.01718
 17 C     0.00020    0.00005   -0.01411
 18 C    -0.03688    0.03717    0.01272
 19 C    -0.02733    0.02276    0.03862
 20 C    -0.03678    0.01117    0.04223
 21 C     0.01640    0.04540   -0.00238
 22 C    -0.13730   -0.04906   -0.00662
 23 C    -0.09165   -0.03721    0.07589

System changes: positions 

Initializing position-dependent things.

Density initialized from wave functions
           .--------------------------------------.  
          /|                                      |  
         / |                                      |  
        /  |                                      |  
       /   |                                      |  
      /    |                                      |  
     /     |                                      |  
    /      |                                      |  
   /       |                                      |  
  /        |           C  C                       |  
 *         |  C C   C      C                      |  
 |         | C       C   C    C                   |  
 |         .---C---C-C-----C----C-----------------.  
 |        /    C     C   C    C  C               /   
 |       /       C      C     C                 /    
 |      /                  C                   /     
 |     /                                      /      
 |    /                                      /       
 |   /                                      /        
 |  /                                      /         
 | /                                      /          
 |/                                      /           
 *--------------------------------------*            

Positions:
   0 C      3.248115    6.173061    5.678942
   1 C      3.541526    7.461541    5.806546
   2 C      4.139485    8.600906    5.878238
   3 C      4.713855    4.088358    5.453977
   4 C      4.490512    5.479256    5.555181
   5 C      5.729686    3.330675    5.257069
   6 C      5.546228    8.745955    5.746408
   7 C      5.871901    6.195653    5.485230
   8 C      6.428182    7.587924    5.398955
   9 C      7.015577    3.873881    5.199539
  10 C      6.286116    9.938938    5.835507
  11 C      6.907187    5.294108    5.399270
  12 C     11.022596    7.554988    3.464023
  13 C     10.443646    8.687208    3.848798
  14 C      9.635874    9.577192    4.312122
  15 C     10.411348    5.102624    3.839672
  16 C     10.192352    6.494410    3.937669
  17 C      9.742464    4.045116    4.123142
  18 C      8.401299    9.254007    4.935599
  19 C      8.824363    6.720757    4.644570
  20 C      7.891036    7.848385    4.983341
  21 C      8.511751    4.139314    4.776018
  22 C      7.476918   10.153929    5.495915
  23 C      8.243794    5.531063    5.018134

Unit cell:
           periodic     x           y           z      points  spacing
  1. axis:    yes   16.000000    0.000000    0.000000    80     0.2000
  2. axis:    yes    0.000000   16.000000    0.000000    80     0.2000
  3. axis:    yes    0.000000    0.000000   10.000000    48     0.2083

Effective grid spacing dv^(1/3) = 0.2027

                     log10-error:    total        iterations:
           time      wfs    density  energy       fermi  poisson
iter:   1  12:17:26          +inf  -183.218036    3      4      
iter:   2  12:17:27         -2.96  -183.216598    2      1      
iter:   3  12:17:27         -3.08  -183.214034    3      1      
iter:   4  12:17:28         -3.40  -183.213619    2      1      
iter:   5  12:17:28         -3.62  -183.213079    2      1      
iter:   6  12:17:29         -3.70  -183.213238    2      1      
iter:   7  12:17:29         -3.91  -183.213353    2      1      
iter:   8  12:17:30         -4.04  -183.213090    2      1      

Converged after 8 iterations.

Dipole moment: (0.102066, -0.336912, 0.153610) |e|*Ang

Energy contributions relative to reference atoms: (reference = -24663.074771)

Kinetic:       +115.407871
Potential:     -122.732687
External:        +0.000000
XC:            -178.772432
Entropy (-ST):   -0.242027
Local:           +3.005172
--------------------------
Free energy:   -183.334104
Extrapolated:  -183.213090

Fermi level: -4.48135

 Band  Eigenvalues  Occupancy
    0    -23.39408    2.00000
    1    -21.91281    2.00000
    2    -21.71076    2.00000
    3    -20.76093    2.00000
    4    -20.63684    2.00000
    5    -20.03899    2.00000
    6    -19.59705    2.00000
    7    -19.45434    2.00000
    8    -18.72963    2.00000
    9    -18.41431    2.00000
   10    -17.42024    2.00000
   11    -17.15558    2.00000
   12    -16.27897    2.00000
   13    -16.24673    2.00000
   14    -15.28054    2.00000
   15    -15.03870    2.00000
   16    -14.41741    2.00000
   17    -13.95389    2.00000
   18    -12.97927    2.00000
   19    -12.64886    2.00000
   20    -12.34032    2.00000
   21    -11.94851    2.00000
   22    -11.56435    2.00000
   23    -11.38535    2.00000
   24    -10.94687    2.00000
   25    -10.90736    2.00000
   26    -10.62940    2.00000
   27    -10.59387    2.00000
   28     -9.90125    2.00000
   29     -9.70245    2.00000
   30     -9.55712    2.00000
   31     -9.24298    2.00000
   32     -9.12988    2.00000
   33     -8.51932    2.00000
   34     -8.46935    2.00000
   35     -7.85303    2.00000
   36     -7.22667    2.00000
   37     -7.19742    2.00000
   38     -7.08484    2.00000
   39     -7.04840    2.00000
   40     -6.71353    2.00000
   41     -6.53121    2.00000
   42     -6.38552    2.00000
   43     -6.12665    2.00000
   44     -6.07867    2.00000
   45     -5.13947    1.99723
   46     -4.78486    1.90827
   47     -4.63148    1.63553
   48     -4.36023    0.45896
   49     -3.18044    0.00000
   50     -3.17107    0.00000
   51     -2.94849    0.00000
   52     -2.80901    0.00000
   53     -2.74762    0.00000
   54     -2.08097    0.00000
   55     -1.78265    0.00000
   56     -1.26877    0.00000
   57     -1.19796    0.00000
   58     -0.24254    0.00000
   59     -0.12567    0.00000
   60      0.80130    0.00000
   61      1.50212    0.00000
   62      2.30691    0.00000
   63      2.36370    0.00000
   64      2.94992    0.00000
   65      2.95792    0.00000
   66      3.53101    0.00000
   67      3.71107    0.00000
   68      4.04939    0.00000
   69      4.50171    0.00000
   70      5.16938    0.00000
   71      6.20751    0.00000
   72      6.38056    0.00000
   73      6.56913    0.00000
   74      6.87936    0.00000
   75      7.02277    0.00000
   76      7.46205    0.00000
   77      7.68979    0.00000
   78      7.72242    0.00000
   79      7.98792    0.00000
   80      8.39515    0.00000
   81      8.46956    0.00000
   82      8.68048    0.00000
   83      9.04418    0.00000
   84      9.10540    0.00000
   85      9.14820    0.00000
   86      9.28072    0.00000
   87      9.49269    0.00000
   88      9.49495    0.00000
   89      9.57155    0.00000
   90      9.61784    0.00000
   91      9.87933    0.00000
   92     10.11079    0.00000
   93     10.25799    0.00000
   94     10.31548    0.00000
   95     10.34649    0.00000
   96     10.37048    0.00000
   97     10.50137    0.00000


Forces in eV/Ang:
  0 C     0.01151    0.00516    0.01926
  1 C     0.01446    0.06499    0.02622
  2 C     0.00646    0.02225   -0.01688
  3 C     0.01393   -0.00234   -0.05415
  4 C    -0.05431   -0.06256    0.02044
  5 C     0.02109   -0.01878   -0.03381
  6 C     0.01710    0.03177   -0.00859
  7 C     0.02791    0.02646    0.02713
  8 C    -0.03664    0.03671    0.01492
  9 C    -0.01251    0.00364   -0.00507
 10 C     0.05508   -0.02639   -0.05808
 11 C     0.05439   -0.00290    0.04639
 12 C    -0.00255    0.01651    0.01212
 13 C     0.02073    0.01823   -0.00302
 14 C    -0.04275    0.01627    0.01263
 15 C    -0.05965   -0.07064   -0.03133
 16 C     0.07743   -0.03148   -0.02696
 17 C     0.00540   -0.00185   -0.00670
 18 C    -0.00657    0.02073   -0.00340
 19 C    -0.01900    0.01169    0.05786
 20 C     0.01872    0.03544    0.01109
 21 C    -0.01126    0.00764   -0.00351
 22 C    -0.06431   -0.04655   -0.03078
 23 C    -0.01738    0.00159    0.05785

