
  ___ ___ ___ _ _ _  
 |   |   |_  | | | | 
 | | | | | . | | | | 
 |__ |  _|___|_____|  1.3.0b1
 |___|_|             

User:   esb@s65n33.grendel.cscaa.dk
Date:   Thu Nov  9 11:33:19 2017
Arch:   x86_64
Pid:    76130
Python: 2.7.13
gpaw:   /home/esb/DFT/gpaw_git/gpaw
_gpaw:  /home/esb/DFT/gpaw_git/build/bin.linux-x86_64-2.7/gpaw-python
ase:    /home/esb/DFT/ase_git/ase (version 3.15.0b1)
numpy:  /comm/swstack/core/python/2.7.13/lib/python2.7/site-packages/numpy (version 1.13.3)
scipy:  /comm/swstack/core/python/2.7.13/lib/python2.7/site-packages/scipy (version 0.19.1)
units:  Angstrom and eV
cores:  16
Extra parameters: {'blacs': True}

Input parameters:
  basis: dzp
  gpts: [80 80 48]
  kpts: [1 1 1]
  maxiter: 99
  mixer: {backend: pulay,
          beta: 0.05,
          method: separate,
          nmaxold: 5,
          weight: 75}
  mode: lcao
  nbands: -50
  occupations: {name: fermi-dirac,
                width: 0.1}
  poissonsolver: {eps: 1e-07,
                  name: fd,
                  nn: 3,
                  relax: GS}
  xc: PBE

System changes: positions, numbers, cell, pbc, initial_charges, initial_magmoms 

Initialize ...

C-setup:
  name: Carbon
  id: 4aa54d4b901d75f77cc0ea3eec22967b
  Z: 6
  valence: 4
  core: 2
  charge: 0.0
  file: /home/esb/DFT/gpaw-setups-0.8.7929/C.PBE.gz
  cutoffs: 0.64(comp), 1.14(filt), 1.14(core), lmax=2
  valence states:
                energy  radius
    2s(2.00)   -13.751   0.635
    2p(2.00)    -5.284   0.635
    *s          13.461   0.635
    *p          21.927   0.635
    *d           0.000   0.635

  LCAO basis set for C:
    Name: dzp
    File: /home/esb/DFT/gpaw-setups-0.8.7929/C.dzp.basis.gz
    Number of radial functions: 5
    Number of spherical harmonics: 13
      l=0, rc=5.5469 Bohr: 2s-sz confined orbital
      l=1, rc=6.6719 Bohr: 2p-sz confined orbital
      l=0, rc=3.0312 Bohr: 2s-dz split-valence wave
      l=1, rc=3.7500 Bohr: 2p-dz split-valence wave
      l=2, rc=6.6719 Bohr: d-type Gaussian polarization

Reference energy: -24663.074771

Spin-paired calculation

Occupation numbers:
  Fermi-Dirac: width=0.1000 eV

Convergence criteria:
  Maximum total energy change: 0.0005 eV / electron
  Maximum integral of absolute density change: 0.0001 electrons
  Maximum integral of absolute eigenstate change: 4e-08 eV^2
  Maximum number of iterations: 99

Symmetries present (total): 1

  ( 1  0  0)
  ( 0  1  0)
  ( 0  0  1)

1 k-point (Gamma)
1 k-point in the irreducible part of the Brillouin zone
       k-points in crystal coordinates                weights
   0:     0.00000000    0.00000000    0.00000000          1/1

Wave functions: LCAO
  Diagonalizer: Serial LAPACK
  Atomic Correction: dense with blas
  Datatype: float
  Eigensolver: None 

LCAO using direct dense diagonalizer 

Densities:
  Coarse grid: 80*80*48 grid
  Fine grid: 160*160*96 grid
  Total Charge: 0.000000 

Density mixing:
  Method: separate
  Backend: pulay
  Linear mixing parameter: 0.05
  Mixing with 5 old densities
  Damping of long wave oscillations: 75 

Hamiltonian:
  XC and Coulomb potentials evaluated on a 160*160*96 grid
  Using the PBE Exchange-Correlation functional
  Interpolation: tri-quintic (5. degree polynomial)
  Poisson solver: Gauss-Seidel solver with 6 multi-grid levels
    Coarsest grid: 5 x 5 x 3 points
    Stencil: 6*3+1=19 point O(h^6) finite-difference Laplacian
    Max iterations: 1000
    Tolerance: 1.000000e-07 

Memory estimate:
  Process memory now: 77.57 MiB
  Calculator: 15.59 MiB
    Density: 6.13 MiB
      Arrays: 3.81 MiB
      Localized functions: 0.86 MiB
      Mixer: 1.46 MiB
    Hamiltonian: 5.40 MiB
      Arrays: 2.49 MiB
      XC: 0.00 MiB
      Poisson: 2.85 MiB
      vbar: 0.07 MiB
    Wavefunctions: 4.05 MiB
      C [qnM]: 0.23 MiB
      S, T [2 x qmm]: 1.49 MiB
      P [aqMi]: 0.01 MiB
      TCI: 0.00 MiB
      BasisFunctions: 2.33 MiB
      Eigensolver: 0.00 MiB

Total number of cores used: 16
Domain decomposition: 2 x 4 x 2

Number of atoms: 24
Number of atomic orbitals: 312
Number of bands in calculation: 98
Bands to converge: occupied states only
Number of valence electrons: 96

... initialized

Initializing position-dependent things.

Density initialized from atomic densities
           .--------------------------------------.  
          /|                                      |  
         / |                                      |  
        /  |                                      |  
       /   |                                      |  
      /    |                                      |  
     /     |                                      |  
    /      |                                      |  
   /       |          C                           |  
  /        |   C  C     C                         |  
 *         | C       C    C   C  C                |  
 |         |            C   C   C                 |  
 |         .---C---C-C-------C--------------------.  
 |        /    C    C  C  C                      /   
 |       /       C                              /    
 |      /                                      /     
 |     /                                      /      
 |    /                                      /       
 |   /                                      /        
 |  /                                      /         
 | /                                      /          
 |/                                      /           
 *--------------------------------------*            

Positions:
   0 C      5.734965    6.061961    5.476717
   1 C      9.369287    6.023665    5.717151
   2 C      8.023810    6.192012    5.751022
   3 C      6.913151    5.270855    5.515602
   4 C      4.543724    4.118332    5.250547
   5 C      4.391481    5.522692    5.375846
   6 C      5.607596    3.415962    5.249252
   7 C      6.956709    3.831346    5.385978
   8 C      8.304040    3.323138    5.459763
   9 C     10.259485    4.900505    5.692558
  10 C      9.498199    3.715117    5.581164
  11 C     11.196176    5.913831    6.053422
  12 C      5.991744   10.012670    6.296697
  13 C      7.153159    9.476422    6.310743
  14 C      4.696028    9.434889    6.265489
  15 C      7.430763    8.070011    6.240706
  16 C      4.943852    8.023854    6.489085
  17 C      6.190631    7.387407    6.401922
  18 C      8.536587    7.201613    5.862819
  19 C     11.038655    6.785276    5.277637
  20 C     11.080323    8.220092    5.407091
  21 C      9.854505    7.679203    5.669321
  22 C      3.264794    9.445646    5.936889
  23 C      2.914241    8.232495    5.679791

Unit cell:
           periodic     x           y           z      points  spacing
  1. axis:    yes   16.000000    0.000000    0.000000    80     0.2000
  2. axis:    yes    0.000000   16.000000    0.000000    80     0.2000
  3. axis:    yes    0.000000    0.000000   10.000000    48     0.2083

Effective grid spacing dv^(1/3) = 0.2027

                     log10-error:    total        iterations:
           time      wfs    density  energy       fermi  poisson
iter:   1  11:33:21          +inf  -168.222369    3      6      
iter:   2  11:33:21         -0.88  -166.904754    4      3      
iter:   3  11:33:22         -0.91  -164.126294    33     3      
iter:   4  11:33:23         -1.05  -163.438866    3      2      
iter:   5  11:33:23         -1.11  -163.632597    33     3      
iter:   6  11:33:24         -1.19  -162.867946    3      3      
iter:   7  11:33:25         -1.29  -162.762746    3      3      
iter:   8  11:33:25         -1.43  -162.424863    3      2      
iter:   9  11:33:26         -1.58  -162.433423    4      3      
iter:  10  11:33:26         -1.69  -162.383111    3      2      
iter:  11  11:33:27         -1.74  -162.274693    3      3      
iter:  12  11:33:28         -2.01  -162.278880    3      2      
iter:  13  11:33:28         -2.07  -162.261164    3      2      
iter:  14  11:33:29         -2.21  -162.260057    3      2      
iter:  15  11:33:30         -2.43  -162.256904    3      2      
iter:  16  11:33:30         -2.54  -162.254250    3      2      
iter:  17  11:33:31         -2.70  -162.255763    3      2      
iter:  18  11:33:31         -3.07  -162.258208    2      1      
iter:  19  11:33:32         -3.14  -162.260386    2      1      
iter:  20  11:33:33         -3.30  -162.255703    2      1      
iter:  21  11:33:33         -3.55  -162.252568    2      1      
iter:  22  11:33:34         -3.63  -162.250802    2      1      
iter:  23  11:33:34         -3.75  -162.250366    2      1      
iter:  24  11:33:35         -3.96  -162.250348    2      1      
iter:  25  11:33:36         -4.10  -162.250255    2      1      

Converged after 25 iterations.

Dipole moment: (0.835409, -0.710418, -0.069096) |e|*Ang

Energy contributions relative to reference atoms: (reference = -24663.074771)

Kinetic:       +181.575171
Potential:     -160.907066
External:        +0.000000
XC:            -185.715431
Entropy (-ST):   -0.365934
Local:           +2.980037
--------------------------
Free energy:   -162.433222
Extrapolated:  -162.250255

Fermi level: -4.27801

 Band  Eigenvalues  Occupancy
    0    -27.88478    2.00000
    1    -24.96759    2.00000
    2    -22.46457    2.00000
    3    -22.21420    2.00000
    4    -21.68880    2.00000
    5    -20.43659    2.00000
    6    -20.26609    2.00000
    7    -19.51912    2.00000
    8    -18.97081    2.00000
    9    -18.44698    2.00000
   10    -18.26954    2.00000
   11    -17.49973    2.00000
   12    -17.26454    2.00000
   13    -16.19778    2.00000
   14    -15.68898    2.00000
   15    -15.04251    2.00000
   16    -14.40286    2.00000
   17    -13.82858    2.00000
   18    -13.63313    2.00000
   19    -13.17550    2.00000
   20    -12.81675    2.00000
   21    -12.55810    2.00000
   22    -12.20136    2.00000
   23    -12.03678    2.00000
   24    -11.55894    2.00000
   25    -11.07587    2.00000
   26    -11.05287    2.00000
   27    -10.72587    2.00000
   28    -10.37244    2.00000
   29     -9.94828    2.00000
   30     -9.51597    2.00000
   31     -8.87718    2.00000
   32     -8.57870    2.00000
   33     -8.03420    2.00000
   34     -7.77368    2.00000
   35     -7.55075    2.00000
   36     -7.42603    2.00000
   37     -7.28038    2.00000
   38     -7.07972    2.00000
   39     -6.94034    2.00000
   40     -6.53561    2.00000
   41     -6.18051    2.00000
   42     -5.63738    2.00000
   43     -5.54892    1.99999
   44     -5.16822    1.99973
   45     -5.04506    1.99907
   46     -4.55502    1.88207
   47     -4.35310    1.35875
   48     -4.16467    0.48705
   49     -4.09025    0.26533
   50     -3.72582    0.00796
   51     -3.19888    0.00004
   52     -2.94099    0.00000
   53     -2.62754    0.00000
   54     -2.44153    0.00000
   55     -1.99605    0.00000
   56     -1.81541    0.00000
   57     -1.45813    0.00000
   58     -1.00076    0.00000
   59     -0.66936    0.00000
   60     -0.46316    0.00000
   61     -0.16634    0.00000
   62      1.20953    0.00000
   63      1.36779    0.00000
   64      1.74214    0.00000
   65      2.34013    0.00000
   66      2.96398    0.00000
   67      3.10454    0.00000
   68      3.65952    0.00000
   69      4.10840    0.00000
   70      4.40190    0.00000
   71      4.64749    0.00000
   72      5.13197    0.00000
   73      5.62215    0.00000
   74      5.83738    0.00000
   75      5.94809    0.00000
   76      6.78952    0.00000
   77      6.88361    0.00000
   78      7.35988    0.00000
   79      7.54667    0.00000
   80      7.67745    0.00000
   81      7.87833    0.00000
   82      8.14454    0.00000
   83      8.59225    0.00000
   84      8.63453    0.00000
   85      8.85158    0.00000
   86      9.02141    0.00000
   87      9.15455    0.00000
   88      9.24071    0.00000
   89      9.32889    0.00000
   90      9.52082    0.00000
   91      9.59924    0.00000
   92      9.63824    0.00000
   93      9.85683    0.00000
   94      9.90837    0.00000
   95     10.13699    0.00000
   96     10.21460    0.00000
   97     10.28334    0.00000


Forces in eV/Ang:
  0 C     0.47109    0.43506    3.50977
  1 C     2.78366  -10.36376   -2.42557
  2 C    -7.34128  -25.09233   -4.58378
  3 C    -0.00275    1.61132    0.01921
  4 C     0.31543    2.88344    0.05603
  5 C     1.03643   -1.03175    0.04466
  6 C     1.25553   -1.36511   -0.17449
  7 C    -0.45258   -0.24090   -0.19372
  8 C    -0.08704    0.06886    0.07321
  9 C    -2.45121   -0.23774    0.55892
 10 C     0.29404   -0.04207    0.33542
 11 C     7.16601  -15.37838    9.48077
 12 C    -0.74225    0.33740    0.29793
 13 C     0.68305   -0.24466   -0.15298
 14 C     0.44810   -1.24320    0.54580
 15 C    -1.02155    4.30835    1.62796
 16 C     0.40073    2.59025   -0.11674
 17 C    -4.74416   -2.34427   -3.25466
 18 C     0.49803   29.01953    4.62213
 19 C     1.95622   13.63439   -7.17456
 20 C     0.32332    1.75814   -1.31024
 21 C    -1.27982    1.17380   -1.80495
 22 C     1.53483    1.30760    0.38252
 23 C    -1.04945   -1.52463   -0.37907

System changes: positions 

Initializing position-dependent things.

Density initialized from wave functions
           .--------------------------------------.  
          /|                                      |  
         / |                                      |  
        /  |                                      |  
       /   |                                      |  
      /    |                                      |  
     /     |                                      |  
    /      |                                      |  
   /       |          C                           |  
  /        |   C  C     C                         |  
 *         | C       C    C   C  C                |  
 |         |            C   C   C                 |  
 |         .---C---C-C-------C--------------------.  
 |        /    C    C  C  C                      /   
 |       /       C                              /    
 |      /                                      /     
 |     /                                      /      
 |    /                                      /       
 |   /                                      /        
 |  /                                      /         
 | /                                      /          
 |/                                      /           
 *--------------------------------------*            

Positions:
   0 C      5.735606    6.062553    5.481494
   1 C      9.373075    6.009559    5.713850
   2 C      8.013819    6.157861    5.744784
   3 C      6.913147    5.273048    5.515628
   4 C      4.544153    4.122256    5.250623
   5 C      4.392892    5.521288    5.375907
   6 C      5.609305    3.414104    5.249015
   7 C      6.956093    3.831018    5.385714
   8 C      8.303921    3.323231    5.459863
   9 C     10.256148    4.900181    5.693319
  10 C      9.498600    3.715060    5.581621
  11 C     11.205929    5.892901    6.066325
  12 C      5.990734   10.013129    6.297103
  13 C      7.154089    9.476089    6.310535
  14 C      4.696638    9.433197    6.266232
  15 C      7.429373    8.075875    6.242922
  16 C      4.944397    8.027380    6.488926
  17 C      6.184175    7.384216    6.397492
  18 C      8.537265    7.241110    5.869110
  19 C     11.041318    6.803833    5.267872
  20 C     11.080763    8.222485    5.405308
  21 C      9.852763    7.680801    5.666864
  22 C      3.266883    9.447425    5.937410
  23 C      2.912813    8.230420    5.679275

Unit cell:
           periodic     x           y           z      points  spacing
  1. axis:    yes   16.000000    0.000000    0.000000    80     0.2000
  2. axis:    yes    0.000000   16.000000    0.000000    80     0.2000
  3. axis:    yes    0.000000    0.000000   10.000000    48     0.2083

Effective grid spacing dv^(1/3) = 0.2027

                     log10-error:    total        iterations:
           time      wfs    density  energy       fermi  poisson
iter:   1  11:33:38          +inf  -165.115242    3      5      
iter:   2  11:33:38         -2.02  -165.082867    3      2      
iter:   3  11:33:39         -2.15  -165.065393    3      2      
iter:   4  11:33:40         -2.25  -165.047119    3      2      
iter:   5  11:33:40         -2.39  -165.049382    3      2      
iter:   6  11:33:41         -2.56  -165.043168    2      2      
iter:   7  11:33:41         -2.78  -165.041029    2      2      
iter:   8  11:33:42         -3.12  -165.040969    2      1      
iter:   9  11:33:43         -3.19  -165.040452    2      1      
iter:  10  11:33:43         -3.47  -165.040177    2      1      
iter:  11  11:33:44         -3.53  -165.039762    2      1      
iter:  12  11:33:44         -3.69  -165.040280    2      1      
iter:  13  11:33:45         -3.85  -165.040800    2      1      
iter:  14  11:33:46         -4.00  -165.040410    2      1      

Converged after 14 iterations.

Dipole moment: (0.802907, -0.708838, -0.082699) |e|*Ang

Energy contributions relative to reference atoms: (reference = -24663.074771)

Kinetic:       +169.109820
Potential:     -152.906263
External:        +0.000000
XC:            -184.005589
Entropy (-ST):   -0.377414
Local:           +2.950328
--------------------------
Free energy:   -165.229117
Extrapolated:  -165.040410

Fermi level: -4.27192

 Band  Eigenvalues  Occupancy
    0    -27.31321    2.00000
    1    -24.66118    2.00000
    2    -22.49824    2.00000
    3    -22.24464    2.00000
    4    -21.69946    2.00000
    5    -20.40594    2.00000
    6    -20.25716    2.00000
    7    -19.58157    2.00000
    8    -18.97505    2.00000
    9    -18.38455    2.00000
   10    -18.12211    2.00000
   11    -17.48193    2.00000
   12    -17.21331    2.00000
   13    -16.17502    2.00000
   14    -15.67541    2.00000
   15    -15.06442    2.00000
   16    -14.35546    2.00000
   17    -13.82543    2.00000
   18    -13.36248    2.00000
   19    -13.14341    2.00000
   20    -12.79606    2.00000
   21    -12.52896    2.00000
   22    -12.19428    2.00000
   23    -12.06710    2.00000
   24    -11.58162    2.00000
   25    -11.10976    2.00000
   26    -10.98317    2.00000
   27    -10.69860    2.00000
   28    -10.31857    2.00000
   29     -9.95754    2.00000
   30     -9.49818    2.00000
   31     -8.88723    2.00000
   32     -8.62521    2.00000
   33     -8.08716    2.00000
   34     -7.83359    2.00000
   35     -7.56939    2.00000
   36     -7.44696    2.00000
   37     -7.29135    2.00000
   38     -7.09627    2.00000
   39     -6.97222    2.00000
   40     -6.56017    2.00000
   41     -6.18174    2.00000
   42     -5.66765    2.00000
   43     -5.56069    1.99999
   44     -5.16882    1.99975
   45     -5.05984    1.99924
   46     -4.53894    1.87049
   47     -4.34395    1.34533
   48     -4.14905    0.45281
   49     -4.10657    0.32126
   50     -3.75289    0.01108
   51     -3.22419    0.00006
   52     -2.95359    0.00000
   53     -2.65614    0.00000
   54     -2.44885    0.00000
   55     -2.03013    0.00000
   56     -1.83115    0.00000
   57     -1.46168    0.00000
   58     -0.99165    0.00000
   59     -0.68164    0.00000
   60     -0.43427    0.00000
   61     -0.17522    0.00000
   62      1.17616    0.00000
   63      1.39179    0.00000
   64      1.86702    0.00000
   65      2.30155    0.00000
   66      2.96606    0.00000
   67      3.13934    0.00000
   68      3.73346    0.00000
   69      4.06545    0.00000
   70      4.41643    0.00000
   71      4.70023    0.00000
   72      5.16244    0.00000
   73      5.80183    0.00000
   74      5.90422    0.00000
   75      6.08261    0.00000
   76      6.82664    0.00000
   77      6.95357    0.00000
   78      7.32521    0.00000
   79      7.60363    0.00000
   80      7.71562    0.00000
   81      7.93324    0.00000
   82      8.16923    0.00000
   83      8.58286    0.00000
   84      8.61713    0.00000
   85      8.80762    0.00000
   86      9.02977    0.00000
   87      9.14070    0.00000
   88      9.23013    0.00000
   89      9.35187    0.00000
   90      9.50447    0.00000
   91      9.61580    0.00000
   92      9.67662    0.00000
   93      9.87133    0.00000
   94      9.91815    0.00000
   95     10.14422    0.00000
   96     10.21362    0.00000
   97     10.25853    0.00000


Forces in eV/Ang:
  0 C     0.29470    0.54482    3.51755
  1 C     1.48421   -9.04568   -2.11238
  2 C    -1.88047  -16.01165   -3.48504
  3 C    -0.26414    1.07052   -0.10194
  4 C     0.55078    2.68148    0.06141
  5 C     0.98352   -0.90938    0.02941
  6 C     1.03794   -1.29933   -0.16078
  7 C    -0.46926   -0.35481   -0.22805
  8 C    -0.16539    0.07863    0.06092
  9 C    -1.73843   -0.59076    0.38217
 10 C     0.21602   -0.12648    0.30827
 11 C     6.30514  -11.75586    6.63308
 12 C    -0.53561    0.30007    0.30527
 13 C     0.41997    0.04839   -0.10880
 14 C     0.37899   -1.07271    0.53124
 15 C    -1.10788    3.85984    1.55381
 16 C     0.32562    2.41259   -0.11025
 17 C    -4.54826   -2.22515   -3.21412
 18 C    -2.78621   20.06857    3.42318
 19 C     2.02504    9.82913   -4.35852
 20 C     0.48542    1.83206   -1.21103
 21 C    -1.49359    1.02155   -1.77754
 22 C     1.45442    1.05979    0.32632
 23 C    -1.00440   -1.30753   -0.32945

System changes: positions 

Initializing position-dependent things.

Density initialized from wave functions
           .--------------------------------------.  
          /|                                      |  
         / |                                      |  
        /  |                                      |  
       /   |                                      |  
      /    |                                      |  
     /     |                                      |  
    /      |                                      |  
   /       |          C                           |  
  /        |   C  C     C                         |  
 *         | C       C    C   C  C                |  
 |         |            C   C   C                 |  
 |         .---C---C-C-------C--------------------.  
 |        /    C    C  C  C                      /   
 |       /       C                              /    
 |      /                                      /     
 |     /                                      /      
 |    /                                      /       
 |   /                                      /        
 |  /                                      /         
 | /                                      /          
 |/                                      /           
 *--------------------------------------*            

Positions:
   0 C      5.735790    6.065152    5.494641
   1 C      9.371873    5.982684    5.707602
   2 C      8.035105    6.145249    5.737491
   3 C      6.910809    5.274235    5.514621
   4 C      4.547425    4.131201    5.250880
   5 C      4.396283    5.518533    5.375937
   6 C      5.612045    3.409604    5.248487
   7 C      6.954258    3.829106    5.384686
   8 C      8.302899    3.323575    5.460026
   9 C     10.253364    4.896151    5.693827
  10 C      9.499000    3.714151    5.582629
  11 C     11.224962    5.867867    6.076286
  12 C      5.989809   10.014054    6.298278
  13 C      7.154290    9.477788    6.310359
  14 C      4.697692    9.430083    6.268136
  15 C      7.424797    8.087933    6.248327
  16 C      4.945221    8.035449    6.488549
  17 C      6.168242    7.376542    6.385726
  18 C      8.509867    7.269509    5.875653
  19 C     11.049220    6.820741    5.266222
  20 C     11.083411    8.229694    5.401309
  21 C      9.846091    7.683818    5.660383
  22 C      3.271886    9.450090    5.938335
  23 C      2.909303    8.226673    5.678304

Unit cell:
           periodic     x           y           z      points  spacing
  1. axis:    yes   16.000000    0.000000    0.000000    80     0.2000
  2. axis:    yes    0.000000   16.000000    0.000000    80     0.2000
  3. axis:    yes    0.000000    0.000000   10.000000    48     0.2083

Effective grid spacing dv^(1/3) = 0.2027

                     log10-error:    total        iterations:
           time      wfs    density  energy       fermi  poisson
iter:   1  11:33:48          +inf  -167.193261    2      5      
iter:   2  11:33:48         -1.80  -167.083101    3      2      
iter:   3  11:33:49         -2.09  -167.060446    3      2      
iter:   4  11:33:50         -2.22  -167.034173    3      2      
iter:   5  11:33:50         -2.41  -167.033505    2      2      
iter:   6  11:33:51         -2.48  -167.031012    3      2      
iter:   7  11:33:51         -2.66  -167.033240    3      2      
iter:   8  11:33:52         -2.74  -167.030681    2      2      
iter:   9  11:33:53         -2.97  -167.029537    2      2      
iter:  10  11:33:53         -3.24  -167.029945    2      1      
iter:  11  11:33:54         -3.43  -167.029421    2      1      
iter:  12  11:33:55         -3.52  -167.029290    2      1      
iter:  13  11:33:55         -3.72  -167.029413    2      1      
iter:  14  11:33:56         -3.80  -167.029359    2      1      
iter:  15  11:33:56         -3.95  -167.029344    2      1      
iter:  16  11:33:57         -4.05  -167.029518    2      1      

Converged after 16 iterations.

Dipole moment: (0.785853, -0.665623, -0.086209) |e|*Ang

Energy contributions relative to reference atoms: (reference = -24663.074771)

Kinetic:       +163.293898
Potential:     -149.902243
External:        +0.000000
XC:            -183.204226
Entropy (-ST):   -0.358469
Local:           +2.962287
--------------------------
Free energy:   -167.208753
Extrapolated:  -167.029518

Fermi level: -4.26875

 Band  Eigenvalues  Occupancy
    0    -26.87054    2.00000
    1    -24.39181    2.00000
    2    -22.46715    2.00000
    3    -22.24421    2.00000
    4    -21.72550    2.00000
    5    -20.38738    2.00000
    6    -20.21777    2.00000
    7    -19.56722    2.00000
    8    -18.96910    2.00000
    9    -18.40183    2.00000
   10    -17.90358    2.00000
   11    -17.46310    2.00000
   12    -17.14511    2.00000
   13    -16.18711    2.00000
   14    -15.58520    2.00000
   15    -15.05089    2.00000
   16    -14.30483    2.00000
   17    -13.80820    2.00000
   18    -13.21647    2.00000
   19    -13.02693    2.00000
   20    -12.82249    2.00000
   21    -12.55243    2.00000
   22    -12.17811    2.00000
   23    -12.02382    2.00000
   24    -11.62396    2.00000
   25    -11.12402    2.00000
   26    -10.93987    2.00000
   27    -10.64120    2.00000
   28    -10.27260    2.00000
   29     -9.95114    2.00000
   30     -9.51623    2.00000
   31     -8.94873    2.00000
   32     -8.69248    2.00000
   33     -8.34367    2.00000
   34     -7.86506    2.00000
   35     -7.59237    2.00000
   36     -7.43538    2.00000
   37     -7.30575    2.00000
   38     -7.06852    2.00000
   39     -7.01088    2.00000
   40     -6.56943    2.00000
   41     -6.21664    2.00000
   42     -5.74310    2.00000
   43     -5.58766    2.00000
   44     -5.18580    1.99979
   45     -5.09841    1.99950
   46     -4.54897    1.88560
   47     -4.35184    1.39311
   48     -4.12797    0.39319
   49     -4.10436    0.32387
   50     -3.66728    0.00487
   51     -3.22608    0.00006
   52     -2.98003    0.00001
   53     -2.65486    0.00000
   54     -2.44351    0.00000
   55     -2.02515    0.00000
   56     -1.84614    0.00000
   57     -1.45880    0.00000
   58     -1.01242    0.00000
   59     -0.73666    0.00000
   60     -0.42574    0.00000
   61     -0.16661    0.00000
   62      1.13531    0.00000
   63      1.45080    0.00000
   64      1.91242    0.00000
   65      2.41453    0.00000
   66      2.90403    0.00000
   67      3.19032    0.00000
   68      3.84836    0.00000
   69      4.09049    0.00000
   70      4.36363    0.00000
   71      4.70929    0.00000
   72      5.24590    0.00000
   73      5.90762    0.00000
   74      6.03024    0.00000
   75      6.15975    0.00000
   76      6.89395    0.00000
   77      6.96920    0.00000
   78      7.28136    0.00000
   79      7.67243    0.00000
   80      7.75885    0.00000
   81      8.00072    0.00000
   82      8.24497    0.00000
   83      8.61677    0.00000
   84      8.67731    0.00000
   85      8.79846    0.00000
   86      9.04320    0.00000
   87      9.16005    0.00000
   88      9.25271    0.00000
   89      9.36663    0.00000
   90      9.53989    0.00000
   91      9.63617    0.00000
   92      9.74955    0.00000
   93      9.89618    0.00000
   94      9.93891    0.00000
   95     10.16585    0.00000
   96     10.21379    0.00000
   97     10.25510    0.00000


Forces in eV/Ang:
  0 C     0.44963    0.56580    3.41871
  1 C     1.99256   -7.64812   -2.19584
  2 C    -1.80511  -13.83683   -3.03003
  3 C     0.07794    1.00043   -0.03379
  4 C     0.89596    2.29043    0.05670
  5 C     0.89201   -0.76377    0.05836
  6 C     0.57831   -1.16401   -0.18248
  7 C    -0.39580   -0.20932   -0.23302
  8 C    -0.08768    0.08604    0.06163
  9 C    -1.08382   -0.71371    0.26215
 10 C    -0.02578   -0.40623    0.27738
 11 C     5.53654   -9.02358    4.44310
 12 C    -0.36872    0.32725    0.32139
 13 C     0.17903    0.34249   -0.07837
 14 C     0.36498   -0.71994    0.51251
 15 C    -1.71107    3.27288    1.43152
 16 C     0.11637    2.11902   -0.11305
 17 C    -4.03882   -1.91192   -3.08686
 18 C    -2.34966   17.44768    2.81191
 19 C     1.78212    6.98653   -2.05307
 20 C     0.19014    1.75454   -1.09012
 21 C    -1.55276    0.62351   -1.59271
 22 C     1.26770    0.61360    0.25852
 23 C    -0.89668   -0.89723   -0.25160

System changes: positions 

Initializing position-dependent things.

Density initialized from wave functions
           .--------------------------------------.  
          /|                                      |  
         / |                                      |  
        /  |                                      |  
       /   |                                      |  
      /    |                                      |  
     /     |                                      |  
    /      |                                      |  
   /       |          C                           |  
  /        |   C  C     C                         |  
 *         | C       C    C   C  C                |  
 |         |            C   C   C                 |  
 |         .---C---C-C-------C--------------------.  
 |        /    C    C  C  C                      /   
 |       /       C                              /    
 |      /                                      /     
 |     /                                      /      
 |    /                                      /       
 |   /                                      /        
 |  /                                      /         
 | /                                      /          
 |/                                      /           
 *--------------------------------------*            

Positions:
   0 C      5.737990    6.068477    5.510717
   1 C      9.378449    5.958574    5.697912
   2 C      8.050591    6.129049    5.729951
   3 C      6.911797    5.276358    5.514277
   4 C      4.554557    4.139404    5.251153
   5 C      4.399901    5.516116    5.376302
   6 C      5.611540    3.404949    5.247552
   7 C      6.952646    3.828340    5.383383
   8 C      8.302531    3.324072    5.460275
   9 C     10.254582    4.890525    5.693710
  10 C      9.497297    3.710383    5.583695
  11 C     11.244067    5.853994    6.074147
  12 C      5.989781   10.015614    6.299948
  13 C      7.152775    9.482231    6.310328
  14 C      4.699086    9.429149    6.270457
  15 C      7.413049    8.098811    6.254306
  16 C      4.944385    8.043427    6.488016
  17 C      6.152157    7.369412    6.371613
  18 C      8.486393    7.301469    5.880900
  19 C     11.056902    6.823390    5.280384
  20 C     11.083527    8.238113    5.397085
  21 C      9.837338    7.684133    5.653740
  22 C      3.276715    9.449693    5.938994
  23 C      2.905711    8.225379    5.677702

Unit cell:
           periodic     x           y           z      points  spacing
  1. axis:    yes   16.000000    0.000000    0.000000    80     0.2000
  2. axis:    yes    0.000000   16.000000    0.000000    80     0.2000
  3. axis:    yes    0.000000    0.000000   10.000000    48     0.2083

Effective grid spacing dv^(1/3) = 0.2027

                     log10-error:    total        iterations:
           time      wfs    density  energy       fermi  poisson
iter:   1  11:33:59          +inf  -168.676839    3      5      
iter:   2  11:34:00         -1.91  -168.613781    3      2      
iter:   3  11:34:00         -2.19  -168.601790    3      1      
iter:   4  11:34:01         -2.29  -168.582905    3      2      
iter:   5  11:34:01         -2.48  -168.582321    2      2      
iter:   6  11:34:02         -2.56  -168.579229    3      2      
iter:   7  11:34:03         -2.65  -168.580381    3      1      
iter:   8  11:34:03         -2.86  -168.581519    2      2      
iter:   9  11:34:04         -3.00  -168.579114    2      2      
iter:  10  11:34:05         -3.28  -168.579677    2      1      
iter:  11  11:34:05         -3.40  -168.580576    2      1      
iter:  12  11:34:06         -3.60  -168.580067    2      1      
iter:  13  11:34:06         -3.71  -168.579923    2      1      
iter:  14  11:34:07         -3.82  -168.580073    1      1      
iter:  15  11:34:08         -3.94  -168.580051    2      1      
iter:  16  11:34:08         -4.08  -168.579794    2      1      

Converged after 16 iterations.

Dipole moment: (0.774911, -0.625879, -0.078356) |e|*Ang

Energy contributions relative to reference atoms: (reference = -24663.074771)

Kinetic:       +160.806413
Potential:     -149.200789
External:        +0.000000
XC:            -182.979281
Entropy (-ST):   -0.333417
Local:           +2.960572
--------------------------
Free energy:   -168.746503
Extrapolated:  -168.579794

Fermi level: -4.25332

 Band  Eigenvalues  Occupancy
    0    -26.43175    2.00000
    1    -24.12570    2.00000
    2    -22.44463    2.00000
    3    -22.22165    2.00000
    4    -21.76500    2.00000
    5    -20.40048    2.00000
    6    -20.19420    2.00000
    7    -19.58062    2.00000
    8    -18.98314    2.00000
    9    -18.42967    2.00000
   10    -17.79623    2.00000
   11    -17.40603    2.00000
   12    -17.11082    2.00000
   13    -16.20162    2.00000
   14    -15.54420    2.00000
   15    -15.01101    2.00000
   16    -14.31059    2.00000
   17    -13.81473    2.00000
   18    -13.13659    2.00000
   19    -12.90087    2.00000
   20    -12.83354    2.00000
   21    -12.55474    2.00000
   22    -12.16403    2.00000
   23    -11.97311    2.00000
   24    -11.66919    2.00000
   25    -11.15010    2.00000
   26    -10.89322    2.00000
   27    -10.57584    2.00000
   28    -10.22261    2.00000
   29     -9.96009    2.00000
   30     -9.53374    2.00000
   31     -9.01435    2.00000
   32     -8.76670    2.00000
   33     -8.53440    2.00000
   34     -7.88513    2.00000
   35     -7.61239    2.00000
   36     -7.42722    2.00000
   37     -7.33386    2.00000
   38     -7.06738    2.00000
   39     -7.05101    2.00000
   40     -6.59286    2.00000
   41     -6.26281    2.00000
   42     -5.80899    2.00000
   43     -5.62475    2.00000
   44     -5.20885    1.99986
   45     -5.12030    1.99966
   46     -4.55851    1.90973
   47     -4.34946    1.44681
   48     -4.08899    0.32404
   49     -4.08641    0.31711
   50     -3.59379    0.00273
   51     -3.21041    0.00006
   52     -2.98695    0.00001
   53     -2.64793    0.00000
   54     -2.44026    0.00000
   55     -1.98465    0.00000
   56     -1.86624    0.00000
   57     -1.44196    0.00000
   58     -0.99928    0.00000
   59     -0.73373    0.00000
   60     -0.40330    0.00000
   61     -0.13362    0.00000
   62      1.12011    0.00000
   63      1.51059    0.00000
   64      1.98155    0.00000
   65      2.50243    0.00000
   66      2.80871    0.00000
   67      3.25678    0.00000
   68      3.90279    0.00000
   69      4.13317    0.00000
   70      4.36162    0.00000
   71      4.74149    0.00000
   72      5.28650    0.00000
   73      5.96536    0.00000
   74      6.10434    0.00000
   75      6.23298    0.00000
   76      6.93337    0.00000
   77      6.99802    0.00000
   78      7.26985    0.00000
   79      7.75311    0.00000
   80      7.81803    0.00000
   81      8.07967    0.00000
   82      8.31576    0.00000
   83      8.63433    0.00000
   84      8.74277    0.00000
   85      8.83832    0.00000
   86      9.05622    0.00000
   87      9.19507    0.00000
   88      9.24444    0.00000
   89      9.38716    0.00000
   90      9.57090    0.00000
   91      9.67647    0.00000
   92      9.80122    0.00000
   93      9.91334    0.00000
   94      9.98417    0.00000
   95     10.18027    0.00000
   96     10.22122    0.00000
   97     10.27255    0.00000


Forces in eV/Ang:
  0 C     0.47222    0.49358    3.24580
  1 C     1.74178   -6.28961   -2.21166
  2 C    -1.14461  -10.53666   -2.45904
  3 C     0.23805    0.78510    0.00750
  4 C     0.91886    2.13747    0.06279
  5 C     0.84297   -0.57763    0.09404
  6 C     0.58411   -1.20422   -0.18718
  7 C    -0.40088   -0.14560   -0.23889
  8 C    -0.28853    0.04018    0.01714
  9 C    -0.52190   -0.92339    0.23878
 10 C     0.12575   -0.47197    0.27774
 11 C     5.35704   -8.80079    4.05804
 12 C    -0.41559    0.42306    0.31478
 13 C     0.13538    0.54777   -0.01596
 14 C     0.32901   -0.43024    0.49693
 15 C    -2.02447    2.84426    1.31938
 16 C    -0.11294    1.85072   -0.11390
 17 C    -3.69960   -1.62028   -2.89127
 18 C    -2.27697   13.66433    2.09928
 19 C     1.36775    6.91349   -1.54929
 20 C    -0.24661    1.30389   -0.97854
 21 C    -1.32930    0.45367   -1.57780
 22 C     1.20437    0.47345    0.24927
 23 C    -0.87536   -0.77865   -0.23349

System changes: positions 

Initializing position-dependent things.

Density initialized from wave functions
           .--------------------------------------.  
          /|                                      |  
         / |                                      |  
        /  |                                      |  
       /   |                                      |  
      /    |                                      |  
     /     |                                      |  
    /      |                                      |  
   /       |          C C                         |  
  /        |   C  C     C                         |  
 *         | C       C    C   C  C                |  
 |         |            C   C   C                 |  
 |         .---C---C-C-------C--------------------.  
 |        /    C    C  C  C                      /   
 |       /       C                              /    
 |      /                                      /     
 |     /                                      /      
 |    /                                      /       
 |   /                                      /        
 |  /                                      /         
 | /                                      /          
 |/                                      /           
 *--------------------------------------*            

Positions:
   0 C      5.741659    6.072023    5.531483
   1 C      9.387448    5.936121    5.683306
   2 C      8.066872    6.121172    5.722969
   3 C      6.915429    5.278180    5.514520
   4 C      4.564002    4.150074    5.251606
   5 C      4.404658    5.514486    5.377256
   6 C      5.611900    3.397573    5.246159
   7 C      6.950267    3.828160    5.381557
   8 C      8.299703    3.324192    5.460120
   9 C     10.260651    4.881030    5.693822
  10 C      9.497148    3.704747    5.585307
  11 C     11.271875    5.825287    6.075749
  12 C      5.988495   10.019044    6.302200
  13 C      7.150997    9.489975    6.310897
  14 C      4.700811    9.430539    6.273612
  15 C      7.393455    8.110758    6.261731
  16 C      4.940834    8.052230    6.487237
  17 C      6.132462    7.362216    6.353752
  18 C      8.461722    7.325974    5.883332
  19 C     11.062864    6.838572    5.297202
  20 C     11.078323    8.244499    5.392078
  21 C      9.828225    7.683312    5.644255
  22 C      3.283179    9.448508    5.940023
  23 C      2.900660    8.224022    5.676865

Unit cell:
           periodic     x           y           z      points  spacing
  1. axis:    yes   16.000000    0.000000    0.000000    80     0.2000
  2. axis:    yes    0.000000   16.000000    0.000000    80     0.2000
  3. axis:    yes    0.000000    0.000000   10.000000    48     0.2083

Effective grid spacing dv^(1/3) = 0.2027

                     log10-error:    total        iterations:
           time      wfs    density  energy       fermi  poisson
iter:   1  11:34:10          +inf  -170.203876    3      5      
iter:   2  11:34:11         -1.88  -170.124914    3      2      
iter:   3  11:34:11         -2.17  -170.109018    2      2      
iter:   4  11:34:12         -2.28  -170.092895    3      2      
iter:   5  11:34:13         -2.43  -170.086771    2      2      
iter:   6  11:34:13         -2.55  -170.087910    3      2      
iter:   7  11:34:14         -2.78  -170.087109    2      1      
iter:   8  11:34:15         -2.88  -170.085755    2      2      
iter:   9  11:34:15         -3.26  -170.086039    2      1      
iter:  10  11:34:16         -3.37  -170.085910    2      1      
iter:  11  11:34:16         -3.50  -170.085915    2      1      
iter:  12  11:34:17         -3.66  -170.086230    2      1      
iter:  13  11:34:18         -3.92  -170.085624    2      1      
iter:  14  11:34:18         -4.04  -170.085600    2      1      

Converged after 14 iterations.

Dipole moment: (0.767089, -0.559455, -0.074378) |e|*Ang

Energy contributions relative to reference atoms: (reference = -24663.074771)

Kinetic:       +157.682712
Potential:     -147.916611
External:        +0.000000
XC:            -182.661336
Entropy (-ST):   -0.299234
Local:           +2.959252
--------------------------
Free energy:   -170.235217
Extrapolated:  -170.085600

Fermi level: -4.23648

 Band  Eigenvalues  Occupancy
    0    -26.10545    2.00000
    1    -23.92445    2.00000
    2    -22.44272    2.00000
    3    -22.22661    2.00000
    4    -21.81081    2.00000
    5    -20.40744    2.00000
    6    -20.17929    2.00000
    7    -19.59020    2.00000
    8    -18.97210    2.00000
    9    -18.45184    2.00000
   10    -17.78726    2.00000
   11    -17.35085    2.00000
   12    -16.98109    2.00000
   13    -16.22357    2.00000
   14    -15.51631    2.00000
   15    -14.95052    2.00000
   16    -14.27693    2.00000
   17    -13.83507    2.00000
   18    -13.10918    2.00000
   19    -12.90274    2.00000
   20    -12.74864    2.00000
   21    -12.56258    2.00000
   22    -12.15803    2.00000
   23    -11.91597    2.00000
   24    -11.71959    2.00000
   25    -11.17864    2.00000
   26    -10.89147    2.00000
   27    -10.50663    2.00000
   28    -10.19807    2.00000
   29     -9.98308    2.00000
   30     -9.57033    2.00000
   31     -9.10313    2.00000
   32     -8.91521    2.00000
   33     -8.67293    2.00000
   34     -7.89195    2.00000
   35     -7.63842    2.00000
   36     -7.41749    2.00000
   37     -7.35523    2.00000
   38     -7.10374    2.00000
   39     -7.05052    2.00000
   40     -6.60249    2.00000
   41     -6.30442    2.00000
   42     -5.85431    2.00000
   43     -5.66355    2.00000
   44     -5.23432    1.99991
   45     -5.12972    1.99974
   46     -4.58334    1.93956
   47     -4.34967    1.51239
   48     -4.06481    0.30459
   49     -4.03811    0.24184
   50     -3.54119    0.00191
   51     -3.19345    0.00006
   52     -2.98282    0.00001
   53     -2.64116    0.00000
   54     -2.45619    0.00000
   55     -1.93468    0.00000
   56     -1.88157    0.00000
   57     -1.41825    0.00000
   58     -1.03173    0.00000
   59     -0.74580    0.00000
   60     -0.39858    0.00000
   61     -0.07908    0.00000
   62      1.11168    0.00000
   63      1.54933    0.00000
   64      2.02852    0.00000
   65      2.58736    0.00000
   66      2.73854    0.00000
   67      3.31574    0.00000
   68      3.87556    0.00000
   69      4.20717    0.00000
   70      4.42144    0.00000
   71      4.81857    0.00000
   72      5.31994    0.00000
   73      6.02684    0.00000
   74      6.17058    0.00000
   75      6.32186    0.00000
   76      6.89885    0.00000
   77      7.04114    0.00000
   78      7.30148    0.00000
   79      7.78827    0.00000
   80      7.88064    0.00000
   81      8.15294    0.00000
   82      8.35799    0.00000
   83      8.66057    0.00000
   84      8.80130    0.00000
   85      8.86827    0.00000
   86      9.06579    0.00000
   87      9.22990    0.00000
   88      9.23866    0.00000
   89      9.41713    0.00000
   90      9.60033    0.00000
   91      9.71446    0.00000
   92      9.83358    0.00000
   93      9.93525    0.00000
   94     10.00980    0.00000
   95     10.16840    0.00000
   96     10.24628    0.00000
   97     10.29816    0.00000


Forces in eV/Ang:
  0 C     0.49309    0.32347    2.95891
  1 C     1.81736   -5.10195   -2.26698
  2 C    -1.17003   -8.77750   -2.08719
  3 C     0.38504    0.70981    0.08341
  4 C     1.00584    1.88175    0.07444
  5 C     0.80813   -0.38183    0.14935
  6 C     0.48821   -1.19105   -0.19056
  7 C    -0.39115   -0.06543   -0.24711
  8 C    -0.16719    0.05366    0.02143
  9 C    -0.12907   -0.99654    0.11715
 10 C     0.00798   -0.61619    0.25716
 11 C     4.85784   -7.13087    2.75733
 12 C    -0.44636    0.52373    0.30265
 13 C     0.08781    0.70882    0.05557
 14 C     0.30417   -0.16005    0.48407
 15 C    -1.95804    2.28332    1.07690
 16 C    -0.34970    1.59577   -0.14883
 17 C    -3.33417   -1.25379   -2.59360
 18 C    -1.84385   11.47310    1.70093
 19 C     1.18635    4.99508   -0.21355
 20 C    -0.36121    1.36290   -0.87844
 21 C    -1.44819    0.18738   -1.38834
 22 C     1.09250    0.30504    0.23559
 23 C    -0.85048   -0.65826   -0.22527

System changes: positions 

Initializing position-dependent things.

Density initialized from wave functions
           .--------------------------------------.  
          /|                                      |  
         / |                                      |  
        /  |                                      |  
       /   |                                      |  
      /    |                                      |  
     /     |                                      |  
    /      |                                      |  
   /       |          C C                         |  
  /        |   C  C     C                         |  
 *         | C      C     C   C  C                |  
 |         |             C      C                 |  
 |         .---C---C-C------CC--------------------.  
 |        /    C    C  C  C                      /   
 |       /       C                              /    
 |      /                                      /     
 |     /                                      /      
 |    /                                      /       
 |   /                                      /        
 |  /                                      /         
 | /                                      /          
 |/                                      /           
 *--------------------------------------*            

Positions:
   0 C      5.745830    6.073888    5.552640
   1 C      9.398842    5.917027    5.665500
   2 C      8.078537    6.112852    5.716063
   3 C      6.920433    5.280444    5.515615
   4 C      4.574638    4.161074    5.252287
   5 C      4.410214    5.514208    5.378949
   6 C      5.612964    3.388612    5.244556
   7 C      6.947376    3.828505    5.379379
   8 C      8.297988    3.324519    5.460056
   9 C     10.268990    4.870067    5.693050
  10 C      9.496243    3.697484    5.587069
  11 C     11.301899    5.799069    6.072404
  12 C      5.985834   10.024169    6.304619
  13 C      7.149510    9.499473    6.312244
  14 C      4.702678    9.433831    6.277236
  15 C      7.374002    8.120647    6.267964
  16 C      4.934758    8.060818    6.485885
  17 C      6.111682    7.356895    6.335948
  18 C      8.440385    7.350222    5.885413
  19 C     11.068787    6.846234    5.322010
  20 C     11.072156    8.253431    5.386835
  21 C      9.816246    7.680737    5.634881
  22 C      3.290134    9.446996    5.941365
  23 C      2.894617    8.222137    5.675639

Unit cell:
           periodic     x           y           z      points  spacing
  1. axis:    yes   16.000000    0.000000    0.000000    80     0.2000
  2. axis:    yes    0.000000   16.000000    0.000000    80     0.2000
  3. axis:    yes    0.000000    0.000000   10.000000    48     0.2083

Effective grid spacing dv^(1/3) = 0.2027

                     log10-error:    total        iterations:
           time      wfs    density  energy       fermi  poisson
iter:   1  11:34:20          +inf  -171.456922    3      5      
iter:   2  11:34:21         -1.91  -171.386748    3      2      
iter:   3  11:34:22         -2.22  -171.373062    3      2      
iter:   4  11:34:22         -2.34  -171.361472    2      2      
iter:   5  11:34:23         -2.48  -171.356930    2      2      
iter:   6  11:34:23         -2.60  -171.356505    2      2      
iter:   7  11:34:24         -2.82  -171.357721    2      1      
iter:   8  11:34:25         -2.92  -171.356610    2      2      
iter:   9  11:34:25         -3.30  -171.355914    2      1      
iter:  10  11:34:26         -3.41  -171.355808    2      1      
iter:  11  11:34:26         -3.51  -171.356185    2      1      
iter:  12  11:34:27         -3.72  -171.355704    2      1      
iter:  13  11:34:28         -3.80  -171.355899    2      1      
iter:  14  11:34:28         -3.96  -171.355749    2      1      
iter:  15  11:34:29         -4.07  -171.355861    2      1      

Converged after 15 iterations.

Dipole moment: (0.746700, -0.493989, -0.064185) |e|*Ang

Energy contributions relative to reference atoms: (reference = -24663.074771)

Kinetic:       +154.650769
Potential:     -146.555446
External:        +0.000000
XC:            -182.279473
Entropy (-ST):   -0.262900
Local:           +2.959739
--------------------------
Free energy:   -171.487311
Extrapolated:  -171.355861

Fermi level: -4.22158

 Band  Eigenvalues  Occupancy
    0    -25.82020    2.00000
    1    -23.71912    2.00000
    2    -22.42852    2.00000
    3    -22.20883    2.00000
    4    -21.84789    2.00000
    5    -20.42779    2.00000
    6    -20.16792    2.00000
    7    -19.61223    2.00000
    8    -18.97210    2.00000
    9    -18.47989    2.00000
   10    -17.80667    2.00000
   11    -17.31776    2.00000
   12    -16.86353    2.00000
   13    -16.24917    2.00000
   14    -15.51854    2.00000
   15    -14.88589    2.00000
   16    -14.25432    2.00000
   17    -13.86104    2.00000
   18    -13.09790    2.00000
   19    -12.92338    2.00000
   20    -12.67470    2.00000
   21    -12.55042    2.00000
   22    -12.14918    2.00000
   23    -11.86410    2.00000
   24    -11.76577    2.00000
   25    -11.21715    2.00000
   26    -10.86567    2.00000
   27    -10.43330    2.00000
   28    -10.15563    2.00000
   29    -10.02603    2.00000
   30     -9.61874    2.00000
   31     -9.17391    2.00000
   32     -9.04819    2.00000
   33     -8.73440    2.00000
   34     -7.89969    2.00000
   35     -7.66677    2.00000
   36     -7.43618    2.00000
   37     -7.34441    2.00000
   38     -7.15012    2.00000
   39     -7.04713    2.00000
   40     -6.61721    2.00000
   41     -6.34352    2.00000
   42     -5.89881    2.00000
   43     -5.70034    2.00000
   44     -5.26217    1.99994
   45     -5.13892    1.99979
   46     -4.61747    1.96255
   47     -4.35431    1.58076
   48     -4.04363    0.28872
   49     -3.98168    0.16649
   50     -3.51357    0.00168
   51     -3.17549    0.00006
   52     -2.96633    0.00001
   53     -2.63394    0.00000
   54     -2.49510    0.00000
   55     -1.90773    0.00000
   56     -1.88165    0.00000
   57     -1.37833    0.00000
   58     -1.04983    0.00000
   59     -0.73953    0.00000
   60     -0.39715    0.00000
   61     -0.01694    0.00000
   62      1.09643    0.00000
   63      1.56466    0.00000
   64      2.08273    0.00000
   65      2.59878    0.00000
   66      2.70526    0.00000
   67      3.34923    0.00000
   68      3.81745    0.00000
   69      4.23073    0.00000
   70      4.51681    0.00000
   71      4.90458    0.00000
   72      5.32794    0.00000
   73      6.06283    0.00000
   74      6.17074    0.00000
   75      6.40455    0.00000
   76      6.83115    0.00000
   77      7.08101    0.00000
   78      7.36327    0.00000
   79      7.84535    0.00000
   80      7.92790    0.00000
   81      8.21090    0.00000
   82      8.38555    0.00000
   83      8.68503    0.00000
   84      8.83754    0.00000
   85      8.91209    0.00000
   86      9.08041    0.00000
   87      9.21886    0.00000
   88      9.25242    0.00000
   89      9.45053    0.00000
   90      9.62719    0.00000
   91      9.74003    0.00000
   92      9.85339    0.00000
   93      9.94363    0.00000
   94     10.02150    0.00000
   95     10.14437    0.00000
   96     10.27631    0.00000
   97     10.32004    0.00000


Forces in eV/Ang:
  0 C     0.44505    0.16591    2.61682
  1 C     1.47737   -4.04349   -2.23501
  2 C    -0.89265   -6.91887   -1.73355
  3 C     0.43597    0.58365    0.15034
  4 C     1.12769    1.60190    0.10933
  5 C     0.76573   -0.22211    0.20458
  6 C     0.34733   -1.13247   -0.19536
  7 C    -0.32050   -0.02880   -0.23934
  8 C    -0.24742    0.04385   -0.00165
  9 C     0.20284   -0.98352    0.04738
 10 C     0.09889   -0.65161    0.24851
 11 C     4.44560   -6.29008    2.06119
 12 C    -0.35521    0.59808    0.28116
 13 C    -0.01245    0.79915    0.12008
 14 C     0.23475    0.06849    0.46444
 15 C    -1.92453    1.93217    0.91000
 16 C    -0.56066    1.33423   -0.19183
 17 C    -2.94601   -0.86788   -2.26380
 18 C    -1.58461    9.07804    1.30376
 19 C     0.98709    4.20276    0.43228
 20 C    -0.57879    1.05103   -0.76759
 21 C    -1.22042    0.05579   -1.30076
 22 C     0.94787    0.13201    0.20725
 23 C    -0.81832   -0.51934   -0.21315

System changes: positions 

Initializing position-dependent things.

Density initialized from wave functions
           .--------------------------------------.  
          /|                                      |  
         / |                                      |  
        /  |                                      |  
       /   |                                      |  
      /    |                                      |  
     /     |                                      |  
    /      |                                      |  
   /       |          C C                         |  
  /        |   C  C     C                         |  
 *         | C      C     C   C  C                |  
 |         |             C      C                 |  
 |         .---C---C-C------CC--------------------.  
 |        /    C    C  C  C                      /   
 |       /       C                              /    
 |      /                                      /     
 |     /                                      /      
 |    /                                      /       
 |   /                                      /        
 |  /                                      /         
 | /                                      /          
 |/                                      /           
 *--------------------------------------*            

Positions:
   0 C      5.749515    6.074140    5.571593
   1 C      9.407569    5.902497    5.647005
   2 C      8.087818    6.106501    5.709826
   3 C      6.925605    5.282420    5.517447
   4 C      4.586622    4.170541    5.253425
   5 C      4.415878    5.514940    5.381260
   6 C      5.613188    3.379726    5.242829
   7 C      6.945142    3.828995    5.377239
   8 C      8.295395    3.324806    5.459799
   9 C     10.278705    4.859708    5.691892
  10 C      9.496656    3.690143    5.588917
  11 C     11.331311    5.772292    6.068170
  12 C      5.983945   10.030172    6.306911
  13 C      7.147366    9.509326    6.314165
  14 C      4.703966    9.438568    6.280912
  15 C      7.355294    8.129598    6.273270
  16 C      4.926844    8.068089    6.483957
  17 C      6.092518    7.354481    6.320235
  18 C      8.422794    7.368756    5.886638
  19 C     11.073967    6.854342    5.347868
  20 C     11.064238    8.259856    5.382056
  21 C      9.806432    7.677758    5.625504
  22 C      3.296262    9.444540    5.942601
  23 C      2.888372    8.220757    5.674301

Unit cell:
           periodic     x           y           z      points  spacing
  1. axis:    yes   16.000000    0.000000    0.000000    80     0.2000
  2. axis:    yes    0.000000   16.000000    0.000000    80     0.2000
  3. axis:    yes    0.000000    0.000000   10.000000    48     0.2083

Effective grid spacing dv^(1/3) = 0.2027

                     log10-error:    total        iterations:
           time      wfs    density  energy       fermi  poisson
iter:   1  11:34:31          +inf  -172.439197    3      5      
iter:   2  11:34:32         -1.98  -172.385253    3      2      
iter:   3  11:34:32         -2.29  -172.374888    3      2      
iter:   4  11:34:33         -2.43  -172.368095    2      2      
iter:   5  11:34:33         -2.58  -172.367481    2      1      
iter:   6  11:34:34         -2.65  -172.363179    3      2      
iter:   7  11:34:35         -2.81  -172.366122    2      1      
iter:   8  11:34:35         -2.98  -172.364819    2      2      
iter:   9  11:34:36         -3.15  -172.365208    2      1      
iter:  10  11:34:36         -3.37  -172.365284    2      1      
iter:  11  11:34:37         -3.57  -172.364239    2      1      
iter:  12  11:34:38         -3.70  -172.364154    2      1      
iter:  13  11:34:38         -3.86  -172.364174    2      1      
iter:  14  11:34:39         -4.00  -172.363948    2      1      
iter:  15  11:34:39         -4.09  -172.363996    2      1      

Converged after 15 iterations.

Dipole moment: (0.722662, -0.425735, -0.053951) |e|*Ang

Energy contributions relative to reference atoms: (reference = -24663.074771)

Kinetic:       +151.985986
Potential:     -145.263341
External:        +0.000000
XC:            -181.921649
Entropy (-ST):   -0.230159
Local:           +2.950088
--------------------------
Free energy:   -172.479076
Extrapolated:  -172.363996

Fermi level: -4.20948

 Band  Eigenvalues  Occupancy
    0    -25.61412    2.00000
    1    -23.57608    2.00000
    2    -22.41548    2.00000
    3    -22.19476    2.00000
    4    -21.87450    2.00000
    5    -20.44648    2.00000
    6    -20.16142    2.00000
    7    -19.63577    2.00000
    8    -18.96235    2.00000
    9    -18.50953    2.00000
   10    -17.83211    2.00000
   11    -17.29509    2.00000
   12    -16.75537    2.00000
   13    -16.27854    2.00000
   14    -15.53211    2.00000
   15    -14.83288    2.00000
   16    -14.22291    2.00000
   17    -13.88931    2.00000
   18    -13.10122    2.00000
   19    -12.93107    2.00000
   20    -12.65746    2.00000
   21    -12.52077    2.00000
   22    -12.14331    2.00000
   23    -11.82825    2.00000
   24    -11.78862    2.00000
   25    -11.25595    2.00000
   26    -10.84544    2.00000
   27    -10.38109    2.00000
   28    -10.13519    2.00000
   29    -10.05827    2.00000
   30     -9.66717    2.00000
   31     -9.22829    2.00000
   32     -9.14944    2.00000
   33     -8.77402    2.00000
   34     -7.90301    2.00000
   35     -7.69565    2.00000
   36     -7.46340    2.00000
   37     -7.32347    2.00000
   38     -7.19010    2.00000
   39     -7.04429    2.00000
   40     -6.62202    2.00000
   41     -6.36529    2.00000
   42     -5.94148    2.00000
   43     -5.73183    2.00000
   44     -5.28866    1.99996
   45     -5.15055    1.99984
   46     -4.65444    1.97690
   47     -4.36142    1.64089
   48     -4.02497    0.27290
   49     -3.92267    0.10750
   50     -3.51668    0.00196
   51     -3.14790    0.00005
   52     -2.93958    0.00001
   53     -2.63324    0.00000
   54     -2.53042    0.00000
   55     -1.92234    0.00000
   56     -1.85487    0.00000
   57     -1.31552    0.00000
   58     -1.07546    0.00000
   59     -0.72784    0.00000
   60     -0.39962    0.00000
   61      0.04856    0.00000
   62      1.08591    0.00000
   63      1.56058    0.00000
   64      2.11459    0.00000
   65      2.56415    0.00000
   66      2.74283    0.00000
   67      3.36587    0.00000
   68      3.76249    0.00000
   69      4.22686    0.00000
   70      4.60489    0.00000
   71      5.00080    0.00000
   72      5.31984    0.00000
   73      6.07025    0.00000
   74      6.17515    0.00000
   75      6.45284    0.00000
   76      6.75384    0.00000
   77      7.10822    0.00000
   78      7.42864    0.00000
   79      7.88310    0.00000
   80      7.96224    0.00000
   81      8.25042    0.00000
   82      8.40769    0.00000
   83      8.71269    0.00000
   84      8.86272    0.00000
   85      8.93890    0.00000
   86      9.09366    0.00000
   87      9.20039    0.00000
   88      9.25933    0.00000
   89      9.47887    0.00000
   90      9.65208    0.00000
   91      9.75482    0.00000
   92      9.85337    0.00000
   93      9.92766    0.00000
   94     10.02036    0.00000
   95     10.11930    0.00000
   96     10.29047    0.00000
   97     10.32730    0.00000


Forces in eV/Ang:
  0 C     0.37047    0.03774    2.27989
  1 C     1.29622   -3.28263   -2.17003
  2 C    -0.77206   -5.61250   -1.46753
  3 C     0.41752    0.46384    0.20451
  4 C     1.11911    1.40472    0.09280
  5 C     0.69393   -0.10441    0.26143
  6 C     0.33631   -1.10088   -0.20029
  7 C    -0.29454   -0.00278   -0.22967
  8 C    -0.14355    0.06737   -0.00014
  9 C     0.34788   -0.87074    0.00730
 10 C     0.06155   -0.68277    0.22058
 11 C     4.02520   -5.38257    1.42375
 12 C    -0.38265    0.68308    0.25966
 13 C    -0.01129    0.79411    0.16071
 14 C     0.21172    0.22648    0.45622
 15 C    -1.76400    1.59147    0.71392
 16 C    -0.74107    1.16424   -0.22953
 17 C    -2.60645   -0.52582   -1.95859
 18 C    -1.30859    7.40284    1.02327
 19 C     0.92674    3.26074    0.94186
 20 C    -0.64633    0.91499   -0.67594
 21 C    -1.16762   -0.05066   -1.18214
 22 C     0.81800    0.05041    0.18839
 23 C    -0.80007   -0.43795   -0.20300

System changes: positions 

Initializing position-dependent things.

Density initialized from wave functions
           .--------------------------------------.  
          /|                                      |  
         / |                                      |  
        /  |                                      |  
       /   |                                      |  
      /    |                                      |  
     /     |                                      |  
    /      |                                      |  
   /       |          C C                         |  
  /        |   C  C     C                         |  
 *         | C      C     C   C  C                |  
 |         |       C     C      C                 |  
 |         .---C-----C------CC--------------------.  
 |        /    C    C  C  C                      /   
 |       /       C                              /    
 |      /                                      /     
 |     /                                      /      
 |    /                                      /       
 |   /                                      /        
 |  /                                      /         
 | /                                      /          
 |/                                      /           
 *--------------------------------------*            

Positions:
   0 C      5.752482    6.073093    5.588991
   1 C      9.415509    5.889960    5.627481
   2 C      8.095149    6.100803    5.703797
   3 C      6.930361    5.283860    5.519967
   4 C      4.598826    4.179753    5.254377
   5 C      4.421422    5.516430    5.384376
   6 C      5.614300    3.370109    5.240890
   7 C      6.942857    3.829563    5.375050
   8 C      8.294067    3.325473    5.459613
   9 C     10.288588    4.850528    5.690618
  10 C      9.496828    3.682335    5.590660
  11 C     11.360842    5.745943    6.062364
  12 C      5.981116   10.037609    6.309168
  13 C      7.145727    9.519009    6.316522
  14 C      4.705296    9.444446    6.284941
  15 C      7.337834    8.137464    6.277294
  16 C      4.916789    8.075213    6.481422
  17 C      6.073966    7.354748    6.305882
  18 C      8.407738    7.385075    5.887432
  19 C     11.080040    6.860047    5.375510
  20 C     11.055724    8.265879    5.377442
  21 C      9.796197    7.674317    5.616162
  22 C      3.301914    9.442019    5.943885
  23 C      2.881485    8.219252    5.672798

Unit cell:
           periodic     x           y           z      points  spacing
  1. axis:    yes   16.000000    0.000000    0.000000    80     0.2000
  2. axis:    yes    0.000000   16.000000    0.000000    80     0.2000
  3. axis:    yes    0.000000    0.000000   10.000000    48     0.2083

Effective grid spacing dv^(1/3) = 0.2027

                     log10-error:    total        iterations:
           time      wfs    density  energy       fermi  poisson
iter:   1  11:34:42          +inf  -173.275584    3      5      
iter:   2  11:34:42         -2.02  -173.229229    3      2      
iter:   3  11:34:43         -2.33  -173.220274    3      2      
iter:   4  11:34:43         -2.49  -173.217582    2      2      
iter:   5  11:34:44         -2.63  -173.217064    2      1      
iter:   6  11:34:45         -2.68  -173.213128    3      2      
iter:   7  11:34:45         -2.84  -173.216137    2      2      
iter:   8  11:34:46         -2.97  -173.216231    2      1      
iter:   9  11:34:46         -3.21  -173.214708    2      1      
iter:  10  11:34:47         -3.33  -173.215166    2      1      
iter:  11  11:34:48         -3.46  -173.214503    2      1      
iter:  12  11:34:48         -3.71  -173.213402    2      1      
iter:  13  11:34:49         -3.80  -173.213556    1      1      
iter:  14  11:34:49         -3.88  -173.213896    2      1      
iter:  15  11:34:50         -4.09  -173.213722    2      1      

Converged after 15 iterations.

Dipole moment: (0.686708, -0.355537, -0.042154) |e|*Ang

Energy contributions relative to reference atoms: (reference = -24663.074771)

Kinetic:       +149.133960
Potential:     -143.721288
External:        +0.000000
XC:            -181.474753
Entropy (-ST):   -0.201704
Local:           +2.949211
--------------------------
Free energy:   -173.314573
Extrapolated:  -173.213722

Fermi level: -4.20556

 Band  Eigenvalues  Occupancy
    0    -25.43093    2.00000
    1    -23.44870    2.00000
    2    -22.39521    2.00000
    3    -22.17500    2.00000
    4    -21.88913    2.00000
    5    -20.46705    2.00000
    6    -20.15561    2.00000
    7    -19.65309    2.00000
    8    -18.95156    2.00000
    9    -18.53799    2.00000
   10    -17.85402    2.00000
   11    -17.27395    2.00000
   12    -16.66464    2.00000
   13    -16.31010    2.00000
   14    -15.54914    2.00000
   15    -14.78990    2.00000
   16    -14.19176    2.00000
   17    -13.90841    2.00000
   18    -13.11207    2.00000
   19    -12.93067    2.00000
   20    -12.66686    2.00000
   21    -12.48125    2.00000
   22    -12.13146    2.00000
   23    -11.83682    2.00000
   24    -11.75201    2.00000
   25    -11.29010    2.00000
   26    -10.82058    2.00000
   27    -10.34257    2.00000
   28    -10.17081    2.00000
   29    -10.02549    2.00000
   30     -9.70841    2.00000
   31     -9.28720    2.00000
   32     -9.20219    2.00000
   33     -8.79459    2.00000
   34     -7.90418    2.00000
   35     -7.72933    2.00000
   36     -7.49236    2.00000
   37     -7.30003    2.00000
   38     -7.22411    2.00000
   39     -7.03736    2.00000
   40     -6.62354    2.00000
   41     -6.37867    2.00000
   42     -5.98333    2.00000
   43     -5.75735    2.00000
   44     -5.31714    1.99997
   45     -5.16991    1.99987
   46     -4.69726    1.98546
   47     -4.37603    1.69228
   48     -4.01288    0.25421
   49     -3.86714    0.06559
   50     -3.54012    0.00257
   51     -3.11337    0.00004
   52     -2.91045    0.00000
   53     -2.65386    0.00000
   54     -2.54510    0.00000
   55     -1.94176    0.00000
   56     -1.84344    0.00000
   57     -1.23427    0.00000
   58     -1.09595    0.00000
   59     -0.71552    0.00000
   60     -0.40194    0.00000
   61      0.10803    0.00000
   62      1.06878    0.00000
   63      1.54260    0.00000
   64      2.13602    0.00000
   65      2.54036    0.00000
   66      2.78128    0.00000
   67      3.36792    0.00000
   68      3.71496    0.00000
   69      4.21192    0.00000
   70      4.67474    0.00000
   71      5.08133    0.00000
   72      5.30279    0.00000
   73      6.04903    0.00000
   74      6.15705    0.00000
   75      6.48431    0.00000
   76      6.67984    0.00000
   77      7.12625    0.00000
   78      7.48428    0.00000
   79      7.91094    0.00000
   80      7.98827    0.00000
   81      8.27037    0.00000
   82      8.43097    0.00000
   83      8.73825    0.00000
   84      8.88650    0.00000
   85      8.95241    0.00000
   86      9.09053    0.00000
   87      9.17847    0.00000
   88      9.25329    0.00000
   89      9.49958    0.00000
   90      9.67655    0.00000
   91      9.74710    0.00000
   92      9.81534    0.00000
   93      9.89835    0.00000
   94     10.02558    0.00000
   95     10.10728    0.00000
   96     10.28919    0.00000
   97     10.30631    0.00000


Forces in eV/Ang:
  0 C     0.31980   -0.06594    1.97221
  1 C     1.11826   -2.62204   -2.02562
  2 C    -0.65004   -4.51977   -1.26082
  3 C     0.36278    0.35859    0.25124
  4 C     1.16188    1.17349    0.06164
  5 C     0.65988   -0.06693    0.31623
  6 C     0.24880   -1.02144   -0.19918
  7 C    -0.23756    0.00622   -0.21462
  8 C    -0.16900    0.07142   -0.01565
  9 C     0.45353   -0.75100   -0.02366
 10 C     0.14423   -0.64452    0.21255
 11 C     3.60257   -4.61678    0.93728
 12 C    -0.26692    0.71921    0.24532
 13 C    -0.11437    0.82663    0.19408
 14 C     0.16599    0.37811    0.44725
 15 C    -1.58404    1.36726    0.58560
 16 C    -0.87160    1.00244   -0.26085
 17 C    -2.27617   -0.23482   -1.65640
 18 C    -1.12865    5.96063    0.79653
 19 C     0.89666    2.58756    1.24572
 20 C    -0.70213    0.70892   -0.54751
 21 C    -1.00512   -0.15182   -1.06447
 22 C     0.68204   -0.03452    0.17016
 23 C    -0.77572   -0.34756   -0.19042

System changes: positions 

Initializing position-dependent things.

Density initialized from wave functions
           .--------------------------------------.  
          /|                                      |  
         / |                                      |  
        /  |                                      |  
       /   |                                      |  
      /    |                                      |  
     /     |                                      |  
    /      |                                      |  
   /       |          C C                         |  
  /        |   C  C     C                         |  
 *         | C      C     C   C  C                |  
 |         |       C     C      C                 |  
 |         .---C-----C------CC--------------------.  
 |        /    C    C  C  C                      /   
 |       /       C                              /    
 |      /                                      /     
 |     /                                      /      
 |    /                                      /       
 |   /                                      /        
 |  /                                      /         
 | /                                      /          
 |/                                      /           
 *--------------------------------------*            

Positions:
   0 C      5.755132    6.070951    5.605216
   1 C      9.422819    5.879209    5.607750
   2 C      8.101142    6.095375    5.697541
   3 C      6.934402    5.284843    5.523182
   4 C      4.612347    4.188027    5.254949
   5 C      4.427403    5.517750    5.388380
   6 C      5.615018    3.360354    5.238785
   7 C      6.940968    3.830058    5.372851
   8 C      8.292222    3.326267    5.459249
   9 C     10.298745    4.842429    5.689218
  10 C      9.498359    3.674766    5.592584
  11 C     11.390242    5.719743    6.055355
  12 C      5.979402   10.045994    6.311521
  13 C      7.142953    9.529405    6.319316
  14 C      4.706329    9.451793    6.289363
  15 C      7.321525    8.145428    6.280833
  16 C      4.904878    8.082122    6.478294
  17 C      6.056083    7.357405    6.292934
  18 C      8.393814    7.399503    5.887984
  19 C     11.087344    6.864959    5.404134
  20 C     11.046462    8.270505    5.373580
  21 C      9.786915    7.670133    5.606878
  22 C      3.306924    9.439076    5.945209
  23 C      2.873984    8.217959    5.671173

Unit cell:
           periodic     x           y           z      points  spacing
  1. axis:    yes   16.000000    0.000000    0.000000    80     0.2000
  2. axis:    yes    0.000000   16.000000    0.000000    80     0.2000
  3. axis:    yes    0.000000    0.000000   10.000000    48     0.2083

Effective grid spacing dv^(1/3) = 0.2027

                     log10-error:    total        iterations:
           time      wfs    density  energy       fermi  poisson
iter:   1  11:34:52          +inf  -173.993237    3      5      
iter:   2  11:34:53         -2.06  -173.953710    3      2      
iter:   3  11:34:53         -2.34  -173.945385    3      2      
iter:   4  11:34:54         -2.53  -173.944302    3      2      
iter:   5  11:34:55         -2.65  -173.941723    2      2      
iter:   6  11:34:55         -2.78  -173.941388    2      2      
iter:   7  11:34:56         -2.91  -173.941997    2      2      
iter:   8  11:34:56         -3.21  -173.942312    2      1      
iter:   9  11:34:57         -3.30  -173.943505    2      1      
iter:  10  11:34:58         -3.67  -173.941112    2      1      
iter:  11  11:34:58         -3.72  -173.941065    2      1      
iter:  12  11:34:59         -3.82  -173.941679    2      1      
iter:  13  11:34:59         -3.95  -173.940550    2      1      
iter:  14  11:35:00         -4.14  -173.940700    2      1      

Converged after 14 iterations.

Dipole moment: (0.643435, -0.279585, -0.029104) |e|*Ang

Energy contributions relative to reference atoms: (reference = -24663.074771)

Kinetic:       +146.328184
Potential:     -142.115759
External:        +0.000000
XC:            -180.999523
Entropy (-ST):   -0.178672
Local:           +2.935734
--------------------------
Free energy:   -174.030036
Extrapolated:  -173.940700

Fermi level: -4.20583

 Band  Eigenvalues  Occupancy
    0    -25.26199    2.00000
    1    -23.34059    2.00000
    2    -22.37891    2.00000
    3    -22.14592    2.00000
    4    -21.89389    2.00000
    5    -20.48670    2.00000
    6    -20.14786    2.00000
    7    -19.66732    2.00000
    8    -18.93483    2.00000
    9    -18.56907    2.00000
   10    -17.87457    2.00000
   11    -17.24750    2.00000
   12    -16.58080    2.00000
   13    -16.34039    2.00000
   14    -15.56813    2.00000
   15    -14.75480    2.00000
   16    -14.16866    2.00000
   17    -13.91364    2.00000
   18    -13.12666    2.00000
   19    -12.92336    2.00000
   20    -12.68838    2.00000
   21    -12.44368    2.00000
   22    -12.11526    2.00000
   23    -11.84362    2.00000
   24    -11.69957    2.00000
   25    -11.31720    2.00000
   26    -10.79570    2.00000
   27    -10.31828    2.00000
   28    -10.22316    2.00000
   29     -9.96767    2.00000
   30     -9.73684    2.00000
   31     -9.35259    2.00000
   32     -9.21930    2.00000
   33     -8.80518    2.00000
   34     -7.90050    2.00000
   35     -7.76743    2.00000
   36     -7.52146    2.00000
   37     -7.28614    2.00000
   38     -7.23805    2.00000
   39     -7.02931    2.00000
   40     -6.62071    2.00000
   41     -6.38291    2.00000
   42     -6.03126    2.00000
   43     -5.77923    2.00000
   44     -5.34790    1.99998
   45     -5.19671    1.99990
   46     -4.74126    1.99059
   47     -4.39286    1.73298
   48     -4.00390    0.23437
   49     -3.81307    0.03862
   50     -3.57203    0.00353
   51     -3.08414    0.00003
   52     -2.88129    0.00000
   53     -2.69347    0.00000
   54     -2.51953    0.00000
   55     -1.96603    0.00000
   56     -1.83769    0.00000
   57     -1.14346    0.00000
   58     -1.11660    0.00000
   59     -0.70294    0.00000
   60     -0.39980    0.00000
   61      0.16559    0.00000
   62      1.05031    0.00000
   63      1.51677    0.00000
   64      2.13972    0.00000
   65      2.54386    0.00000
   66      2.81804    0.00000
   67      3.36449    0.00000
   68      3.67585    0.00000
   69      4.19664    0.00000
   70      4.72758    0.00000
   71      5.14204    0.00000
   72      5.28725    0.00000
   73      5.99830    0.00000
   74      6.12354    0.00000
   75      6.49042    0.00000
   76      6.62602    0.00000
   77      7.14403    0.00000
   78      7.52096    0.00000
   79      7.91774    0.00000
   80      8.00503    0.00000
   81      8.27156    0.00000
   82      8.45928    0.00000
   83      8.76169    0.00000
   84      8.91039    0.00000
   85      8.94646    0.00000
   86      9.06300    0.00000
   87      9.16584    0.00000
   88      9.24346    0.00000
   89      9.50763    0.00000
   90      9.66137    0.00000
   91      9.70165    0.00000
   92      9.79991    0.00000
   93      9.88970    0.00000
   94     10.03577    0.00000
   95     10.10515    0.00000
   96     10.27853    0.00000
   97     10.28311    0.00000


Forces in eV/Ang:
  0 C     0.25049   -0.07400    1.71145
  1 C     0.92933   -2.11052   -1.87806
  2 C    -0.54903   -3.59175   -1.09095
  3 C     0.31272    0.24965    0.28478
  4 C     1.10142    0.98244    0.03097
  5 C     0.52925    0.00011    0.36048
  6 C     0.24936   -0.97731   -0.18257
  7 C    -0.20730    0.00513   -0.19785
  8 C    -0.03561    0.10051   -0.01098
  9 C     0.50496   -0.63961   -0.03974
 10 C     0.09402   -0.63359    0.19094
 11 C     3.14404   -3.86695    0.53280
 12 C    -0.30346    0.78310    0.24206
 13 C    -0.09454    0.74125    0.22829
 14 C     0.16127    0.47657    0.42562
 15 C    -1.43080    1.18751    0.43874
 16 C    -0.95324    0.90255   -0.28771
 17 C    -1.97188   -0.04211   -1.43777
 18 C    -0.93948    4.74709    0.58747
 19 C     0.93393    1.96883    1.44343
 20 C    -0.70042    0.52241   -0.42795
 21 C    -0.92712   -0.25172   -0.95890
 22 C     0.60082   -0.12356    0.16670
 23 C    -0.74736   -0.27951   -0.17351

System changes: positions 

Initializing position-dependent things.

Density initialized from wave functions
           .--------------------------------------.  
          /|                                      |  
         / |                                      |  
        /  |                                      |  
       /   |                                      |  
      /    |                                      |  
     /     |                                      |  
    /      |                                      |  
   /       |          C C                         |  
  /        |   C  C     C                         |  
 *         | C      C     C   C  C                |  
 |         |       C     C      C                 |  
 |         .---C-----C------CC--------------------.  
[...]
    3    -21.49426    2.00000
    4    -20.88961    2.00000
    5    -20.23427    2.00000
    6    -19.85975    2.00000
    7    -18.97601    2.00000
    8    -18.83470    2.00000
    9    -18.27231    2.00000
   10    -17.77918    2.00000
   11    -17.12529    2.00000
   12    -16.37563    2.00000
   13    -15.83508    2.00000
   14    -15.71584    2.00000
   15    -14.60235    2.00000
   16    -14.26482    2.00000
   17    -13.68642    2.00000
   18    -13.35322    2.00000
   19    -12.71977    2.00000
   20    -12.49827    2.00000
   21    -12.10922    2.00000
   22    -11.39803    2.00000
   23    -11.25472    2.00000
   24    -11.01290    2.00000
   25    -10.92717    2.00000
   26    -10.55496    2.00000
   27    -10.46954    2.00000
   28     -9.82655    2.00000
   29     -9.66222    2.00000
   30     -9.48554    2.00000
   31     -9.31322    2.00000
   32     -9.03466    2.00000
   33     -8.95190    2.00000
   34     -8.26116    2.00000
   35     -7.95354    2.00000
   36     -7.51981    2.00000
   37     -7.12340    2.00000
   38     -6.80200    2.00000
   39     -6.73056    2.00000
   40     -6.62964    2.00000
   41     -6.57085    2.00000
   42     -6.44627    2.00000
   43     -6.19436    2.00000
   44     -5.71619    2.00000
   45     -5.21678    1.99932
   46     -4.62501    1.77629
   47     -4.49728    1.37765
   48     -4.38559    0.84027
   49     -3.84416    0.00643
   50     -3.32550    0.00004
   51     -2.67696    0.00000
   52     -2.38286    0.00000
   53     -2.08792    0.00000
   54     -2.07836    0.00000
   55     -1.93352    0.00000
   56     -1.78356    0.00000
   57     -1.59663    0.00000
   58     -0.47114    0.00000
   59      0.12244    0.00000
   60      0.54659    0.00000
   61      1.52278    0.00000
   62      1.66501    0.00000
   63      2.14599    0.00000
   64      2.85528    0.00000
   65      3.17789    0.00000
   66      3.25716    0.00000
   67      3.75412    0.00000
   68      4.32965    0.00000
   69      4.74556    0.00000
   70      4.94883    0.00000
   71      5.15202    0.00000
   72      5.32237    0.00000
   73      5.94790    0.00000
   74      6.02860    0.00000
   75      6.49501    0.00000
   76      6.85554    0.00000
   77      6.94179    0.00000
   78      7.57631    0.00000
   79      7.81904    0.00000
   80      8.09496    0.00000
   81      8.41189    0.00000
   82      8.74506    0.00000
   83      8.83595    0.00000
   84      8.94841    0.00000
   85      8.97653    0.00000
   86      9.04812    0.00000
   87      9.27692    0.00000
   88      9.36430    0.00000
   89      9.44603    0.00000
   90      9.60724    0.00000
   91      9.74149    0.00000
   92      9.80237    0.00000
   93      9.88473    0.00000
   94     10.04125    0.00000
   95     10.21293    0.00000
   96     10.31594    0.00000
   97     10.43660    0.00000


Forces in eV/Ang:
  0 C     0.03376   -0.00362    0.09334
  1 C     0.00972   -0.01187   -0.10011
  2 C    -0.01325   -0.03237    0.03708
  3 C     0.07159    0.04468    0.00587
  4 C     0.01530    0.03238   -0.00679
  5 C     0.03923    0.05264    0.03542
  6 C     0.03201    0.04997   -0.03349
  7 C     0.01265    0.01719   -0.11048
  8 C    -0.05848   -0.06617    0.02678
  9 C    -0.08690    0.00383    0.04760
 10 C     0.05912   -0.10119    0.01586
 11 C     0.03644    0.03454   -0.03623
 12 C     0.01579   -0.09045   -0.05021
 13 C    -0.08646   -0.07714   -0.04833
 14 C    -0.17472   -0.04839   -0.02823
 15 C     0.00071   -0.04664    0.05203
 16 C     0.02034   -0.02049    0.04642
 17 C     0.02283    0.02030   -0.03082
 18 C     0.01115    0.02731    0.03034
 19 C     0.01636    0.03013    0.04215
 20 C    -0.04884   -0.01635   -0.02601
 21 C    -0.03696   -0.01245    0.00577
 22 C     0.10462    0.01304    0.02905
 23 C    -0.00674    0.10961   -0.01111

System changes: positions 

Initializing position-dependent things.

Density initialized from wave functions
           .--------------------------------------.  
          /|                                      |  
         / |                                      |  
        /  |                                      |  
       /   |                                      |  
      /    |                                      |  
     /     |                                      |  
    /      |                                      |  
   /       |      C   C C                         |  
  /        |   C                                  |  
 *         | C   C  C  C  C  C   C                |  
 |         |       C    C         C               |  
 |         .---C-----C------CC---C----------------.  
 |        /    C    C  C   C                     /   
 |       /       C                              /    
 |      /                                      /     
 |     /                                      /      
 |    /                                      /       
 |   /                                      /        
 |  /                                      /         
 | /                                      /          
 |/                                      /           
 *--------------------------------------*            

Positions:
   0 C      5.658802    6.117908    5.639498
   1 C      9.477166    5.943931    5.567025
   2 C      8.058829    6.137711    5.573203
   3 C      6.899730    5.360432    5.528330
   4 C      4.769616    4.082420    5.499471
   5 C      4.459066    5.357048    5.597252
   6 C      5.722760    3.175816    5.407637
   7 C      6.968788    3.874303    5.426237
   8 C      8.326944    3.425005    5.373316
   9 C     10.393627    4.862382    5.517411
  10 C      9.554550    3.694812    5.401539
  11 C     11.753592    5.315778    5.651629
  12 C      5.832924   10.411711    6.446901
  13 C      6.888583    9.704608    6.258571
  14 C      4.629008    9.785216    6.269283
  15 C      7.080212    8.348729    5.958265
  16 C      4.586698    8.352811    5.962963
  17 C      5.730791    7.586920    5.848001
  18 C      8.220730    7.562980    5.775558
  19 C     11.743909    6.623970    5.798452
  20 C     11.089522    7.798419    5.911414
  21 C      9.752011    7.355571    5.764684
  22 C      3.287859    9.260958    6.290498
  23 C      2.928228    8.026868    5.884285

Unit cell:
           periodic     x           y           z      points  spacing
  1. axis:    yes   16.000000    0.000000    0.000000    80     0.2000
  2. axis:    yes    0.000000   16.000000    0.000000    80     0.2000
  3. axis:    yes    0.000000    0.000000   10.000000    48     0.2083

Effective grid spacing dv^(1/3) = 0.2027

                     log10-error:    total        iterations:
           time      wfs    density  energy       fermi  poisson
iter:   1  11:42:27          +inf  -180.256935    3      5      
iter:   2  11:42:28         -2.64  -180.250484    3      1      
iter:   3  11:42:29         -2.93  -180.247183    2      1      
iter:   4  11:42:29         -3.08  -180.246878    2      1      
iter:   5  11:42:30         -3.15  -180.246540    2      1      
iter:   6  11:42:30         -3.32  -180.244488    2      1      
iter:   7  11:42:31         -3.25  -180.246523    2      1      
iter:   8  11:42:31         -3.49  -180.246809    2      1      
iter:   9  11:42:32         -3.49  -180.247104    2      1      
iter:  10  11:42:33         -3.62  -180.247301    2      1      
iter:  11  11:42:33         -3.84  -180.247463    1      1      
iter:  12  11:42:34         -3.94  -180.247208    2      1      
iter:  13  11:42:34         -4.04  -180.247085    2      1      

Converged after 13 iterations.

Dipole moment: (-0.166207, 0.659838, 0.102943) |e|*Ang

Energy contributions relative to reference atoms: (reference = -24663.074771)

Kinetic:       +112.428762
Potential:     -118.315274
External:        +0.000000
XC:            -177.166778
Entropy (-ST):   -0.334576
Local:           +2.973493
--------------------------
Free energy:   -180.414373
Extrapolated:  -180.247085

Fermi level: -4.41728

 Band  Eigenvalues  Occupancy
    0    -24.16112    2.00000
    1    -23.19755    2.00000
    2    -21.92722    2.00000
    3    -21.50127    2.00000
    4    -20.89140    2.00000
    5    -20.23534    2.00000
    6    -19.86060    2.00000
    7    -18.98021    2.00000
    8    -18.83771    2.00000
    9    -18.27436    2.00000
   10    -17.78511    2.00000
   11    -17.14383    2.00000
   12    -16.37707    2.00000
   13    -15.83825    2.00000
   14    -15.72049    2.00000
   15    -14.61171    2.00000
   16    -14.27340    2.00000
   17    -13.69118    2.00000
   18    -13.35842    2.00000
   19    -12.72598    2.00000
   20    -12.50214    2.00000
   21    -12.11421    2.00000
   22    -11.40014    2.00000
   23    -11.25168    2.00000
   24    -11.02350    2.00000
   25    -10.93387    2.00000
   26    -10.55726    2.00000
   27    -10.47763    2.00000
   28     -9.82490    2.00000
   29     -9.66660    2.00000
   30     -9.48802    2.00000
   31     -9.30921    2.00000
   32     -9.03998    2.00000
   33     -8.95008    2.00000
   34     -8.26318    2.00000
   35     -7.95434    2.00000
   36     -7.52038    2.00000
   37     -7.11920    2.00000
   38     -6.79616    2.00000
   39     -6.73582    2.00000
   40     -6.62940    2.00000
   41     -6.56798    2.00000
   42     -6.44477    2.00000
   43     -6.19964    2.00000
   44     -5.71522    2.00000
   45     -5.22061    1.99935
   46     -4.62550    1.77831
   47     -4.49652    1.37667
   48     -4.38490    0.83951
   49     -3.83883    0.00613
   50     -3.31436    0.00003
   51     -2.63846    0.00000
   52     -2.37863    0.00000
   53     -2.07635    0.00000
   54     -2.07271    0.00000
   55     -1.93100    0.00000
   56     -1.79650    0.00000
   57     -1.60934    0.00000
   58     -0.46713    0.00000
   59      0.12353    0.00000
   60      0.56398    0.00000
   61      1.53618    0.00000
   62      1.60858    0.00000
   63      2.14598    0.00000
   64      2.84675    0.00000
   65      3.18056    0.00000
   66      3.24680    0.00000
   67      3.76166    0.00000
   68      4.33093    0.00000
   69      4.74987    0.00000
   70      4.95151    0.00000
   71      5.16562    0.00000
   72      5.32468    0.00000
   73      5.95926    0.00000
   74      6.03797    0.00000
   75      6.49905    0.00000
   76      6.85573    0.00000
   77      6.95027    0.00000
   78      7.57752    0.00000
   79      7.82518    0.00000
   80      8.10222    0.00000
   81      8.41997    0.00000
   82      8.74390    0.00000
   83      8.84043    0.00000
   84      8.94388    0.00000
   85      8.97549    0.00000
   86      9.04948    0.00000
   87      9.27475    0.00000
   88      9.36847    0.00000
   89      9.46353    0.00000
   90      9.61191    0.00000
   91      9.74745    0.00000
   92      9.80151    0.00000
   93      9.89008    0.00000
   94     10.03858    0.00000
   95     10.21214    0.00000
   96     10.31613    0.00000
   97     10.43614    0.00000


Forces in eV/Ang:
  0 C     0.02425    0.00687    0.06266
  1 C    -0.01963    0.03923   -0.06597
  2 C     0.01043   -0.00597    0.02087
  3 C     0.04567    0.02188    0.00360
  4 C     0.01260    0.01295   -0.00018
  5 C     0.02595    0.04394    0.03619
  6 C     0.01963    0.02897   -0.04133
  7 C     0.00524    0.01220   -0.08398
  8 C    -0.02671   -0.04928   -0.00170
  9 C    -0.01719   -0.02636    0.02832
 10 C     0.04154   -0.08822    0.03653
 11 C     0.00732    0.02268   -0.03457
 12 C    -0.01988   -0.04896   -0.04461
 13 C    -0.04935   -0.06578   -0.03222
 14 C    -0.04974    0.01063   -0.01445
 15 C    -0.02390   -0.01772    0.02499
 16 C     0.03310   -0.05743    0.01396
 17 C    -0.02039    0.02125   -0.01031
 18 C     0.02110   -0.02100    0.02300
 19 C     0.03749   -0.00096    0.03212
 20 C    -0.04435    0.00202   -0.00988
 21 C    -0.01157   -0.02235    0.02896
 22 C     0.02866    0.04017    0.05473
 23 C    -0.01229    0.01609   -0.02875

System changes: positions 

Initializing position-dependent things.

Density initialized from wave functions
           .--------------------------------------.  
          /|                                      |  
         / |                                      |  
        /  |                                      |  
       /   |                                      |  
      /    |                                      |  
     /     |                                      |  
    /      |                                      |  
   /       |      C   C C                         |  
  /        |   C                                  |  
 *         | C   C  C  C  C  C   C                |  
 |         |       C    C         C               |  
 |         .---C-----C------CC---C----------------.  
 |        /    C    C  C   C                     /   
 |       /       C                              /    
 |      /                                      /     
 |     /                                      /      
 |    /                                      /       
 |   /                                      /        
 |  /                                      /         
 | /                                      /          
 |/                                      /           
 *--------------------------------------*            

Positions:
   0 C      5.660391    6.118014    5.642111
   1 C      9.477548    5.943892    5.560173
   2 C      8.060042    6.136295    5.569845
   3 C      6.901597    5.360587    5.526715
   4 C      4.771520    4.083657    5.493517
   5 C      4.461247    5.357711    5.599069
   6 C      5.724377    3.177158    5.399589
   7 C      6.970532    3.874331    5.421779
   8 C      8.328349    3.421773    5.381209
   9 C     10.394161    4.861337    5.523125
  10 C      9.556794    3.689976    5.415428
  11 C     11.754651    5.318299    5.652743
  12 C      5.833593   10.408471    6.449947
  13 C      6.887557    9.699214    6.264889
  14 C      4.629156    9.784561    6.276353
  15 C      7.079264    8.345322    5.964205
  16 C      4.586051    8.351290    5.970452
  17 C      5.729007    7.586442    5.851215
  18 C      8.220577    7.562120    5.773778
  19 C     11.743515    6.627579    5.794994
  20 C     11.086950    7.802302    5.900459
  21 C      9.750605    7.356453    5.756874
  22 C      3.288762    9.269343    6.279234
  23 C      2.922190    8.035043    5.880455

Unit cell:
           periodic     x           y           z      points  spacing
  1. axis:    yes   16.000000    0.000000    0.000000    80     0.2000
  2. axis:    yes    0.000000   16.000000    0.000000    80     0.2000
  3. axis:    yes    0.000000    0.000000   10.000000    48     0.2083

Effective grid spacing dv^(1/3) = 0.2027

                     log10-error:    total        iterations:
           time      wfs    density  energy       fermi  poisson
iter:   1  11:42:36          +inf  -180.259297    2      5      
iter:   2  11:42:37         -2.65  -180.252516    2      1      
iter:   3  11:42:38         -2.94  -180.248995    2      1      
iter:   4  11:42:38         -3.11  -180.249768    2      1      
iter:   5  11:42:39         -3.22  -180.248299    2      1      
iter:   6  11:42:39         -3.34  -180.251150    2      1      
iter:   7  11:42:40         -3.15  -180.248724    2      1      
iter:   8  11:42:40         -3.71  -180.248796    2      1      
iter:   9  11:42:41         -3.86  -180.249100    2      1      
iter:  10  11:42:42         -3.97  -180.249058    2      1      
iter:  11  11:42:42         -4.26  -180.248995    2      1      

Converged after 11 iterations.

Dipole moment: (-0.167069, 0.664662, 0.105781) |e|*Ang

Energy contributions relative to reference atoms: (reference = -24663.074771)

Kinetic:       +112.713291
Potential:     -118.530912
External:        +0.000000
XC:            -177.232410
Entropy (-ST):   -0.333812
Local:           +2.967943
--------------------------
Free energy:   -180.415901
Extrapolated:  -180.248995

Fermi level: -4.41446

 Band  Eigenvalues  Occupancy
    0    -24.17043    2.00000
    1    -23.19942    2.00000
    2    -21.92696    2.00000
    3    -21.50630    2.00000
    4    -20.88975    2.00000
    5    -20.23313    2.00000
    6    -19.86168    2.00000
    7    -18.98007    2.00000
    8    -18.83783    2.00000
    9    -18.27693    2.00000
   10    -17.78829    2.00000
   11    -17.15076    2.00000
   12    -16.37319    2.00000
   13    -15.83870    2.00000
   14    -15.72623    2.00000
   15    -14.61661    2.00000
   16    -14.28355    2.00000
   17    -13.69229    2.00000
   18    -13.36200    2.00000
   19    -12.72844    2.00000
   20    -12.50676    2.00000
   21    -12.11955    2.00000
   22    -11.40014    2.00000
   23    -11.24846    2.00000
   24    -11.03003    2.00000
   25    -10.94283    2.00000
   26    -10.55648    2.00000
   27    -10.48576    2.00000
   28     -9.82597    2.00000
   29     -9.67281    2.00000
   30     -9.48722    2.00000
   31     -9.30328    2.00000
   32     -9.04025    2.00000
   33     -8.94630    2.00000
   34     -8.26545    2.00000
   35     -7.95334    2.00000
   36     -7.52269    2.00000
   37     -7.11811    2.00000
   38     -6.79038    2.00000
   39     -6.74047    2.00000
   40     -6.62565    2.00000
   41     -6.56324    2.00000
   42     -6.44362    2.00000
   43     -6.19900    2.00000
   44     -5.71486    2.00000
   45     -5.22244    1.99938
   46     -4.62371    1.78035
   47     -4.49391    1.37762
   48     -4.38151    0.83674
   49     -3.83176    0.00588
   50     -3.30877    0.00003
   51     -2.61901    0.00000
   52     -2.38117    0.00000
   53     -2.07814    0.00000
   54     -2.06861    0.00000
   55     -1.93327    0.00000
   56     -1.81342    0.00000
   57     -1.62420    0.00000
   58     -0.46436    0.00000
   59      0.12733    0.00000
   60      0.57296    0.00000
   61      1.54200    0.00000
   62      1.57450    0.00000
   63      2.14445    0.00000
   64      2.84521    0.00000
   65      3.18601    0.00000
   66      3.24232    0.00000
   67      3.77401    0.00000
   68      4.32784    0.00000
   69      4.75383    0.00000
   70      4.94998    0.00000
   71      5.17045    0.00000
   72      5.32765    0.00000
   73      5.97307    0.00000
   74      6.04397    0.00000
   75      6.50163    0.00000
   76      6.85006    0.00000
   77      6.95525    0.00000
   78      7.58034    0.00000
   79      7.83000    0.00000
   80      8.10448    0.00000
   81      8.42214    0.00000
   82      8.74256    0.00000
   83      8.84718    0.00000
   84      8.94059    0.00000
   85      8.97057    0.00000
   86      9.05179    0.00000
   87      9.27462    0.00000
   88      9.36932    0.00000
   89      9.47580    0.00000
   90      9.61597    0.00000
   91      9.75150    0.00000
   92      9.80060    0.00000
   93      9.89319    0.00000
   94     10.03596    0.00000
   95     10.20942    0.00000
   96     10.31691    0.00000
   97     10.43228    0.00000


Forces in eV/Ang:
  0 C     0.01989   -0.01315    0.03446
  1 C     0.00708    0.01371   -0.02548
  2 C     0.00745    0.04074    0.00671
  3 C     0.00507   -0.01066    0.00735
  4 C     0.01831    0.01271    0.00638
  5 C    -0.00163    0.02147    0.03997
  6 C     0.00107    0.02615   -0.04201
  7 C     0.01216    0.00687   -0.04949
  8 C    -0.00442   -0.02840    0.00366
  9 C    -0.00740   -0.01624   -0.00755
 10 C     0.01812   -0.01389    0.00892
 11 C    -0.02058    0.03410   -0.02415
 12 C    -0.01132   -0.00448   -0.02669
 13 C    -0.00617   -0.01238   -0.02928
 14 C     0.00687    0.03968   -0.02591
 15 C     0.01709   -0.02616   -0.00387
 16 C    -0.02563   -0.02495    0.00356
 17 C     0.01254   -0.01330    0.00778
 18 C    -0.00592   -0.04141    0.01691
 19 C     0.00815   -0.02509    0.02214
 20 C    -0.01013   -0.03243    0.00117
 21 C     0.00911   -0.01129    0.02756
 22 C    -0.02917   -0.00147    0.03909
 23 C    -0.00052   -0.01345   -0.01509

