
  ___ ___ ___ _ _ _  
 |   |   |_  | | | | 
 | | | | | . | | | | 
 |__ |  _|___|_____|  1.3.0b1
 |___|_|             

User:   esb@s65n33.grendel.cscaa.dk
Date:   Wed Nov  8 17:12:57 2017
Arch:   x86_64
Pid:    67462
Python: 2.7.13
gpaw:   /home/esb/DFT/gpaw_git/gpaw
_gpaw:  /home/esb/DFT/gpaw_git/build/bin.linux-x86_64-2.7/gpaw-python
ase:    /home/esb/DFT/ase_git/ase (version 3.15.0b1)
numpy:  /comm/swstack/core/python/2.7.13/lib/python2.7/site-packages/numpy (version 1.13.3)
scipy:  /comm/swstack/core/python/2.7.13/lib/python2.7/site-packages/scipy (version 0.19.1)
units:  Angstrom and eV
cores:  16
Extra parameters: {'blacs': True}

Input parameters:
  basis: dzp
  gpts: [80 80 48]
  kpts: [1 1 1]
  maxiter: 99
  mixer: {backend: pulay,
          beta: 0.05,
          method: separate,
          nmaxold: 5,
          weight: 75}
  mode: lcao
  nbands: -50
  occupations: {name: fermi-dirac,
                width: 0.1}
  poissonsolver: {eps: 1e-07,
                  name: fd,
                  nn: 3,
                  relax: GS}
  xc: PBE

System changes: positions, numbers, cell, pbc, initial_charges, initial_magmoms 

Initialize ...

C-setup:
  name: Carbon
  id: 4aa54d4b901d75f77cc0ea3eec22967b
  Z: 6
  valence: 4
  core: 2
  charge: 0.0
  file: /home/esb/DFT/gpaw-setups-0.8.7929/C.PBE.gz
  cutoffs: 0.64(comp), 1.14(filt), 1.14(core), lmax=2
  valence states:
                energy  radius
    2s(2.00)   -13.751   0.635
    2p(2.00)    -5.284   0.635
    *s          13.461   0.635
    *p          21.927   0.635
    *d           0.000   0.635

  LCAO basis set for C:
    Name: dzp
    File: /home/esb/DFT/gpaw-setups-0.8.7929/C.dzp.basis.gz
    Number of radial functions: 5
    Number of spherical harmonics: 13
      l=0, rc=5.5469 Bohr: 2s-sz confined orbital
      l=1, rc=6.6719 Bohr: 2p-sz confined orbital
      l=0, rc=3.0312 Bohr: 2s-dz split-valence wave
      l=1, rc=3.7500 Bohr: 2p-dz split-valence wave
      l=2, rc=6.6719 Bohr: d-type Gaussian polarization

Reference energy: -24663.074771

Spin-paired calculation

Occupation numbers:
  Fermi-Dirac: width=0.1000 eV

Convergence criteria:
  Maximum total energy change: 0.0005 eV / electron
  Maximum integral of absolute density change: 0.0001 electrons
  Maximum integral of absolute eigenstate change: 4e-08 eV^2
  Maximum number of iterations: 99

Symmetries present (total): 1

  ( 1  0  0)
  ( 0  1  0)
  ( 0  0  1)

1 k-point (Gamma)
1 k-point in the irreducible part of the Brillouin zone
       k-points in crystal coordinates                weights
   0:     0.00000000    0.00000000    0.00000000          1/1

Wave functions: LCAO
  Diagonalizer: Serial LAPACK
  Atomic Correction: dense with blas
  Datatype: float
  Eigensolver: None 

LCAO using direct dense diagonalizer 

Densities:
  Coarse grid: 80*80*48 grid
  Fine grid: 160*160*96 grid
  Total Charge: 0.000000 

Density mixing:
  Method: separate
  Backend: pulay
  Linear mixing parameter: 0.05
  Mixing with 5 old densities
  Damping of long wave oscillations: 75 

Hamiltonian:
  XC and Coulomb potentials evaluated on a 160*160*96 grid
  Using the PBE Exchange-Correlation functional
  Interpolation: tri-quintic (5. degree polynomial)
  Poisson solver: Gauss-Seidel solver with 6 multi-grid levels
    Coarsest grid: 5 x 5 x 3 points
    Stencil: 6*3+1=19 point O(h^6) finite-difference Laplacian
    Max iterations: 1000
    Tolerance: 1.000000e-07 

Memory estimate:
  Process memory now: 77.56 MiB
  Calculator: 15.59 MiB
    Density: 6.13 MiB
      Arrays: 3.81 MiB
      Localized functions: 0.86 MiB
      Mixer: 1.46 MiB
    Hamiltonian: 5.40 MiB
      Arrays: 2.49 MiB
      XC: 0.00 MiB
      Poisson: 2.85 MiB
      vbar: 0.07 MiB
    Wavefunctions: 4.05 MiB
      C [qnM]: 0.23 MiB
      S, T [2 x qmm]: 1.49 MiB
      P [aqMi]: 0.01 MiB
      TCI: 0.00 MiB
      BasisFunctions: 2.33 MiB
      Eigensolver: 0.00 MiB

Total number of cores used: 16
Domain decomposition: 2 x 4 x 2

Number of atoms: 24
Number of atomic orbitals: 312
Number of bands in calculation: 98
Bands to converge: occupied states only
Number of valence electrons: 96

... initialized

Initializing position-dependent things.

Density initialized from atomic densities
           .--------------------------------------.  
          /|                                      |  
         / |                                      |  
        /  |                                      |  
       /   |                                      |  
      /    |                                      |  
     /     |                                      |  
    /      |                                      |  
   /       |           C  C  C  C                 |  
  /        |        C            C                |  
 *         |     C      C C  C     C              |  
 |         C  C   C C               C             |  
 |         .----------C--------------C------------.  
 |        /            C  C        C             /   
 |       /                   C  C               /    
 |      /                                      /     
 |     /                                      /      
 |    /                                      /       
 |   /                                      /        
 |  /                                      /         
 | /                                      /          
 |/                                      /           
 *--------------------------------------*            

Positions:
   0 C      4.360432    9.223486    5.358530
   1 C      4.821516    7.772330    5.453817
   2 C      7.487823    7.652910    5.649212
   3 C      3.000382    8.840544    4.969809
   4 C      3.583505    7.185934    5.089279
   5 C      2.310579    7.669470    4.807715
   6 C      7.148572    6.282532    5.462288
   7 C      5.096985   10.340314    5.452164
   8 C     10.273898    4.699276    4.370772
   9 C      8.993240    4.736515    4.764831
  10 C      7.851063    5.129342    5.160697
  11 C      6.119370    7.271355    5.565670
  12 C      6.276311   10.908919    5.587054
  13 C      9.287865    9.365081    5.503145
  14 C      9.703293   11.628251    5.229182
  15 C     12.664820    7.601113    4.132554
  16 C     11.548975    9.833653    4.779883
  17 C     10.302319   10.308830    5.187805
  18 C     12.283197    6.357552    4.098067
  19 C      7.207872   11.749818    5.506202
  20 C      8.182572    8.807970    5.696344
  21 C      8.526434   12.057310    5.365932
  22 C     11.499863    5.322866    4.208707
  23 C     12.252411    8.824002    4.427462

Unit cell:
           periodic     x           y           z      points  spacing
  1. axis:    yes   16.000000    0.000000    0.000000    80     0.2000
  2. axis:    yes    0.000000   16.000000    0.000000    80     0.2000
  3. axis:    yes    0.000000    0.000000   10.000000    48     0.2083

Effective grid spacing dv^(1/3) = 0.2027

                     log10-error:    total        iterations:
           time      wfs    density  energy       fermi  poisson
iter:   1  17:12:59          +inf  -183.995519    3      6      
iter:   2  17:13:00         -0.92  -183.165652    3      3      
iter:   3  17:13:00         -0.95  -180.901004    32     3      
iter:   4  17:13:01         -1.11  -180.167045    33     4      
iter:   5  17:13:01         -1.40  -179.972055    4      3      
iter:   6  17:13:02         -1.62  -180.054542    4      3      
iter:   7  17:13:03         -1.73  -179.989810    4      3      
iter:   8  17:13:03         -1.92  -179.965620    3      2      
iter:   9  17:13:04         -2.03  -179.944506    3      2      
iter:  10  17:13:04         -2.31  -179.943646    3      2      
iter:  11  17:13:05         -2.53  -179.941646    3      2      
iter:  12  17:13:05         -2.69  -179.956543    2      1      
iter:  13  17:13:06         -2.73  -179.933289    2      2      
iter:  14  17:13:06         -2.89  -179.930809    2      2      
iter:  15  17:13:07         -3.10  -179.940046    2      1      
iter:  16  17:13:07         -3.27  -179.932855    2      1      
iter:  17  17:13:07         -3.46  -179.931562    2      1      
iter:  18  17:13:08         -3.64  -179.934628    2      1      
iter:  19  17:13:08         -3.88  -179.932108    2      1      
iter:  20  17:13:09         -4.01  -179.933017    2      1      

Converged after 20 iterations.

Dipole moment: (0.123114, 0.148968, 0.075157) |e|*Ang

Energy contributions relative to reference atoms: (reference = -24663.074771)

Kinetic:       +100.739774
Potential:     -110.645081
External:        +0.000000
XC:            -173.060899
Entropy (-ST):   -0.079979
Local:           +3.073179
--------------------------
Free energy:   -179.973006
Extrapolated:  -179.933017

Fermi level: -4.32435

 Band  Eigenvalues  Occupancy
    0    -23.33433    2.00000
    1    -22.93261    2.00000
    2    -21.07183    2.00000
    3    -20.36178    2.00000
    4    -20.11715    2.00000
    5    -19.74460    2.00000
    6    -19.40338    2.00000
    7    -19.01597    2.00000
    8    -18.93802    2.00000
    9    -18.13215    2.00000
   10    -17.98371    2.00000
   11    -17.37551    2.00000
   12    -16.69874    2.00000
   13    -16.12024    2.00000
   14    -15.56527    2.00000
   15    -15.16781    2.00000
   16    -14.43570    2.00000
   17    -14.36658    2.00000
   18    -13.83272    2.00000
   19    -13.28217    2.00000
   20    -12.76775    2.00000
   21    -12.39904    2.00000
   22    -12.14819    2.00000
   23    -11.77367    2.00000
   24    -10.81983    2.00000
   25    -10.44564    2.00000
   26    -10.05084    2.00000
   27     -9.71423    2.00000
   28     -9.35463    2.00000
   29     -9.14593    2.00000
   30     -8.80469    2.00000
   31     -8.78615    2.00000
   32     -8.73559    2.00000
   33     -8.54431    2.00000
   34     -7.86873    2.00000
   35     -7.84527    2.00000
   36     -7.62668    2.00000
   37     -7.27241    2.00000
   38     -7.11790    2.00000
   39     -7.03555    2.00000
   40     -6.58686    2.00000
   41     -6.46188    2.00000
   42     -6.25536    2.00000
   43     -5.64241    2.00000
   44     -5.02203    1.99814
   45     -4.95855    1.99648
   46     -4.81931    1.98593
   47     -4.65511    1.92938
   48     -4.01854    0.08973
   49     -3.42693    0.00025
   50     -3.32574    0.00009
   51     -2.73137    0.00000
   52     -2.16046    0.00000
   53     -1.81095    0.00000
   54     -1.71397    0.00000
   55     -1.09211    0.00000
   56     -0.89024    0.00000
   57     -0.81022    0.00000
   58     -0.42661    0.00000
   59     -0.37159    0.00000
   60      0.04738    0.00000
   61      0.73703    0.00000
   62      1.09825    0.00000
   63      1.56088    0.00000
   64      2.26573    0.00000
   65      2.45075    0.00000
   66      2.82779    0.00000
   67      3.74309    0.00000
   68      4.21462    0.00000
   69      4.74494    0.00000
   70      4.86655    0.00000
   71      5.26921    0.00000
   72      5.45566    0.00000
   73      6.09243    0.00000
   74      6.57266    0.00000
   75      6.63692    0.00000
   76      7.14870    0.00000
   77      7.51859    0.00000
   78      7.67283    0.00000
   79      8.06775    0.00000
   80      8.33754    0.00000
   81      8.60102    0.00000
   82      8.69909    0.00000
   83      8.78001    0.00000
   84      8.91853    0.00000
   85      8.94449    0.00000
   86      9.11611    0.00000
   87      9.39652    0.00000
   88      9.57269    0.00000
   89      9.59178    0.00000
   90      9.65573    0.00000
   91      9.73370    0.00000
   92      9.79357    0.00000
   93      9.93383    0.00000
   94      9.98341    0.00000
   95     10.08505    0.00000
   96     10.17012    0.00000
   97     10.44056    0.00000


Forces in eV/Ang:
  0 C     0.01373    0.15593    0.00674
  1 C    -0.02990   -0.38301   -0.06897
  2 C    -2.32823    0.17477    0.31206
  3 C    -0.13754   -0.25393    0.06913
  4 C     0.34834    0.21316    0.05778
  5 C    -0.18161    0.21944   -0.01389
  6 C     0.40030   -0.34819   -0.20628
  7 C    -0.17883   -0.90637    0.03825
  8 C     3.96020    2.27607   -0.27701
  9 C     1.40743   -0.08984   -0.31754
 10 C    -0.70035    0.37508    0.11173
 11 C     0.08242   -0.42206   -0.01956
 12 C    -2.06135   -0.45881    0.01084
 13 C     1.19268    1.10847   -0.28198
 14 C     0.98993   -0.85887   -0.17100
 15 C    -0.14762   -1.29739   -0.07510
 16 C     0.52061   -0.39296   -0.24502
 17 C    -0.08272    0.43643    0.05786
 18 C     0.68766    1.35726   -0.03455
 19 C     3.42114    2.15934   -0.32838
 20 C     1.19198   -0.50601   -0.00137
 21 C    -2.49064   -0.44724    0.49905
 22 C    -5.28532   -3.02831    0.54732
 23 C    -0.56432    0.94941    0.41033

System changes: positions 

Initializing position-dependent things.

Density initialized from wave functions
           .--------------------------------------.  
          /|                                      |  
         / |                                      |  
        /  |                                      |  
       /   |                                      |  
      /    |                                      |  
     /     |                                      |  
    /      |                                      |  
   /       |           C  C  C  C                 |  
  /        |        C            C                |  
 *         |     C      C C   C    C              |  
 |         C  C   C C               C             |  
 |         .----------C--------------C------------.  
 |        /            C  C        C             /   
 |       /                   C  C               /    
 |      /                                      /     
 |     /                                      /      
 |    /                                      /       
 |   /                                      /        
 |  /                                      /         
 | /                                      /          
 |/                                      /           
 *--------------------------------------*            

Positions:
   0 C      4.360522    9.224505    5.358574
   1 C      4.821321    7.769825    5.453365
   2 C      7.472596    7.654053    5.651253
   3 C      2.999482    8.838883    4.970261
   4 C      3.585783    7.187328    5.089657
   5 C      2.309391    7.670905    4.807624
   6 C      7.151190    6.280255    5.460939
   7 C      5.095816   10.334386    5.452414
   8 C     10.299799    4.714162    4.368961
   9 C      9.002445    4.735927    4.762754
  10 C      7.846483    5.131796    5.161428
  11 C      6.119909    7.268594    5.565542
  12 C      6.262829   10.905918    5.587124
  13 C      9.295666    9.372331    5.501301
  14 C      9.709768   11.622634    5.228064
  15 C     12.663855    7.592627    4.132063
  16 C     11.552380    9.831083    4.778281
  17 C     10.301778   10.311684    5.188184
  18 C     12.287694    6.366429    4.097841
  19 C      7.230247   11.763940    5.504054
  20 C      8.190368    8.804661    5.696335
  21 C      8.510145   12.054385    5.369196
  22 C     11.465295    5.303060    4.212287
  23 C     12.248721    8.830211    4.430146

Unit cell:
           periodic     x           y           z      points  spacing
  1. axis:    yes   16.000000    0.000000    0.000000    80     0.2000
  2. axis:    yes    0.000000   16.000000    0.000000    80     0.2000
  3. axis:    yes    0.000000    0.000000   10.000000    48     0.2083

Effective grid spacing dv^(1/3) = 0.2027

                     log10-error:    total        iterations:
           time      wfs    density  energy       fermi  poisson
iter:   1  17:13:11          +inf  -180.471911    3      5      
iter:   2  17:13:11         -2.01  -180.436657    3      2      
iter:   3  17:13:12         -2.09  -180.393683    3      2      
iter:   4  17:13:12         -2.30  -180.388723    2      2      
iter:   5  17:13:13         -2.46  -180.383938    2      2      
iter:   6  17:13:13         -2.69  -180.383453    2      1      
iter:   7  17:13:14         -2.78  -180.383177    2      2      
iter:   8  17:13:14         -3.21  -180.383130    2      1      
iter:   9  17:13:15         -3.30  -180.383030    2      1      
iter:  10  17:13:15         -3.53  -180.383189    2      1      
iter:  11  17:13:16         -3.60  -180.383139    2      1      
iter:  12  17:13:16         -3.66  -180.382846    2      1      
iter:  13  17:13:17         -3.90  -180.382993    2      1      
iter:  14  17:13:17         -3.98  -180.383003    2      1      
iter:  15  17:13:18         -4.11  -180.382986    2      1      

Converged after 15 iterations.

Dipole moment: (0.190035, 0.084634, 0.066405) |e|*Ang

Energy contributions relative to reference atoms: (reference = -24663.074771)

Kinetic:        +99.917360
Potential:     -110.141911
External:        +0.000000
XC:            -173.172386
Entropy (-ST):   -0.068560
Local:           +3.048231
--------------------------
Free energy:   -180.417266
Extrapolated:  -180.382986

Fermi level: -4.32893

 Band  Eigenvalues  Occupancy
    0    -23.32661    2.00000
    1    -22.97403    2.00000
    2    -21.09962    2.00000
    3    -20.31100    2.00000
    4    -20.13258    2.00000
    5    -19.76140    2.00000
    6    -19.40141    2.00000
    7    -18.98420    2.00000
    8    -18.90082    2.00000
    9    -18.16850    2.00000
   10    -17.98182    2.00000
   11    -17.38427    2.00000
   12    -16.67973    2.00000
   13    -16.07197    2.00000
   14    -15.61778    2.00000
   15    -15.21087    2.00000
   16    -14.45382    2.00000
   17    -14.41649    2.00000
   18    -13.82552    2.00000
   19    -13.26249    2.00000
   20    -12.86347    2.00000
   21    -12.42578    2.00000
   22    -12.16172    2.00000
   23    -11.72837    2.00000
   24    -10.78871    2.00000
   25    -10.45346    2.00000
   26    -10.02986    2.00000
   27     -9.70374    2.00000
   28     -9.35847    2.00000
   29     -9.15148    2.00000
   30     -8.82772    2.00000
   31     -8.81056    2.00000
   32     -8.74765    2.00000
   33     -8.53546    2.00000
   34     -7.88396    2.00000
   35     -7.86527    2.00000
   36     -7.60166    2.00000
   37     -7.28449    2.00000
   38     -7.11851    2.00000
   39     -6.98390    2.00000
   40     -6.54687    2.00000
   41     -6.43577    2.00000
   42     -6.28022    2.00000
   43     -5.59857    1.99999
   44     -5.05758    1.99863
   45     -4.96267    1.99647
   46     -4.88642    1.99244
   47     -4.67250    1.93760
   48     -4.00396    0.07467
   49     -3.39160    0.00017
   50     -3.18000    0.00002
   51     -2.72495    0.00000
   52     -2.11742    0.00000
   53     -1.82940    0.00000
   54     -1.64737    0.00000
   55     -1.05589    0.00000
   56     -0.95420    0.00000
   57     -0.84980    0.00000
   58     -0.48518    0.00000
   59     -0.34089    0.00000
   60      0.03971    0.00000
   61      0.76343    0.00000
   62      1.10262    0.00000
   63      1.58139    0.00000
   64      2.27268    0.00000
   65      2.46013    0.00000
   66      2.85821    0.00000
   67      3.78764    0.00000
   68      4.25495    0.00000
   69      4.72581    0.00000
   70      4.88759    0.00000
   71      5.29753    0.00000
   72      5.49340    0.00000
   73      6.12619    0.00000
   74      6.62391    0.00000
   75      6.70205    0.00000
   76      7.08528    0.00000
   77      7.53786    0.00000
   78      7.72867    0.00000
   79      8.08116    0.00000
   80      8.16432    0.00000
   81      8.40844    0.00000
   82      8.71319    0.00000
   83      8.73803    0.00000
   84      8.88480    0.00000
   85      8.97515    0.00000
   86      9.35664    0.00000
   87      9.44248    0.00000
   88      9.58348    0.00000
   89      9.61959    0.00000
   90      9.63665    0.00000
   91      9.76714    0.00000
   92      9.82488    0.00000
   93      9.92236    0.00000
   94     10.03508    0.00000
   95     10.10952    0.00000
   96     10.25039    0.00000
   97     10.42868    0.00000


Forces in eV/Ang:
  0 C    -0.48675   -0.39526   -0.05859
  1 C     0.05153   -0.23692   -0.01454
  2 C    -1.41161    0.55347    0.31170
  3 C     0.09414   -0.06244    0.12220
  4 C     0.02603    0.11333   -0.04734
  5 C    -0.06058    0.02994    0.02568
  6 C     0.04767    0.12915   -0.05694
  7 C     0.16738   -0.47488    0.04360
  8 C     1.22749    1.10228    0.17621
  9 C     0.31186    0.29618    0.03192
 10 C     0.92572   -0.45675   -0.45891
 11 C    -0.40930   -0.53235   -0.05727
 12 C    -0.23497    1.09809   -0.09136
 13 C     0.53317    0.58060   -0.16397
 14 C     0.09610   -0.25684   -0.08334
 15 C    -0.26374   -0.64790    0.05112
 16 C     0.34351   -0.16446   -0.13372
 17 C     0.03299    0.61082    0.02073
 18 C    -0.45971   -0.53883    0.07710
 19 C     0.06274    0.27811   -0.02644
 20 C     1.23332   -0.55799   -0.05242
 21 C     0.07618   -0.58436    0.23124
 22 C    -1.66982   -0.32137    0.01867
 23 C    -0.14838    0.43117    0.20068

System changes: positions 

Initializing position-dependent things.

Density initialized from wave functions
           .--------------------------------------.  
          /|                                      |  
         / |                                      |  
        /  |                                      |  
       /   |                                      |  
      /    |                                      |  
     /     |                                      |  
    /      |                                      |  
   /       |           C  C  C  C                 |  
  /        |        C            C                |  
 *         |     C      C  C  C    C              |  
 |         C  C   C C               C             |  
 |         .----------C--------------C------------.  
 |        /            C  C        C             /   
 |       /                   C  C               /    
 |      /                                      /     
 |     /                                      /      
 |    /                                      /       
 |   /                                      /        
 |  /                                      /         
 | /                                      /          
 |/                                      /           
 *--------------------------------------*            

Positions:
   0 C      4.351357    9.217055    5.357471
   1 C      4.822292    7.765383    5.453095
   2 C      7.446134    7.664466    5.657106
   3 C      3.001261    8.837720    4.972558
   4 C      3.586256    7.189451    5.088763
   5 C      2.308259    7.671458    4.808108
   6 C      7.152068    6.282704    5.459877
   7 C      5.098976   10.325490    5.453233
   8 C     10.322712    4.734802    4.372292
   9 C      9.008246    4.741508    4.763371
  10 C      7.863948    5.123177    5.152781
  11 C      6.112198    7.258592    5.564465
  12 C      6.258509   10.926617    5.585404
  13 C      9.305644    9.383207    5.498228
  14 C      9.711527   11.617841    5.226503
  15 C     12.658896    7.580494    4.133029
  16 C     11.558822    9.828007    4.775775
  17 C     10.302404   10.323163    5.188571
  18 C     12.279004    6.356215    4.099295
  19 C      7.231256   11.769068    5.503573
  20 C      8.213530    8.794180    5.695348
  21 C      8.511705   12.043405    5.373525
  22 C     11.434121    5.297162    4.212611
  23 C     12.245955    8.838282    4.433904

Unit cell:
           periodic     x           y           z      points  spacing
  1. axis:    yes   16.000000    0.000000    0.000000    80     0.2000
  2. axis:    yes    0.000000   16.000000    0.000000    80     0.2000
  3. axis:    yes    0.000000    0.000000   10.000000    48     0.2083

Effective grid spacing dv^(1/3) = 0.2027

                     log10-error:    total        iterations:
           time      wfs    density  energy       fermi  poisson
iter:   1  17:13:19          +inf  -180.665959    3      5      
iter:   2  17:13:20         -1.99  -180.606603    3      2      
iter:   3  17:13:21         -2.11  -180.542177    3      2      
iter:   4  17:13:21         -2.41  -180.536291    3      2      
iter:   5  17:13:22         -2.57  -180.534074    3      2      
iter:   6  17:13:22         -2.76  -180.534664    2      2      
iter:   7  17:13:23         -2.93  -180.534520    2      2      
iter:   8  17:13:23         -3.14  -180.533505    1      1      
iter:   9  17:13:24         -3.24  -180.532506    2      1      
iter:  10  17:13:24         -3.57  -180.534951    2      1      
iter:  11  17:13:25         -3.82  -180.534815    1      1      
iter:  12  17:13:25         -3.91  -180.535436    2      1      
iter:  13  17:13:25         -4.06  -180.535478    2      1      

Converged after 13 iterations.

Dipole moment: (0.214161, 0.031192, 0.065595) |e|*Ang

Energy contributions relative to reference atoms: (reference = -24663.074771)

Kinetic:       +105.121803
Potential:     -114.252128
External:        +0.000000
XC:            -174.449989
Entropy (-ST):   -0.066995
Local:           +3.078334
--------------------------
Free energy:   -180.568976
Extrapolated:  -180.535478

Fermi level: -4.30217

 Band  Eigenvalues  Occupancy
    0    -23.38114    2.00000
    1    -23.02509    2.00000
    2    -21.11998    2.00000
    3    -20.30267    2.00000
    4    -20.17341    2.00000
    5    -19.75693    2.00000
    6    -19.38415    2.00000
    7    -19.01004    2.00000
    8    -18.89093    2.00000
    9    -18.20983    2.00000
   10    -18.00246    2.00000
   11    -17.38875    2.00000
   12    -16.63780    2.00000
   13    -16.05697    2.00000
   14    -15.63551    2.00000
   15    -15.24604    2.00000
   16    -14.49873    2.00000
   17    -14.42346    2.00000
   18    -13.79809    2.00000
   19    -13.27711    2.00000
   20    -12.93624    2.00000
   21    -12.42172    2.00000
   22    -12.18085    2.00000
   23    -11.73398    2.00000
   24    -10.77625    2.00000
   25    -10.48751    2.00000
   26     -9.98745    2.00000
   27     -9.71020    2.00000
   28     -9.36348    2.00000
   29     -9.20443    2.00000
   30     -8.88057    2.00000
   31     -8.86881    2.00000
   32     -8.76637    2.00000
   33     -8.54563    2.00000
   34     -7.91654    2.00000
   35     -7.86621    2.00000
   36     -7.57357    2.00000
   37     -7.25753    2.00000
   38     -7.14909    2.00000
   39     -6.94691    2.00000
   40     -6.59367    2.00000
   41     -6.43857    2.00000
   42     -6.27603    2.00000
   43     -5.60843    2.00000
   44     -5.11992    1.99944
   45     -5.05882    1.99897
   46     -4.85145    1.99180
   47     -4.64255    1.93565
   48     -3.97625    0.07400
   49     -3.34834    0.00014
   50     -3.03443    0.00001
   51     -2.68823    0.00000
   52     -2.02914    0.00000
   53     -1.83995    0.00000
   54     -1.59475    0.00000
   55     -1.05751    0.00000
   56     -0.95707    0.00000
   57     -0.72339    0.00000
   58     -0.43684    0.00000
   59     -0.18396    0.00000
   60      0.14500    0.00000
   61      0.83624    0.00000
   62      1.13197    0.00000
   63      1.61542    0.00000
   64      2.29948    0.00000
   65      2.47856    0.00000
   66      2.89621    0.00000
   67      3.79616    0.00000
   68      4.32975    0.00000
   69      4.71828    0.00000
   70      4.97908    0.00000
   71      5.40068    0.00000
   72      5.60800    0.00000
   73      6.21512    0.00000
   74      6.57267    0.00000
   75      6.78751    0.00000
   76      7.09425    0.00000
   77      7.54551    0.00000
   78      7.72045    0.00000
   79      7.93732    0.00000
   80      8.15742    0.00000
   81      8.29250    0.00000
   82      8.70914    0.00000
   83      8.72579    0.00000
   84      8.81398    0.00000
   85      9.00797    0.00000
   86      9.33660    0.00000
   87      9.49053    0.00000
   88      9.58273    0.00000
   89      9.62249    0.00000
   90      9.66828    0.00000
   91      9.77293    0.00000
   92      9.84786    0.00000
   93      9.99828    0.00000
   94     10.02530    0.00000
   95     10.12580    0.00000
   96     10.32595    0.00000
   97     10.40986    0.00000


Forces in eV/Ang:
  0 C     0.09609   -0.02972    0.07924
  1 C    -0.24358   -0.14916   -0.02317
  2 C    -0.27391    0.65196    0.26552
  3 C    -0.10705   -0.13064    0.05686
  4 C    -0.16613    0.01143   -0.09457
  5 C    -0.04685   -0.05077    0.02493
  6 C     0.27959   -0.18009   -0.10644
  7 C     0.41635   -0.31343    0.05614
  8 C    -2.24773   -0.58804    0.70525
  9 C     1.22093    0.00393   -0.29763
 10 C    -0.09774    0.46382   -0.04949
 11 C    -0.64091   -0.56020   -0.08543
 12 C    -1.03198    0.44789   -0.11309
 13 C     0.25577    0.20541   -0.09012
 14 C     0.08513    0.06186   -0.09742
 15 C    -0.64472   -0.58258    0.17473
 16 C    -0.36569    0.58804    0.19099
 17 C     0.53001    0.35261   -0.11830
 18 C    -0.25622   -0.03044    0.10373
 19 C     0.23800    0.51080   -0.04184
 20 C     0.78494   -0.82695   -0.03518
 21 C     0.08586   -0.38120    0.22435
 22 C     1.58690    1.34593   -0.45034
 23 C     0.58583   -0.81546   -0.19007

System changes: positions 

Initializing position-dependent things.

Density initialized from wave functions
           .--------------------------------------.  
          /|                                      |  
         / |                                      |  
        /  |                                      |  
       /   |                                      |  
      /    |                                      |  
     /     |                                      |  
    /      |                                      |  
   /       |           C  C  C  C                 |  
  /        |        C            C                |  
 *         |     C      C  C  C    C              |  
 |         C  C   C C               C             |  
 |         .----------C--------------C------------.  
 |        /            C  C        C             /   
 |       /                   C  C               /    
 |      /                                      /     
 |     /                                      /      
 |    /                                      /       
 |   /                                      /        
 |  /                                      /         
 | /                                      /          
 |/                                      /           
 *--------------------------------------*            

Positions:
   0 C      4.347215    9.212463    5.357864
   1 C      4.819643    7.760321    5.452545
   2 C      7.423958    7.679368    5.664434
   3 C      3.000738    8.835002    4.974747
   4 C      3.584805    7.191126    5.087071
   5 C      2.306747    7.671399    4.808703
   6 C      7.156752    6.281354    5.457596
   7 C      5.106062   10.314983    5.454500
   8 C     10.311882    4.742198    4.383134
   9 C      9.029431    4.744743    4.759439
  10 C      7.872100    5.124627    5.147167
  11 C      6.099364    7.244818    5.562686
  12 C      6.239839   10.944123    5.582922
  13 C      9.316402    9.393729    5.494875
  14 C      9.714938   11.614727    5.224089
  15 C     12.647346    7.564055    4.135790
  16 C     11.558507    9.833381    4.776482
  17 C     10.309600   10.335112    5.187326
  18 C     12.271391    6.351507    4.101467
  19 C      7.239312   11.781522    5.502324
  20 C      8.238997    8.776528    5.694303
  21 C      8.510585   12.031363    5.379651
  22 C     11.429742    5.307433    4.207607
  23 C     12.251267    8.833591    4.434160

Unit cell:
           periodic     x           y           z      points  spacing
  1. axis:    yes   16.000000    0.000000    0.000000    80     0.2000
  2. axis:    yes    0.000000   16.000000    0.000000    80     0.2000
  3. axis:    yes    0.000000    0.000000   10.000000    48     0.2083

Effective grid spacing dv^(1/3) = 0.2027

                     log10-error:    total        iterations:
           time      wfs    density  energy       fermi  poisson
iter:   1  17:13:27          +inf  -180.742572    3      5      
iter:   2  17:13:28         -2.07  -180.710411    3      2      
iter:   3  17:13:28         -2.20  -180.680554    3      2      
iter:   4  17:13:29         -2.48  -180.677692    2      2      
iter:   5  17:13:29         -2.62  -180.675415    2      2      
iter:   6  17:13:30         -2.87  -180.675605    2      2      
iter:   7  17:13:30         -3.10  -180.675012    2      1      
iter:   8  17:13:31         -3.20  -180.674624    2      1      
iter:   9  17:13:31         -3.38  -180.674549    2      1      
iter:  10  17:13:32         -3.78  -180.675712    2      1      
iter:  11  17:13:32         -3.93  -180.675931    2      1      
iter:  12  17:13:33         -4.03  -180.675792    2      1      

Converged after 12 iterations.

Dipole moment: (0.237442, 0.038851, 0.060637) |e|*Ang

Energy contributions relative to reference atoms: (reference = -24663.074771)

Kinetic:       +106.732828
Potential:     -115.489749
External:        +0.000000
XC:            -174.962664
Entropy (-ST):   -0.064799
Local:           +3.076193
--------------------------
Free energy:   -180.708191
Extrapolated:  -180.675792

Fermi level: -4.31647

 Band  Eigenvalues  Occupancy
    0    -23.36200    2.00000
    1    -22.97413    2.00000
    2    -21.18423    2.00000
    3    -20.34689    2.00000
    4    -20.18845    2.00000
    5    -19.77903    2.00000
    6    -19.41662    2.00000
    7    -18.96798    2.00000
    8    -18.88030    2.00000
    9    -18.19806    2.00000
   10    -18.02247    2.00000
   11    -17.40447    2.00000
   12    -16.71546    2.00000
   13    -16.10367    2.00000
   14    -15.63331    2.00000
   15    -15.28178    2.00000
   16    -14.51939    2.00000
   17    -14.45474    2.00000
   18    -13.82209    2.00000
   19    -13.32540    2.00000
   20    -12.99652    2.00000
   21    -12.46257    2.00000
   22    -12.23937    2.00000
   23    -11.73978    2.00000
   24    -10.76944    2.00000
   25    -10.46612    2.00000
   26     -9.91372    2.00000
   27     -9.69129    2.00000
   28     -9.39970    2.00000
   29     -9.22176    2.00000
   30     -8.93439    2.00000
   31     -8.92403    2.00000
   32     -8.77063    2.00000
   33     -8.55128    2.00000
   34     -7.94034    2.00000
   35     -7.89841    2.00000
   36     -7.57416    2.00000
   37     -7.27756    2.00000
   38     -7.12371    2.00000
   39     -6.96082    2.00000
   40     -6.56991    2.00000
   41     -6.43225    2.00000
   42     -6.27303    2.00000
   43     -5.60603    1.99999
   44     -5.08580    1.99909
   45     -5.00289    1.99791
   46     -4.82200    1.98733
   47     -4.67633    1.94674
   48     -3.98294    0.06876
   49     -3.37809    0.00017
   50     -3.07319    0.00001
   51     -2.70342    0.00000
   52     -1.94088    0.00000
   53     -1.83009    0.00000
   54     -1.54528    0.00000
   55     -1.01076    0.00000
   56     -0.93429    0.00000
   57     -0.65044    0.00000
   58     -0.44421    0.00000
   59     -0.06649    0.00000
   60      0.23507    0.00000
   61      0.86043    0.00000
   62      1.13377    0.00000
   63      1.61202    0.00000
   64      2.33707    0.00000
   65      2.48100    0.00000
   66      2.91681    0.00000
   67      3.81258    0.00000
   68      4.37869    0.00000
   69      4.69428    0.00000
   70      5.05999    0.00000
   71      5.47103    0.00000
   72      5.70305    0.00000
   73      6.23469    0.00000
   74      6.55655    0.00000
   75      6.84876    0.00000
   76      7.08643    0.00000
   77      7.53824    0.00000
   78      7.76329    0.00000
   79      8.14867    0.00000
   80      8.17496    0.00000
   81      8.34543    0.00000
   82      8.71228    0.00000
   83      8.75308    0.00000
   84      8.80586    0.00000
   85      9.04664    0.00000
   86      9.32709    0.00000
   87      9.44212    0.00000
   88      9.58606    0.00000
   89      9.60860    0.00000
   90      9.65490    0.00000
   91      9.74343    0.00000
   92      9.85530    0.00000
   93      9.96858    0.00000
   94     10.00598    0.00000
   95     10.13705    0.00000
   96     10.33456    0.00000
   97     10.40757    0.00000


Forces in eV/Ang:
  0 C     0.21349   -0.01690    0.12259
  1 C    -0.49628   -0.10768   -0.05529
  2 C     0.02565    0.09863    0.14909
  3 C    -0.11865   -0.00611    0.02941
  4 C    -0.33425   -0.10228   -0.12683
  5 C    -0.06206   -0.12856    0.02495
  6 C     0.27962    0.02477   -0.10263
  7 C     0.16932   -0.33212    0.02083
  8 C    -0.36859   -0.35786    0.20471
  9 C    -0.67023    0.25039    0.28048
 10 C     0.20023    0.43719   -0.11035
 11 C    -0.14451   -0.40135   -0.03089
 12 C    -0.04029    1.03302   -0.10748
 13 C    -0.18751   -0.25177    0.04318
 14 C     0.04359    0.47545   -0.09317
 15 C    -0.37302    0.75803    0.24314
 16 C     0.40446   -0.15576   -0.13703
 17 C     0.54433    0.09687   -0.09664
 18 C    -0.24041   -0.54739    0.02148
 19 C    -1.16049   -0.21781    0.06730
 20 C     0.77352   -0.55362   -0.09194
 21 C     0.66016   -0.23514    0.15468
 22 C     0.84750    0.58914   -0.33004
 23 C     0.15238   -0.42108   -0.00639

System changes: positions 

Initializing position-dependent things.

Density initialized from wave functions
           .--------------------------------------.  
          /|                                      |  
         / |                                      |  
        /  |                                      |  
       /   |                                      |  
      /    |                                      |  
     /     |                                      |  
    /      |                                      |  
   /       |           C  C  C  C                 |  
  /        |        C            C                |  
 *         |     C      C  C  C    C              |  
 |         C  C   C C               C             |  
 |         .----------C--------------C------------.  
 |        /            C  C        C             /   
 |       /                   C  C               /    
 |      /                                      /     
 |     /                                      /      
 |    /                                      /       
 |   /                                      /        
 |  /                                      /         
 | /                                      /          
 |/                                      /           
 *--------------------------------------*            

Positions:
   0 C      4.348503    9.209664    5.360344
   1 C      4.808943    7.754216    5.451027
   2 C      7.404574    7.691040    5.672545
   3 C      2.997912    8.832524    4.976834
   4 C      3.578738    7.190879    5.083860
   5 C      2.304216    7.669597    4.809493
   6 C      7.165774    6.280044    5.453781
   7 C      5.113169   10.300077    5.455775
   8 C     10.308105    4.746063    4.393031
   9 C      9.034426    4.751050    4.761165
  10 C      7.879035    5.134417    5.141932
  11 C      6.088816    7.227802    5.560951
  12 C      6.222028   10.972599    5.579440
  13 C      9.322835    9.398639    5.492820
  14 C      9.720376   11.619161    5.220452
  15 C     12.632914    7.563997    4.141732
  16 C     11.566838    9.833054    4.773873
  17 C     10.323779   10.345513    5.184934
  18 C     12.263985    6.342130    4.103145
  19 C      7.232180   11.790957    5.501914
  20 C      8.272026    8.754084    5.691985
  21 C      8.515476   12.018385    5.387574
  22 C     11.429132    5.317038    4.199844
  23 C     12.256008    8.825345    4.435212

Unit cell:
           periodic     x           y           z      points  spacing
  1. axis:    yes   16.000000    0.000000    0.000000    80     0.2000
  2. axis:    yes    0.000000   16.000000    0.000000    80     0.2000
  3. axis:    yes    0.000000    0.000000   10.000000    48     0.2083

Effective grid spacing dv^(1/3) = 0.2027

                     log10-error:    total        iterations:
           time      wfs    density  energy       fermi  poisson
iter:   1  17:13:34          +inf  -180.819407    3      5      
iter:   2  17:13:35         -2.16  -180.797346    2      2      
iter:   3  17:13:35         -2.38  -180.786379    3      1      
iter:   4  17:13:36         -2.48  -180.785156    3      2      
iter:   5  17:13:37         -2.68  -180.786422    3      2      
iter:   6  17:13:37         -2.62  -180.785674    3      2      
iter:   7  17:13:38         -2.82  -180.784050    2      2      
iter:   8  17:13:38         -3.14  -180.782823    2      1      
iter:   9  17:13:38         -3.52  -180.783964    2      1      
iter:  10  17:13:39         -3.67  -180.784428    2      1      
iter:  11  17:13:39         -3.84  -180.784121    2      1      
iter:  12  17:13:40         -3.96  -180.784902    2      1      
iter:  13  17:13:40         -4.06  -180.784406    1      1      

Converged after 13 iterations.

Dipole moment: (0.224150, 0.042018, 0.060067) |e|*Ang

Energy contributions relative to reference atoms: (reference = -24663.074771)

Kinetic:       +108.587448
Potential:     -116.945957
External:        +0.000000
XC:            -175.479268
Entropy (-ST):   -0.064222
Local:           +3.085482
--------------------------
Free energy:   -180.816517
Extrapolated:  -180.784406

Fermi level: -4.31600

 Band  Eigenvalues  Occupancy
    0    -23.37409    2.00000
    1    -22.92364    2.00000
    2    -21.15735    2.00000
    3    -20.37369    2.00000
    4    -20.20037    2.00000
    5    -19.80505    2.00000
    6    -19.42454    2.00000
    7    -18.99215    2.00000
    8    -18.86635    2.00000
    9    -18.18720    2.00000
   10    -18.03836    2.00000
   11    -17.41293    2.00000
   12    -16.76029    2.00000
   13    -16.11413    2.00000
   14    -15.64428    2.00000
   15    -15.31726    2.00000
   16    -14.54816    2.00000
   17    -14.46452    2.00000
   18    -13.84098    2.00000
   19    -13.39087    2.00000
   20    -13.02934    2.00000
   21    -12.44341    2.00000
   22    -12.25172    2.00000
   23    -11.75658    2.00000
   24    -10.78687    2.00000
   25    -10.45444    2.00000
   26     -9.86284    2.00000
   27     -9.69351    2.00000
   28     -9.39096    2.00000
   29     -9.24657    2.00000
   30     -8.95581    2.00000
   31     -8.94718    2.00000
   32     -8.76655    2.00000
   33     -8.56469    2.00000
   34     -7.95391    2.00000
   35     -7.91893    2.00000
   36     -7.59067    2.00000
   37     -7.28087    2.00000
   38     -7.13958    2.00000
   39     -6.97699    2.00000
   40     -6.59014    2.00000
   41     -6.43820    2.00000
   42     -6.24979    2.00000
   43     -5.61437    2.00000
   44     -5.07006    1.99894
   45     -4.93891    1.99607
   46     -4.82462    1.98771
   47     -4.68228    1.94996
   48     -3.97999    0.06713
   49     -3.38553    0.00018
   50     -3.10232    0.00001
   51     -2.70842    0.00000
   52     -1.86271    0.00000
   53     -1.83924    0.00000
   54     -1.52542    0.00000
   55     -0.96385    0.00000
   56     -0.93390    0.00000
   57     -0.53622    0.00000
   58     -0.40415    0.00000
   59      0.03742    0.00000
   60      0.37782    0.00000
   61      0.86950    0.00000
   62      1.14479    0.00000
   63      1.62816    0.00000
   64      2.36680    0.00000
   65      2.48119    0.00000
   66      2.93510    0.00000
   67      3.82182    0.00000
   68      4.40787    0.00000
   69      4.67549    0.00000
   70      5.13274    0.00000
   71      5.48694    0.00000
   72      5.76017    0.00000
   73      6.25398    0.00000
   74      6.52921    0.00000
   75      6.90517    0.00000
   76      7.10462    0.00000
   77      7.49714    0.00000
   78      7.75151    0.00000
   79      8.18899    0.00000
   80      8.26243    0.00000
   81      8.55088    0.00000
   82      8.72025    0.00000
   83      8.76609    0.00000
   84      8.86788    0.00000
   85      9.03613    0.00000
   86      9.27659    0.00000
   87      9.36133    0.00000
   88      9.57430    0.00000
   89      9.60703    0.00000
   90      9.62465    0.00000
   91      9.68607    0.00000
   92      9.83702    0.00000
   93      9.94857    0.00000
   94     10.00715    0.00000
   95     10.13351    0.00000
   96     10.29393    0.00000
   97     10.40299    0.00000


Forces in eV/Ang:
  0 C     0.09941   -0.21026    0.10714
  1 C    -0.25915   -0.26782   -0.02811
  2 C     0.32333   -0.24401    0.03858
  3 C    -0.16683    0.09268   -0.00075
  4 C    -0.29428   -0.22258   -0.09764
  5 C    -0.24181   -0.05799   -0.02065
  6 C    -0.03631    0.44598   -0.00214
  7 C     0.24374   -0.00611    0.03560
  8 C     0.37950   -0.24055   -0.00974
  9 C    -0.69939    0.13464    0.25601
 10 C    -0.00580    0.35764   -0.02934
 11 C     0.07339   -0.07313    0.01679
 12 C    -0.09114    0.76978   -0.13795
 13 C     0.38081    0.02636   -0.05141
 14 C     0.15765    0.51073   -0.08464
 15 C    -0.26635    0.05954    0.11231
 16 C     0.40660   -0.09404   -0.14051
 17 C     0.37567   -0.24728   -0.04958
 18 C     0.34930    0.37739   -0.03406
 19 C    -0.72581   -0.08373    0.01864
 20 C     0.01999   -0.77346   -0.02613
 21 C     0.18242   -0.13699    0.17514
 22 C    -0.03031   -0.23448   -0.18434
 23 C    -0.06533    0.05645    0.11243

System changes: positions 

Initializing position-dependent things.

Density initialized from wave functions
           .--------------------------------------.  
          /|                                      |  
         / |                                      |  
        /  |                                      |  
       /   |                                      |  
      /    |                                      |  
     /     |                                      |  
    /      |                                      |  
   /       |           C  C  C  C                 |  
  /        |        C            C                |  
 *         |     C      C  C  C    C              |  
 |         C  C   C C               C             |  
 |         .----------C-------------C-------------.  
 |        /            C  C        C             /   
 |       /                   C  C               /    
 |      /                                      /     
 |     /                                      /      
 |    /                                      /       
 |   /                                      /        
 |  /                                      /         
 | /                                      /          
 |/                                      /           
 *--------------------------------------*            

Positions:
   0 C      4.349816    9.203509    5.363610
   1 C      4.798141    7.744841    5.449573
   2 C      7.392489    7.697976    5.679840
   3 C      2.993323    8.831753    4.978592
   4 C      3.570314    7.187620    5.080040
   5 C      2.298309    7.667753    4.809736
   6 C      7.171605    6.286035    5.450936
   7 C      5.123294   10.288657    5.457465
   8 C     10.308386    4.746374    4.401717
   9 C      9.033661    4.757310    4.764611
  10 C      7.884128    5.146604    5.137258
  11 C      6.080310    7.213194    5.559735
  12 C      6.203759   11.004993    5.574538
  13 C      9.336452    9.405363    5.489713
  14 C      9.727350   11.628699    5.216308
  15 C     12.616996    7.558826    4.147568
  16 C     11.577466    9.833469    4.770561
  17 C     10.339900   10.350636    5.182419
  18 C     12.264031    6.343174    4.104150
  19 C      7.220911   11.799663    5.501434
  20 C      8.297734    8.723501    5.690046
  21 C      8.519430   12.005457    5.396773
  22 C     11.426586    5.321103    4.191116
  23 C     12.259319    8.820175    4.437634

Unit cell:
           periodic     x           y           z      points  spacing
  1. axis:    yes   16.000000    0.000000    0.000000    80     0.2000
  2. axis:    yes    0.000000   16.000000    0.000000    80     0.2000
  3. axis:    yes    0.000000    0.000000   10.000000    48     0.2083

Effective grid spacing dv^(1/3) = 0.2027

                     log10-error:    total        iterations:
           time      wfs    density  energy       fermi  poisson
iter:   1  17:13:42          +inf  -180.897289    3      5      
iter:   2  17:13:43         -2.13  -180.870235    2      2      
iter:   3  17:13:43         -2.36  -180.859881    3      1      
iter:   4  17:13:44         -2.49  -180.857265    3      2      
iter:   5  17:13:44         -2.74  -180.856989    2      2      
iter:   6  17:13:45         -2.74  -180.856399    3      2      
iter:   7  17:13:45         -2.96  -180.855931    2      2      
iter:   8  17:13:46         -3.07  -180.854547    2      1      
iter:   9  17:13:46         -3.60  -180.855818    2      1      
iter:  10  17:13:47         -3.68  -180.856145    2      1      
iter:  11  17:13:47         -3.73  -180.855778    2      1      
iter:  12  17:13:48         -3.99  -180.856109    2      1      
iter:  13  17:13:48         -4.07  -180.856153    2      1      

Converged after 13 iterations.

Dipole moment: (0.206108, 0.041993, 0.060063) |e|*Ang

Energy contributions relative to reference atoms: (reference = -24663.074771)

Kinetic:       +109.153239
Potential:     -117.380683
External:        +0.000000
XC:            -175.673629
Entropy (-ST):   -0.065199
Local:           +3.077520
--------------------------
Free energy:   -180.888753
Extrapolated:  -180.856153

Fermi level: -4.32301

 Band  Eigenvalues  Occupancy
    0    -23.38518    2.00000
    1    -22.91893    2.00000
    2    -21.12079    2.00000
    3    -20.38461    2.00000
    4    -20.21147    2.00000
    5    -19.82034    2.00000
    6    -19.42445    2.00000
    7    -19.00205    2.00000
    8    -18.82735    2.00000
    9    -18.17644    2.00000
   10    -18.04796    2.00000
   11    -17.42366    2.00000
   12    -16.76575    2.00000
   13    -16.13092    2.00000
   14    -15.64733    2.00000
   15    -15.33436    2.00000
   16    -14.55341    2.00000
   17    -14.48013    2.00000
   18    -13.86207    2.00000
   19    -13.44152    2.00000
   20    -13.04330    2.00000
   21    -12.43337    2.00000
   22    -12.22752    2.00000
   23    -11.76578    2.00000
   24    -10.80071    2.00000
   25    -10.45590    2.00000
   26     -9.85697    2.00000
   27     -9.69923    2.00000
   28     -9.37451    2.00000
   29     -9.25596    2.00000
   30     -8.96472    2.00000
   31     -8.95642    2.00000
   32     -8.76811    2.00000
   33     -8.58307    2.00000
   34     -7.96577    2.00000
   35     -7.93639    2.00000
   36     -7.59698    2.00000
   37     -7.26705    2.00000
   38     -7.12614    2.00000
   39     -6.99840    2.00000
   40     -6.59093    2.00000
   41     -6.43930    2.00000
   42     -6.18614    2.00000
   43     -5.62926    2.00000
   44     -5.06373    1.99879
   45     -4.92182    1.99500
   46     -4.83227    1.98779
   47     -4.68966    1.95014
   48     -3.98849    0.06810
   49     -3.38940    0.00018
   50     -3.06997    0.00001
   51     -2.71129    0.00000
   52     -1.84786    0.00000
   53     -1.80861    0.00000
   54     -1.52858    0.00000
   55     -0.93792    0.00000
   56     -0.92552    0.00000
   57     -0.49343    0.00000
   58     -0.35196    0.00000
   59      0.09442    0.00000
   60      0.47683    0.00000
   61      0.85205    0.00000
   62      1.15738    0.00000
   63      1.62966    0.00000
   64      2.36332    0.00000
   65      2.48272    0.00000
   66      2.93834    0.00000
   67      3.82378    0.00000
   68      4.41522    0.00000
   69      4.65183    0.00000
   70      5.16882    0.00000
   71      5.47135    0.00000
   72      5.79273    0.00000
   73      6.25097    0.00000
   74      6.54200    0.00000
   75      6.95207    0.00000
   76      7.14155    0.00000
   77      7.47770    0.00000
   78      7.75072    0.00000
   79      8.16674    0.00000
   80      8.31747    0.00000
   81      8.59502    0.00000
   82      8.73147    0.00000
   83      8.77427    0.00000
   84      8.89082    0.00000
   85      8.97557    0.00000
   86      9.22303    0.00000
   87      9.28359    0.00000
   88      9.54236    0.00000
   89      9.57806    0.00000
   90      9.61918    0.00000
   91      9.68912    0.00000
   92      9.84825    0.00000
   93      9.94365    0.00000
   94     10.00422    0.00000
   95     10.13360    0.00000
   96     10.28605    0.00000
   97     10.40224    0.00000


Forces in eV/Ang:
  0 C     0.18619   -0.12859    0.11773
  1 C     0.02109   -0.32007    0.01516
  2 C     0.42137   -0.48678   -0.01741
  3 C    -0.20580    0.07279   -0.02030
  4 C    -0.30205   -0.27125   -0.07857
  5 C    -0.32110    0.03824   -0.04043
  6 C    -0.28136    0.45888    0.03612
  7 C     0.01550   -0.04686    0.00621
  8 C     0.60800   -0.15081   -0.07641
  9 C    -0.37608   -0.00384    0.13034
 10 C    -0.24412    0.34015    0.05947
 11 C     0.10475    0.20012    0.04058
 12 C    -0.39801    0.32213   -0.07287
 13 C    -0.31534   -0.58062    0.09690
 14 C     0.27990    0.28901   -0.07892
 15 C     0.04707    0.51213    0.06425
 16 C     0.42947   -0.03761   -0.14888
 17 C     0.08549   -0.11028   -0.01546
 18 C     0.21624   -0.25108   -0.08106
 19 C     0.23348    0.30690   -0.05226
 20 C     0.66101    0.03503   -0.13766
 21 C    -0.43306   -0.07870    0.17895
 22 C    -0.29508   -0.45392   -0.09493
 23 C    -0.08698    0.28205    0.13811

System changes: positions 

Initializing position-dependent things.

Density initialized from wave functions
           .--------------------------------------.  
          /|                                      |  
         / |                                      |  
        /  |                                      |  
       /   |                                      |  
      /    |                                      |  
     /     |                                      |  
    /      |                                      |  
   /       |           C  C  C  C                 |  
  /        |        C            C                |  
 *         |     C      C  C  C    C              |  
 |         C  C   C C               C             |  
 |         .----------C-------------C-------------.  
 |        /            C  C        C             /   
 |       /                   C  C               /    
 |      /                                      /     
 |     /                                      /      
 |    /                                      /       
 |   /                                      /        
 |  /                                      /         
 | /                                      /          
 |/                                      /           
 *--------------------------------------*            

Positions:
   0 C      4.352945    9.196693    5.367723
   1 C      4.790122    7.733073    5.448683
   2 C      7.387422    7.698793    5.685952
   3 C      2.987073    8.831791    4.979895
   4 C      3.559537    7.181684    5.075858
   5 C      2.289493    7.666809    4.809471
   6 C      7.172623    6.296349    5.449058
   7 C      5.132089   10.278370    5.458952
   8 C     10.311348    4.743862    4.409217
   9 C      9.031377    4.762229    4.768193
  10 C      7.885740    5.160546    5.133867
  11 C      6.073199    7.203268    5.559103
  12 C      6.182510   11.035662    5.569599
  13 C      9.342459    9.402861    5.488523
  14 C      9.736310   11.639497    5.211901
  15 C     12.604206    7.560543    4.153257
  16 C     11.590431    9.834707    4.766507
  17 C     10.354121   10.354727    5.180086
  18 C     12.265160    6.338476    4.104159
  19 C      7.215946   11.811406    5.500304
  20 C      8.329558    8.699529    5.686498
  21 C      8.517330   11.993289    5.406655
  22 C     11.424334    5.322075    4.182148
  23 C     12.262107    8.818420    4.440911

Unit cell:
           periodic     x           y           z      points  spacing
  1. axis:    yes   16.000000    0.000000    0.000000    80     0.2000
  2. axis:    yes    0.000000   16.000000    0.000000    80     0.2000
  3. axis:    yes    0.000000    0.000000   10.000000    48     0.2083

Effective grid spacing dv^(1/3) = 0.2027

                     log10-error:    total        iterations:
           time      wfs    density  energy       fermi  poisson
iter:   1  17:13:50          +inf  -180.927436    3      5      
iter:   2  17:13:50         -2.23  -180.913549    2      1      
iter:   3  17:13:51         -2.38  -180.909051    3      2      
iter:   4  17:13:51         -2.56  -180.909709    3      2      
iter:   5  17:13:52         -2.75  -180.918843    3      2      
iter:   6  17:13:52         -2.45  -180.909600    2      2      
iter:   7  17:13:53         -3.05  -180.908944    2      1      
iter:   8  17:13:53         -3.15  -180.908382    2      1      
iter:   9  17:13:54         -3.53  -180.908733    2      1      
iter:  10  17:13:54         -3.70  -180.909072    2      1      
iter:  11  17:13:55         -3.72  -180.908776    2      1      
iter:  12  17:13:55         -3.96  -180.908819    2      1      
iter:  13  17:13:56         -4.09  -180.908935    2      1      

Converged after 13 iterations.

Dipole moment: (0.202699, 0.023977, 0.061504) |e|*Ang

Energy contributions relative to reference atoms: (reference = -24663.074771)

Kinetic:       +108.648422
Potential:     -117.010205
External:        +0.000000
XC:            -175.578896
Entropy (-ST):   -0.070373
Local:           +3.066931
--------------------------
Free energy:   -180.944121
Extrapolated:  -180.908935

Fermi level: -4.32650

 Band  Eigenvalues  Occupancy
    0    -23.36955    2.00000
    1    -22.95985    2.00000
    2    -21.05049    2.00000
    3    -20.38841    2.00000
    4    -20.19905    2.00000
    5    -19.82495    2.00000
    6    -19.41055    2.00000
    7    -19.02129    2.00000
    8    -18.82603    2.00000
    9    -18.18218    2.00000
   10    -18.04594    2.00000
   11    -17.41181    2.00000
   12    -16.76492    2.00000
   13    -16.11414    2.00000
   14    -15.65575    2.00000
   15    -15.35437    2.00000
   16    -14.56892    2.00000
   17    -14.48534    2.00000
   18    -13.87498    2.00000
   19    -13.46410    2.00000
   20    -13.04817    2.00000
   21    -12.41273    2.00000
   22    -12.16529    2.00000
   23    -11.75294    2.00000
   24    -10.79706    2.00000
   25    -10.46568    2.00000
   26     -9.89363    2.00000
   27     -9.70283    2.00000
   28     -9.34585    2.00000
   29     -9.25204    2.00000
   30     -8.97244    2.00000
   31     -8.96072    2.00000
   32     -8.75920    2.00000
   33     -8.58495    2.00000
   34     -7.98096    2.00000
   35     -7.93351    2.00000
   36     -7.59407    2.00000
   37     -7.26315    2.00000
   38     -7.14650    2.00000
   39     -7.00039    2.00000
   40     -6.61492    2.00000
   41     -6.44597    2.00000
   42     -6.18649    2.00000
   43     -5.61917    2.00000
   44     -5.08436    1.99898
   45     -4.92265    1.99486
   46     -4.83635    1.98786
   47     -4.67833    1.94241
   48     -4.00298    0.07572
   49     -3.38724    0.00017
   50     -3.05404    0.00001
   51     -2.71180    0.00000
   52     -1.86106    0.00000
   53     -1.77519    0.00000
   54     -1.52022    0.00000
   55     -0.96237    0.00000
   56     -0.92100    0.00000
   57     -0.48766    0.00000
   58     -0.27348    0.00000
   59      0.10075    0.00000
   60      0.57469    0.00000
   61      0.81949    0.00000
   62      1.15926    0.00000
   63      1.64406    0.00000
   64      2.33108    0.00000
   65      2.49720    0.00000
   66      2.93114    0.00000
   67      3.82773    0.00000
   68      4.41345    0.00000
   69      4.61040    0.00000
   70      5.17444    0.00000
   71      5.42535    0.00000
   72      5.78899    0.00000
   73      6.19278    0.00000
   74      6.54099    0.00000
   75      6.96721    0.00000
   76      7.21562    0.00000
   77      7.47892    0.00000
   78      7.77448    0.00000
   79      8.14402    0.00000
   80      8.34124    0.00000
   81      8.58496    0.00000
   82      8.73023    0.00000
   83      8.76652    0.00000
   84      8.88585    0.00000
   85      8.95927    0.00000
   86      9.16614    0.00000
   87      9.20948    0.00000
   88      9.49967    0.00000
   89      9.57032    0.00000
   90      9.61900    0.00000
   91      9.68575    0.00000
   92      9.81939    0.00000
   93      9.93535    0.00000
   94     10.01152    0.00000
   95     10.13426    0.00000
   96     10.28619    0.00000
   97     10.39744    0.00000


Forces in eV/Ang:
  0 C     0.06149   -0.20088    0.07825
  1 C     0.04414   -0.23364   -0.01549
  2 C     0.59040   -0.29743   -0.05076
  3 C    -0.06616    0.05770    0.01347
  4 C    -0.30243   -0.24272   -0.06135
  5 C    -0.28279    0.07295   -0.03970
  6 C    -0.27209    0.17401    0.04607
  7 C    -0.05559   -0.00691    0.01773
  8 C     0.39876   -0.15891   -0.05974
  9 C    -0.05435   -0.02579    0.02366
 10 C    -0.28839    0.23330    0.08499
 11 C     0.09529    0.50512    0.07074
 12 C    -0.35100    0.18226   -0.05054
 13 C     0.44450   -0.06350   -0.07701
 14 C     0.17180    0.07501   -0.01875
 15 C     0.12593   -0.00801   -0.03277
 16 C     0.05432    0.37141    0.00260
 17 C    -0.30860   -0.06777    0.04276
 18 C     0.36863    0.05615   -0.07163
 19 C     0.23238    0.27355   -0.04672
 20 C    -0.15743   -0.36167   -0.02256
 21 C    -0.17175   -0.10439    0.10065
 22 C    -0.39366   -0.57053   -0.02202
 23 C     0.07448    0.23330    0.09216

System changes: positions 

Initializing position-dependent things.

Density initialized from wave functions
           .--------------------------------------.  
          /|                                      |  
         / |                                      |  
        /  |                                      |  
       /   |                                      |  
      /    |                                      |  
     /     |                                      |  
    /      |                                      |  
   /       |           C  C  C  C                 |  
  /        |        C            C                |  
 *         |     C      C  C  C    C              |  
 |         C  C  C  C               C             |  
 |         .----------C-------------C-------------.  
 |        /            C  C        C             /   
 |       /                   C  C               /    
 |      /                                      /     
 |     /                                      /      
 |    /                                      /       
 |   /                                      /        
 |  /                                      /         
 | /                                      /          
 |/                                      /           
 *--------------------------------------*            

Positions:
   0 C      4.356673    9.187256    5.372695
   1 C      4.782697    7.719457    5.447423
   2 C      7.393765    7.696129    5.690715
   3 C      2.981014    8.832646    4.981491
   4 C      3.544241    7.172523    5.070926
   5 C      2.277520    7.666878    4.808723
   6 C      7.169862    6.306674    5.447952
   7 C      5.138856   10.268553    5.460587
   8 C     10.316018    4.737277    4.415798
   9 C      9.027959    4.766793    4.772016
  10 C      7.883556    5.176777    5.131876
  11 C      6.067700    7.202926    5.559693
  12 C      6.159285   11.067807    5.564368
  13 C      9.355983    9.400087    5.485924
  14 C      9.745972   11.650492    5.207850
  15 C     12.594610    7.563156    4.158040
  16 C     11.601792    9.843289    4.763432
  17 C     10.361215   10.358130    5.178700
  18 C     12.270788    6.332762    4.103188
  19 C      7.210947   11.824449    5.498926
  20 C      8.354298    8.670731    5.683135
  21 C      8.516943   11.980289    5.416711
  22 C     11.420861    5.317072    4.173089
  23 C     12.267322    8.818611    4.444749

Unit cell:
           periodic     x           y           z      points  spacing
  1. axis:    yes   16.000000    0.000000    0.000000    80     0.2000
  2. axis:    yes    0.000000   16.000000    0.000000    80     0.2000
  3. axis:    yes    0.000000    0.000000   10.000000    48     0.2083

Effective grid spacing dv^(1/3) = 0.2027

                     log10-error:    total        iterations:
           time      wfs    density  energy       fermi  poisson
iter:   1  17:13:57          +inf  -180.962204    3      5      
iter:   2  17:13:58         -2.31  -180.955283    2      1      
iter:   3  17:13:58         -2.46  -180.950105    2      2      
iter:   4  17:13:59         -2.62  -180.950908    2      2      
iter:   5  17:13:59         -2.77  -180.957975    2      2      
iter:   6  17:14:00         -2.50  -180.950063    2      2      
iter:   7  17:14:00         -3.10  -180.950049    2      2      
iter:   8  17:14:01         -3.02  -180.950734    2      1      
iter:   9  17:14:01         -3.57  -180.949931    2      1      
iter:  10  17:14:02         -3.63  -180.948974    2      1      
iter:  11  17:14:02         -3.51  -180.949575    2      1      
iter:  12  17:14:03         -3.93  -180.949380    2      1      
iter:  13  17:14:03         -4.04  -180.948904    2      1      

Converged after 13 iterations.

Dipole moment: (0.184572, 0.016134, 0.063018) |e|*Ang

Energy contributions relative to reference atoms: (reference = -24663.074771)

Kinetic:       +105.720177
Potential:     -114.743500
External:        +0.000000
XC:            -174.929549
Entropy (-ST):   -0.077704
Local:           +3.042821
--------------------------
Free energy:   -180.987756
Extrapolated:  -180.948904

Fermi level: -4.34441

 Band  Eigenvalues  Occupancy
    0    -23.34422    2.00000
    1    -22.96315    2.00000
    2    -21.01517    2.00000
    3    -20.37101    2.00000
    4    -20.18650    2.00000
    5    -19.81186    2.00000
    6    -19.39397    2.00000
    7    -19.02288    2.00000
    8    -18.81773    2.00000
    9    -18.17352    2.00000
   10    -18.03551    2.00000
   11    -17.40417    2.00000
   12    -16.75228    2.00000
   13    -16.09622    2.00000
   14    -15.67185    2.00000
   15    -15.37268    2.00000
   16    -14.57268    2.00000
   17    -14.48799    2.00000
   18    -13.88303    2.00000
   19    -13.48140    2.00000
   20    -13.03431    2.00000
   21    -12.40761    2.00000
   22    -12.10892    2.00000
   23    -11.74366    2.00000
   24    -10.79701    2.00000
   25    -10.46797    2.00000
   26     -9.93426    2.00000
   27     -9.69990    2.00000
   28     -9.32396    2.00000
   29     -9.23108    2.00000
   30     -8.95957    2.00000
   31     -8.94377    2.00000
   32     -8.74496    2.00000
   33     -8.57991    2.00000
   34     -7.98013    2.00000
   35     -7.92165    2.00000
   36     -7.59806    2.00000
   37     -7.25283    2.00000
   38     -7.13974    2.00000
   39     -7.00092    2.00000
   40     -6.60788    2.00000
   41     -6.46382    2.00000
   42     -6.16014    2.00000
   43     -5.60993    1.99999
   44     -5.08312    1.99876
   45     -4.91920    1.99364
   46     -4.85084    1.98744
   47     -4.68194    1.93385
   48     -4.03433    0.08615
   49     -3.40015    0.00016
   50     -3.03884    0.00000
   51     -2.71955    0.00000
   52     -1.87630    0.00000
   53     -1.77528    0.00000
   54     -1.51869    0.00000
   55     -0.99792    0.00000
   56     -0.93005    0.00000
   57     -0.51557    0.00000
   58     -0.25987    0.00000
   59      0.06379    0.00000
   60      0.58456    0.00000
   61      0.72843    0.00000
   62      1.14175    0.00000
   63      1.64248    0.00000
   64      2.28884    0.00000
   65      2.49842    0.00000
   66      2.91933    0.00000
   67      3.81510    0.00000
   68      4.38170    0.00000
   69      4.58141    0.00000
   70      5.16125    0.00000
   71      5.38151    0.00000
   72      5.76399    0.00000
   73      6.17242    0.00000
   74      6.55912    0.00000
   75      6.96677    0.00000
   76      7.25999    0.00000
   77      7.48034    0.00000
   78      7.84009    0.00000
   79      8.10649    0.00000
   80      8.34457    0.00000
   81      8.51386    0.00000
   82      8.72453    0.00000
   83      8.77098    0.00000
   84      8.83110    0.00000
   85      8.95359    0.00000
   86      9.11130    0.00000
   87      9.12117    0.00000
   88      9.47523    0.00000
   89      9.57012    0.00000
   90      9.62380    0.00000
   91      9.68437    0.00000
   92      9.79792    0.00000
   93      9.93739    0.00000
   94     10.01555    0.00000
   95     10.13299    0.00000
   96     10.27930    0.00000
   97     10.39459    0.00000


Forces in eV/Ang:
  0 C    -0.07528   -0.23229    0.02937
  1 C    -0.11522   -0.06142   -0.05241
  2 C     0.24112   -0.29453   -0.07490
  3 C     0.01981   -0.02038    0.02710
  4 C    -0.13070   -0.14391   -0.02823
  5 C    -0.19720    0.13490   -0.03003
  6 C    -0.36590   -0.04241    0.06483
  7 C    -0.05840    0.12479    0.00325
  8 C    -0.10134   -0.23434    0.04267
  9 C     0.08645    0.04000   -0.02602
 10 C     0.01313   -0.07575   -0.02374
 11 C     0.29496    0.54236    0.08963
 12 C    -0.22700    0.01907   -0.04654
 13 C     0.03349   -0.37115    0.00781
 14 C    -0.02879   -0.07048    0.05604
 15 C     0.11937   -0.63146   -0.12163
 16 C     0.02259    0.30819   -0.00096
 17 C    -0.31616    0.03665    0.02869
 18 C     0.29758    0.22357   -0.02540
 19 C     0.22680    0.17657   -0.04400
 20 C     0.33481    0.25534   -0.06783
 21 C    -0.09692   -0.10035    0.02074
 22 C    -0.06129   -0.29415   -0.03659
 23 C    -0.03227    0.55884    0.17821

System changes: positions 

Initializing position-dependent things.

Density initialized from wave functions
           .--------------------------------------.  
          /|                                      |  
         / |                                      |  
        /  |                                      |  
       /   |                                      |  
      /    |                                      |  
     /     |                                      |  
    /      |                                      |  
   /       |           C  C  C  C                 |  
  /        |        C            C                |  
 *         |  C  C      C  C  C    C              |  
 |         C  C  C  C               C             |  
 |         .----------C-------------C-------------.  
 |        /            C  C        C             /   
 |       /                   C  C               /    
 |      /                                      /     
 |     /                                      /      
 |    /                                      /       
 |   /                                      /        
 |  /                                      /         
 | /                                      /          
 |/                                      /           
 *--------------------------------------*            

Positions:
   0 C      4.358739    9.175849    5.377229
   1 C      4.774011    7.708248    5.445402
   2 C      7.405591    7.687204    5.692468
   3 C      2.976633    8.833205    4.983075
   4 C      3.529549    7.162399    5.066522
   5 C      2.264668    7.669227    4.807575
   6 C      7.160707    6.314094    5.448426
   7 C      5.142726   10.264084    5.461817
   8 C     10.317089    4.725924    4.421116
   9 C      9.023260    4.771339    4.775477
  10 C      7.882227    5.188158    5.130064
  11 C      6.070147    7.213541    5.561971
  12 C      6.139487   11.093370    5.559464
  13 C      9.365273    9.389127    5.484562
  14 C      9.752260   11.659000    5.205926
  15 C     12.589850    7.555902    4.159572
  16 C     11.611724    9.854863    4.760730
  17 C     10.361126   10.360385    5.178088
  18 C     12.280903    6.332026    4.101834
  19 C      7.207438   11.835578    5.497367
  20 C      8.378677    8.654388    5.679174
  21 C      8.516837   11.969165    5.424405
  22 C     11.420222    5.308520    4.165150
  23 C     12.270461    8.829119    4.451056

Unit cell:
           periodic     x           y           z      points  spacing
  1. axis:    yes   16.000000    0.000000    0.000000    80     0.2000
  2. axis:    yes    0.000000   16.000000    0.000000    80     0.2000
  3. axis:    yes    0.000000    0.000000   10.000000    48     0.2083

Effective grid spacing dv^(1/3) = 0.2027

                     log10-error:    total        iterations:
           time      wfs    density  energy       fermi  poisson
iter:   1  17:14:05          +inf  -180.991736    3      5      
iter:   2  17:14:06         -2.24  -180.983692    2      1      
iter:   3  17:14:06         -2.39  -180.978599    2      1      
iter:   4  17:14:07         -2.53  -180.973485    2      2      
iter:   5  17:14:07         -2.73  -180.977534    2      2      
iter:   6  17:14:08         -2.61  -180.972327    2      2      
iter:   7  17:14:08         -2.88  -180.973842    2      2      
iter:   8  17:14:09         -3.08  -180.972043    2      1      
iter:   9  17:14:09         -3.50  -180.972313    2      1      
iter:  10  17:14:09         -3.58  -180.973020    2      1      
iter:  11  17:14:10         -3.60  -180.972071    2      1      
iter:  12  17:14:10         -4.02  -180.972086    2      1      

Converged after 12 iterations.

Dipole moment: (0.184970, -0.014288, 0.066281) |e|*Ang

Energy contributions relative to reference atoms: (reference = -24663.074771)

Kinetic:       +103.174800
Potential:     -112.794578
External:        +0.000000
XC:            -174.346214
Entropy (-ST):   -0.084803
Local:           +3.036306
--------------------------
Free energy:   -181.014488
Extrapolated:  -180.972086

Fermi level: -4.35724

 Band  Eigenvalues  Occupancy
    0    -23.36720    2.00000
    1    -22.99711    2.00000
    2    -20.96803    2.00000
    3    -20.34647    2.00000
    4    -20.15419    2.00000
    5    -19.79371    2.00000
    6    -19.37184    2.00000
    7    -19.00555    2.00000
    8    -18.83162    2.00000
    9    -18.18412    2.00000
   10    -18.02053    2.00000
   11    -17.37755    2.00000
   12    -16.71976    2.00000
   13    -16.08786    2.00000
   14    -15.67118    2.00000
   15    -15.36191    2.00000
   16    -14.56452    2.00000
   17    -14.48193    2.00000
   18    -13.88993    2.00000
   19    -13.46022    2.00000
   20    -13.02064    2.00000
   21    -12.39108    2.00000
   22    -12.03866    2.00000
   23    -11.72989    2.00000
   24    -10.78392    2.00000
   25    -10.49323    2.00000
   26     -9.97822    2.00000
   27     -9.70456    2.00000
   28     -9.30325    2.00000
   29     -9.25170    2.00000
   30     -8.94156    2.00000
   31     -8.92632    2.00000
   32     -8.71774    2.00000
   33     -8.56099    2.00000
   34     -7.97384    2.00000
   35     -7.91116    2.00000
   36     -7.58144    2.00000
   37     -7.24418    2.00000
   38     -7.14516    2.00000
   39     -6.99773    2.00000
   40     -6.61144    2.00000
   41     -6.46308    2.00000
   42     -6.19613    2.00000
   43     -5.60324    1.99999
   44     -5.11121    1.99894
   45     -4.96401    1.99538
   46     -4.86292    1.98735
   47     -4.67496    1.91993
   48     -4.06097    0.09828
   49     -3.39634    0.00013
   50     -2.99191    0.00000
   51     -2.73318    0.00000
   52     -1.87554    0.00000
   53     -1.77799    0.00000
   54     -1.49411    0.00000
   55     -1.02698    0.00000
   56     -0.93772    0.00000
   57     -0.52143    0.00000
   58     -0.27648    0.00000
   59     -0.02427    0.00000
   60      0.57541    0.00000
   61      0.67471    0.00000
   62      1.12210    0.00000
   63      1.62223    0.00000
   64      2.26268    0.00000
   65      2.49587    0.00000
   66      2.92491    0.00000
   67      3.81771    0.00000
   68      4.32759    0.00000
   69      4.53101    0.00000
   70      5.13908    0.00000
   71      5.35634    0.00000
   72      5.70728    0.00000
   73      6.13839    0.00000
   74      6.60826    0.00000
   75      6.98326    0.00000
   76      7.28140    0.00000
   77      7.46223    0.00000
   78      7.92792    0.00000
   79      8.08191    0.00000
   80      8.25169    0.00000
   81      8.39947    0.00000
   82      8.61968    0.00000
   83      8.73401    0.00000
   84      8.78090    0.00000
   85      8.90574    0.00000
   86      9.00364    0.00000
   87      9.07030    0.00000
   88      9.46937    0.00000
   89      9.57148    0.00000
   90      9.62016    0.00000
   91      9.67841    0.00000
   92      9.80245    0.00000
   93      9.94471    0.00000
   94     10.02109    0.00000
   95     10.13667    0.00000
   96     10.27855    0.00000
   97     10.38930    0.00000


Forces in eV/Ang:
  0 C    -0.09669   -0.01301   -0.00868
  1 C     0.03205    0.09700   -0.01205
  2 C     0.22592    0.19841   -0.03536
  3 C     0.12530   -0.12440    0.04677
  4 C    -0.06546   -0.00852   -0.02468
  5 C     0.03595    0.18816    0.02892
  6 C    -0.16119   -0.45348    0.01017
  7 C    -0.15432    0.02859   -0.03124
  8 C     0.08509   -0.02700   -0.00161
  9 C     0.24212    0.01909   -0.09711
 10 C    -0.00197   -0.17332   -0.01964
 11 C    -0.03466    0.49485    0.05300
 12 C    -0.09629   -0.07813   -0.03727
 13 C     0.63960    0.20205   -0.11958
 14 C     0.02120   -0.25348    0.07415
 15 C     0.10563    0.60254    0.04843
 16 C    -0.28339    0.45031    0.13080
 17 C    -0.24780    0.15332    0.00053
 18 C    -0.19770   -0.67319   -0.03392
 19 C     0.17516    0.06713   -0.04202
 20 C    -0.34563   -0.25956    0.05670
 21 C    -0.24223   -0.04065   -0.00589
 22 C    -0.05725   -0.10208    0.03916
 23 C     0.32631   -0.34645   -0.07573

System changes: positions 

Initializing position-dependent things.

Density initialized from wave functions
           .--------------------------------------.  
          /|                                      |  
         / |                                      |  
        /  |                                      |  
       /   |                                      |  
      /    |                                      |  
     /     |                                      |  
    /      |                                      |  
   /       |           C  C  C  C                 |  
  /        |        C            C                |  
 *         |  C  C      C  C  C    C              |  
 |         C  C  C  C               C             |  
 |         .----------C-------------C-------------.  
 |        /            C  C        C             /   
 |       /                   C  C               /    
 |      /                                      /     
 |     /                                      /      
 |    /                                      /       
 |   /                                      /        
 |  /                                      /         
 | /                                      /          
 |/                                      /           
 *--------------------------------------*            

Positions:
   0 C      4.357688    9.172975    5.377871
   1 C      4.772898    7.708088    5.444763
   2 C      7.414383    7.684314    5.690816
   3 C      2.977694    8.832014    4.983736
   4 C      3.526110    7.159678    5.065629
   5 C      2.262180    7.672791    4.807496
   6 C      7.154038    6.310003    5.449444
   7 C      5.140307   10.266353    5.461441
   8 C     10.318545    4.721258    4.420803
   9 C      9.022984    4.772143    4.775218
  10 C      7.881677    5.186491    5.129898
  11 C      6.073695    7.226248    5.563743
  12 C      6.136895   11.094126    5.558257
  13 C      9.372227    9.385487    5.483629
  14 C      9.752606   11.657287    5.207258
  15 C     12.592678    7.560414    4.159270
  16 C     11.610131    9.862957    4.761738
  17 C     10.355502   10.361209    5.178283
[...]

Kinetic:       +101.286159
Potential:     -111.410193
External:        +0.000000
XC:            -173.924707
Entropy (-ST):   -0.084521
Local:           +3.061889
--------------------------
Free energy:   -181.071372
Extrapolated:  -181.029112

Fermi level: -4.36177

 Band  Eigenvalues  Occupancy
    0    -23.32905    2.00000
    1    -22.96966    2.00000
    2    -20.99718    2.00000
    3    -20.34824    2.00000
    4    -20.19031    2.00000
    5    -19.77535    2.00000
    6    -19.38659    2.00000
    7    -19.00831    2.00000
    8    -18.80488    2.00000
    9    -18.16926    2.00000
   10    -18.02931    2.00000
   11    -17.39795    2.00000
   12    -16.73552    2.00000
   13    -16.07990    2.00000
   14    -15.65576    2.00000
   15    -15.37143    2.00000
   16    -14.55012    2.00000
   17    -14.48045    2.00000
   18    -13.87680    2.00000
   19    -13.44841    2.00000
   20    -12.99816    2.00000
   21    -12.37803    2.00000
   22    -12.12083    2.00000
   23    -11.74538    2.00000
   24    -10.79696    2.00000
   25    -10.45049    2.00000
   26     -9.90644    2.00000
   27     -9.71163    2.00000
   28     -9.31341    2.00000
   29     -9.26913    2.00000
   30     -8.93433    2.00000
   31     -8.92097    2.00000
   32     -8.73333    2.00000
   33     -8.57580    2.00000
   34     -7.96538    2.00000
   35     -7.90149    2.00000
   36     -7.59686    2.00000
   37     -7.24698    2.00000
   38     -7.12871    2.00000
   39     -7.01733    2.00000
   40     -6.60095    2.00000
   41     -6.46835    2.00000
   42     -6.20134    2.00000
   43     -5.61083    1.99999
   44     -5.09812    1.99873
   45     -4.95440    1.99468
   46     -4.85140    1.98516
   47     -4.68568    1.92456
   48     -4.06383    0.09673
   49     -3.40124    0.00013
   50     -3.04783    0.00000
   51     -2.74378    0.00000
   52     -1.89467    0.00000
   53     -1.74215    0.00000
   54     -1.41708    0.00000
   55     -1.07021    0.00000
   56     -1.00578    0.00000
   57     -0.48990    0.00000
   58     -0.25368    0.00000
   59     -0.03227    0.00000
   60      0.50834    0.00000
   61      0.66791    0.00000
   62      1.09876    0.00000
   63      1.56576    0.00000
   64      2.29968    0.00000
   65      2.43624    0.00000
   66      2.85681    0.00000
   67      3.93564    0.00000
   68      4.32583    0.00000
   69      4.39167    0.00000
   70      5.14992    0.00000
   71      5.27537    0.00000
   72      5.66247    0.00000
   73      6.12981    0.00000
   74      6.63119    0.00000
   75      6.87598    0.00000
   76      7.24867    0.00000
   77      7.40695    0.00000
   78      7.93152    0.00000
   79      8.06149    0.00000
   80      8.19924    0.00000
   81      8.33380    0.00000
   82      8.55366    0.00000
   83      8.71701    0.00000
   84      8.83684    0.00000
   85      8.94614    0.00000
   86      8.96563    0.00000
   87      9.08636    0.00000
   88      9.45978    0.00000
   89      9.56679    0.00000
   90      9.61480    0.00000
   91      9.63587    0.00000
   92      9.76931    0.00000
   93      9.97884    0.00000
   94     10.04303    0.00000
   95     10.15348    0.00000
   96     10.19725    0.00000
   97     10.38192    0.00000


Forces in eV/Ang:
  0 C    -0.04955   -0.07455   -0.00989
  1 C    -0.00632   -0.00526   -0.01749
  2 C    -0.03385    0.07632    0.01278
  3 C    -0.09851   -0.02825    0.03052
  4 C     0.07764    0.02821    0.01020
  5 C    -0.00718   -0.06058    0.00438
  6 C    -0.02261   -0.04387   -0.09089
  7 C     0.05580    0.14170   -0.02392
  8 C    -0.10763    0.00584    0.00274
  9 C    -0.00261   -0.07702    0.00519
 10 C     0.05159   -0.02838   -0.01458
 11 C     0.11829    0.11294   -0.00701
 12 C    -0.11888   -0.01102    0.01242
 13 C    -0.14357   -0.08587    0.01106
 14 C    -0.04076   -0.07975   -0.03592
 15 C     0.05298   -0.04135   -0.01134
 16 C    -0.09003    0.15981    0.06739
 17 C     0.01241   -0.07013    0.04178
 18 C     0.02505    0.06096    0.03141
 19 C     0.01920    0.05905   -0.00924
 20 C     0.08602    0.04388   -0.04321
 21 C     0.19329   -0.02808   -0.00982
 22 C    -0.01889    0.00535    0.00548
 23 C     0.07636   -0.06769   -0.04815

System changes: positions 

Initializing position-dependent things.

Density initialized from wave functions
           .--------------------------------------.  
          /|                                      |  
         / |                                      |  
        /  |                                      |  
       /   |                                      |  
      /    |                                      |  
     /     |                                      |  
    /      |                                      |  
   /       |           C  C  C  C                 |  
  /        |        C            C                |  
 *         |  C  C      C  C  C     C             |  
 |         C  C  C  C               C             |  
 |         .----------C-------------C-------------.  
 |        /            C  C        C             /   
 |       /                   C  C               /    
 |      /                                      /     
 |     /                                      /      
 |    /                                      /       
 |   /                                      /        
 |  /                                      /         
 | /                                      /          
 |/                                      /           
 *--------------------------------------*            

Positions:
   0 C      4.334732    9.192905    5.387397
   1 C      4.784651    7.735291    5.441388
   2 C      7.444637    7.667296    5.675569
   3 C      2.968844    8.839067    4.996783
   4 C      3.538241    7.177865    5.062972
   5 C      2.263014    7.679376    4.824372
   6 C      7.148615    6.293570    5.452031
   7 C      5.086286   10.300878    5.457103
   8 C     10.327308    4.697490    4.424908
   9 C      9.034681    4.789092    4.767307
  10 C      7.874733    5.166790    5.119796
  11 C      6.089292    7.246998    5.557226
  12 C      6.103922   11.102340    5.536546
  13 C      9.433188    9.344418    5.471071
  14 C      9.718447   11.623827    5.232797
  15 C     12.552424    7.559547    4.178783
  16 C     11.647549    9.898111    4.757086
  17 C     10.377399   10.363483    5.174642
  18 C     12.277950    6.317478    4.101367
  19 C      7.171079   11.844009    5.482890
  20 C      8.439512    8.609006    5.664048
  21 C      8.482094   11.936590    5.419668
  22 C     11.425942    5.288946    4.168621
  23 C     12.289212    8.842363    4.473903

Unit cell:
           periodic     x           y           z      points  spacing
  1. axis:    yes   16.000000    0.000000    0.000000    80     0.2000
  2. axis:    yes    0.000000   16.000000    0.000000    80     0.2000
  3. axis:    yes    0.000000    0.000000   10.000000    48     0.2083

Effective grid spacing dv^(1/3) = 0.2027

                     log10-error:    total        iterations:
           time      wfs    density  energy       fermi  poisson
iter:   1  17:15:02          +inf  -181.035380    2      4      
iter:   2  17:15:03         -2.56  -181.033521    2      1      
iter:   3  17:15:03         -2.72  -181.032188    2      1      
iter:   4  17:15:04         -3.02  -181.031680    2      1      
iter:   5  17:15:04         -3.31  -181.032059    2      1      
iter:   6  17:15:05         -3.39  -181.031244    2      1      
iter:   7  17:15:05         -3.56  -181.031448    2      1      
iter:   8  17:15:06         -3.55  -181.031753    2      1      
iter:   9  17:15:06         -4.08  -181.031665    2      1      

Converged after 9 iterations.

Dipole moment: (0.202164, 0.020428, 0.056570) |e|*Ang

Energy contributions relative to reference atoms: (reference = -24663.074771)

Kinetic:       +101.379408
Potential:     -111.489167
External:        +0.000000
XC:            -173.940025
Entropy (-ST):   -0.085096
Local:           +3.060666
--------------------------
Free energy:   -181.074213
Extrapolated:  -181.031665

Fermi level: -4.36197

 Band  Eigenvalues  Occupancy
    0    -23.32657    2.00000
    1    -22.97264    2.00000
    2    -21.00408    2.00000
    3    -20.34795    2.00000
    4    -20.18693    2.00000
    5    -19.77507    2.00000
    6    -19.38316    2.00000
    7    -19.00786    2.00000
    8    -18.81238    2.00000
    9    -18.17327    2.00000
   10    -18.02884    2.00000
   11    -17.39512    2.00000
   12    -16.73288    2.00000
   13    -16.07965    2.00000
   14    -15.66493    2.00000
   15    -15.36765    2.00000
   16    -14.54573    2.00000
   17    -14.47821    2.00000
   18    -13.87952    2.00000
   19    -13.43249    2.00000
   20    -13.00270    2.00000
   21    -12.39013    2.00000
   22    -12.11756    2.00000
   23    -11.74596    2.00000
   24    -10.79145    2.00000
   25    -10.45108    2.00000
   26     -9.90065    2.00000
   27     -9.71089    2.00000
   28     -9.31948    2.00000
   29     -9.28126    2.00000
   30     -8.93408    2.00000
   31     -8.92215    2.00000
   32     -8.72795    2.00000
   33     -8.57392    2.00000
   34     -7.96559    2.00000
   35     -7.90410    2.00000
   36     -7.59438    2.00000
   37     -7.24573    2.00000
   38     -7.13098    2.00000
   39     -7.01942    2.00000
   40     -6.60199    2.00000
   41     -6.46711    2.00000
   42     -6.20440    2.00000
   43     -5.60751    1.99999
   44     -5.10049    1.99876
   45     -4.95726    1.99482
   46     -4.84815    1.98465
   47     -4.68516    1.92404
   48     -4.06498    0.09761
   49     -3.39800    0.00013
   50     -3.05835    0.00000
   51     -2.74689    0.00000
   52     -1.89534    0.00000
   53     -1.74437    0.00000
   54     -1.40982    0.00000
   55     -1.08480    0.00000
   56     -1.00645    0.00000
   57     -0.48453    0.00000
   58     -0.24708    0.00000
   59     -0.04179    0.00000
   60      0.51261    0.00000
   61      0.65999    0.00000
   62      1.09473    0.00000
   63      1.56429    0.00000
   64      2.29961    0.00000
   65      2.44725    0.00000
   66      2.86742    0.00000
   67      3.92808    0.00000
   68      4.32742    0.00000
   69      4.40502    0.00000
   70      5.15001    0.00000
   71      5.28501    0.00000
   72      5.65635    0.00000
   73      6.13740    0.00000
   74      6.65278    0.00000
   75      6.85638    0.00000
   76      7.26411    0.00000
   77      7.40580    0.00000
   78      7.92766    0.00000
   79      8.06771    0.00000
   80      8.17886    0.00000
   81      8.34281    0.00000
   82      8.54161    0.00000
   83      8.71593    0.00000
   84      8.84008    0.00000
   85      8.94111    0.00000
   86      8.96124    0.00000
   87      9.08868    0.00000
   88      9.46182    0.00000
   89      9.56688    0.00000
   90      9.61066    0.00000
   91      9.63396    0.00000
   92      9.77033    0.00000
   93      9.98283    0.00000
   94     10.04675    0.00000
   95     10.15302    0.00000
   96     10.19856    0.00000
   97     10.38205    0.00000


Forces in eV/Ang:
  0 C    -0.03675    0.01924   -0.01578
  1 C     0.00254    0.01396   -0.01894
  2 C    -0.00809    0.01900    0.00396
  3 C    -0.04510   -0.08307    0.05086
  4 C     0.05129   -0.03373    0.00841
  5 C    -0.00990   -0.05265    0.00733
  6 C    -0.05824   -0.03358   -0.06920
  7 C     0.05863    0.05600   -0.01055
  8 C     0.00872    0.00417   -0.02222
  9 C    -0.04005   -0.09667    0.00933
 10 C    -0.00255   -0.01324   -0.00052
 11 C     0.01843    0.10872   -0.01159
 12 C    -0.06218    0.04588    0.00877
 13 C    -0.04802   -0.05774    0.00323
 14 C     0.00540   -0.00389   -0.03398
 15 C     0.03261   -0.00975   -0.00218
 16 C    -0.02376   -0.00028    0.03501
 17 C     0.07438   -0.06152    0.01855
 18 C    -0.00119    0.06572    0.04159
 19 C    -0.00811   -0.00082   -0.00245
 20 C     0.03569    0.03019   -0.02744
 21 C     0.08636   -0.00920   -0.00059
 22 C    -0.00131    0.03649    0.00052
 23 C     0.02401   -0.02698   -0.03111

System changes: positions 

Initializing position-dependent things.

Density initialized from wave functions
           .--------------------------------------.  
          /|                                      |  
         / |                                      |  
        /  |                                      |  
       /   |                                      |  
      /    |                                      |  
     /     |                                      |  
    /      |                                      |  
   /       |           C  C  C  C                 |  
  /        |        C            C                |  
 *         |  C  C      C  C  C     C             |  
 |         C  C  C  C               C             |  
 |         .----------C-------------C-------------.  
 |        /            C  C        C             /   
 |       /                   C  C               /    
 |      /                                      /     
 |     /                                      /      
 |    /                                      /       
 |   /                                      /        
 |  /                                      /         
 | /                                      /          
 |/                                      /           
 *--------------------------------------*            

Positions:
   0 C      4.334405    9.192652    5.387182
   1 C      4.785273    7.735214    5.441031
   2 C      7.444835    7.668125    5.675657
   3 C      2.966481    8.837768    4.997802
   4 C      3.539421    7.177636    5.063123
   5 C      2.262896    7.677107    4.824522
   6 C      7.148149    6.293262    5.449731
   7 C      5.086087   10.301841    5.456508
   8 C     10.326239    4.697679    4.424449
   9 C      9.033694    4.786502    4.767627
  10 C      7.874849    5.166840    5.119855
  11 C      6.090910    7.249879    5.556812
  12 C      6.103285   11.103874    5.537022
  13 C      9.431624    9.343821    5.470936
  14 C      9.719381   11.622443    5.231542
  15 C     12.554190    7.559694    4.178454
  16 C     11.647281    9.898995    4.757997
  17 C     10.377465   10.361208    5.175915
  18 C     12.278066    6.317925    4.102286
  19 C      7.172089   11.844728    5.482773
  20 C      8.439173    8.608807    5.663306
  21 C      8.484206   11.936390    5.419579
  22 C     11.425509    5.289479    4.168808
  23 C     12.289500    8.842986    4.473229

Unit cell:
           periodic     x           y           z      points  spacing
  1. axis:    yes   16.000000    0.000000    0.000000    80     0.2000
  2. axis:    yes    0.000000   16.000000    0.000000    80     0.2000
  3. axis:    yes    0.000000    0.000000   10.000000    48     0.2083

Effective grid spacing dv^(1/3) = 0.2027

                     log10-error:    total        iterations:
           time      wfs    density  energy       fermi  poisson
iter:   1  17:15:08          +inf  -181.032426    2      4      
iter:   2  17:15:08         -3.00  -181.032869    2      1      
iter:   3  17:15:09         -3.18  -181.033067    2      1      
iter:   4  17:15:09         -3.34  -181.033186    2      1      
iter:   5  17:15:10         -3.57  -181.033913    2      1      
iter:   6  17:15:10         -3.45  -181.032820    2      1      
iter:   7  17:15:11         -3.69  -181.032792    2      1      
iter:   8  17:15:11         -3.45  -181.033338    2      1      
iter:   9  17:15:12         -4.33  -181.033158    1      1      

Converged after 9 iterations.

Dipole moment: (0.201982, 0.018325, 0.056954) |e|*Ang

Energy contributions relative to reference atoms: (reference = -24663.074771)

Kinetic:       +101.233626
Potential:     -111.371994
External:        +0.000000
XC:            -173.908199
Entropy (-ST):   -0.085298
Local:           +3.056058
--------------------------
Free energy:   -181.075808
Extrapolated:  -181.033158

Fermi level: -4.36207

 Band  Eigenvalues  Occupancy
    0    -23.32344    2.00000
    1    -22.96950    2.00000
    2    -21.00566    2.00000
    3    -20.34511    2.00000
    4    -20.18310    2.00000
    5    -19.77424    2.00000
    6    -19.38046    2.00000
    7    -19.00724    2.00000
    8    -18.81823    2.00000
    9    -18.17561    2.00000
   10    -18.02629    2.00000
   11    -17.39237    2.00000
   12    -16.73102    2.00000
   13    -16.07892    2.00000
   14    -15.67085    2.00000
   15    -15.36643    2.00000
   16    -14.54567    2.00000
   17    -14.47814    2.00000
   18    -13.88201    2.00000
   19    -13.42750    2.00000
   20    -13.00443    2.00000
   21    -12.39725    2.00000
   22    -12.11258    2.00000
   23    -11.74255    2.00000
   24    -10.78996    2.00000
   25    -10.45092    2.00000
   26     -9.89113    2.00000
   27     -9.70849    2.00000
   28     -9.32668    2.00000
   29     -9.28871    2.00000
   30     -8.93111    2.00000
   31     -8.92041    2.00000
   32     -8.72407    2.00000
   33     -8.57241    2.00000
   34     -7.96333    2.00000
   35     -7.90438    2.00000
   36     -7.59397    2.00000
   37     -7.24538    2.00000
   38     -7.13348    2.00000
   39     -7.02098    2.00000
   40     -6.60179    2.00000
   41     -6.46756    2.00000
   42     -6.20662    2.00000
   43     -5.60547    1.99999
   44     -5.10203    1.99878
   45     -4.95720    1.99481
   46     -4.84823    1.98464
   47     -4.68481    1.92370
   48     -4.06545    0.09795
   49     -3.39717    0.00013
   50     -3.05896    0.00000
   51     -2.74879    0.00000
   52     -1.89697    0.00000
   53     -1.74317    0.00000
   54     -1.41021    0.00000
   55     -1.08656    0.00000
   56     -1.00465    0.00000
   57     -0.48353    0.00000
   58     -0.25056    0.00000
   59     -0.04814    0.00000
   60      0.51266    0.00000
   61      0.65344    0.00000
   62      1.09352    0.00000
   63      1.56278    0.00000
   64      2.29705    0.00000
   65      2.45040    0.00000
   66      2.87155    0.00000
   67      3.91792    0.00000
   68      4.32029    0.00000
   69      4.40682    0.00000
   70      5.14763    0.00000
   71      5.29568    0.00000
   72      5.65511    0.00000
   73      6.14583    0.00000
   74      6.66478    0.00000
   75      6.85872    0.00000
   76      7.26965    0.00000
   77      7.40881    0.00000
   78      7.92665    0.00000
   79      8.07188    0.00000
   80      8.17402    0.00000
   81      8.34382    0.00000
   82      8.53890    0.00000
   83      8.71212    0.00000
   84      8.83329    0.00000
   85      8.93788    0.00000
   86      8.95837    0.00000
   87      9.08517    0.00000
   88      9.46149    0.00000
   89      9.56701    0.00000
   90      9.61017    0.00000
   91      9.63401    0.00000
   92      9.77177    0.00000
   93      9.98038    0.00000
   94     10.04437    0.00000
   95     10.14870    0.00000
   96     10.20027    0.00000
   97     10.38250    0.00000


Forces in eV/Ang:
  0 C    -0.03844    0.05533   -0.01838
  1 C    -0.00302    0.05175   -0.02001
  2 C    -0.01325   -0.03018   -0.00653
  3 C     0.00353   -0.05620    0.05862
  4 C     0.03582   -0.03614    0.00955
  5 C    -0.00284   -0.06159    0.01274
  6 C    -0.06095    0.02052   -0.04309
  7 C     0.01143    0.00009   -0.00813
  8 C     0.03945    0.02296   -0.02484
  9 C    -0.00997   -0.09527   -0.00144
 10 C    -0.02950   -0.00301    0.00313
 11 C    -0.00885    0.03228   -0.02073
 12 C     0.00320    0.07188    0.00108
 13 C     0.03446   -0.01023   -0.00847
 14 C     0.02348   -0.01219   -0.01997
 15 C     0.02612    0.03897    0.00556
 16 C     0.03440   -0.07948    0.00809
 17 C     0.05715   -0.02975    0.01607
 18 C    -0.02152    0.04423    0.04225
 19 C    -0.01400   -0.03053   -0.00130
 20 C    -0.00385    0.00209   -0.00956
 21 C    -0.00545   -0.00251    0.00288
 22 C    -0.01975    0.02916    0.00606
 23 C     0.00252   -0.02145   -0.02062

