
  ___ ___ ___ _ _ _  
 |   |   |_  | | | | 
 | | | | | . | | | | 
 |__ |  _|___|_____|  1.3.0b1
 |___|_|             

User:   esb@s65n33.grendel.cscaa.dk
Date:   Thu Nov  9 11:53:30 2017
Arch:   x86_64
Pid:    76748
Python: 2.7.13
gpaw:   /home/esb/DFT/gpaw_git/gpaw
_gpaw:  /home/esb/DFT/gpaw_git/build/bin.linux-x86_64-2.7/gpaw-python
ase:    /home/esb/DFT/ase_git/ase (version 3.15.0b1)
numpy:  /comm/swstack/core/python/2.7.13/lib/python2.7/site-packages/numpy (version 1.13.3)
scipy:  /comm/swstack/core/python/2.7.13/lib/python2.7/site-packages/scipy (version 0.19.1)
units:  Angstrom and eV
cores:  16
Extra parameters: {'blacs': True}

Input parameters:
  basis: dzp
  gpts: [80 80 48]
  kpts: [1 1 1]
  maxiter: 99
  mixer: {backend: pulay,
          beta: 0.05,
          method: separate,
          nmaxold: 5,
          weight: 75}
  mode: lcao
  nbands: -50
  occupations: {name: fermi-dirac,
                width: 0.1}
  poissonsolver: {eps: 1e-07,
                  name: fd,
                  nn: 3,
                  relax: GS}
  xc: PBE

System changes: positions, numbers, cell, pbc, initial_charges, initial_magmoms 

Initialize ...

C-setup:
  name: Carbon
  id: 4aa54d4b901d75f77cc0ea3eec22967b
  Z: 6
  valence: 4
  core: 2
  charge: 0.0
  file: /home/esb/DFT/gpaw-setups-0.8.7929/C.PBE.gz
  cutoffs: 0.64(comp), 1.14(filt), 1.14(core), lmax=2
  valence states:
                energy  radius
    2s(2.00)   -13.751   0.635
    2p(2.00)    -5.284   0.635
    *s          13.461   0.635
    *p          21.927   0.635
    *d           0.000   0.635

  LCAO basis set for C:
    Name: dzp
    File: /home/esb/DFT/gpaw-setups-0.8.7929/C.dzp.basis.gz
    Number of radial functions: 5
    Number of spherical harmonics: 13
      l=0, rc=5.5469 Bohr: 2s-sz confined orbital
      l=1, rc=6.6719 Bohr: 2p-sz confined orbital
      l=0, rc=3.0312 Bohr: 2s-dz split-valence wave
      l=1, rc=3.7500 Bohr: 2p-dz split-valence wave
      l=2, rc=6.6719 Bohr: d-type Gaussian polarization

Reference energy: -24663.074771

Spin-paired calculation

Occupation numbers:
  Fermi-Dirac: width=0.1000 eV

Convergence criteria:
  Maximum total energy change: 0.0005 eV / electron
  Maximum integral of absolute density change: 0.0001 electrons
  Maximum integral of absolute eigenstate change: 4e-08 eV^2
  Maximum number of iterations: 99

Symmetries present (total): 1

  ( 1  0  0)
  ( 0  1  0)
  ( 0  0  1)

1 k-point (Gamma)
1 k-point in the irreducible part of the Brillouin zone
       k-points in crystal coordinates                weights
   0:     0.00000000    0.00000000    0.00000000          1/1

Wave functions: LCAO
  Diagonalizer: Serial LAPACK
  Atomic Correction: dense with blas
  Datatype: float
  Eigensolver: None 

LCAO using direct dense diagonalizer 

Densities:
  Coarse grid: 80*80*48 grid
  Fine grid: 160*160*96 grid
  Total Charge: 0.000000 

Density mixing:
  Method: separate
  Backend: pulay
  Linear mixing parameter: 0.05
  Mixing with 5 old densities
  Damping of long wave oscillations: 75 

Hamiltonian:
  XC and Coulomb potentials evaluated on a 160*160*96 grid
  Using the PBE Exchange-Correlation functional
  Interpolation: tri-quintic (5. degree polynomial)
  Poisson solver: Gauss-Seidel solver with 6 multi-grid levels
    Coarsest grid: 5 x 5 x 3 points
    Stencil: 6*3+1=19 point O(h^6) finite-difference Laplacian
    Max iterations: 1000
    Tolerance: 1.000000e-07 

Memory estimate:
  Process memory now: 77.56 MiB
  Calculator: 15.59 MiB
    Density: 6.13 MiB
      Arrays: 3.81 MiB
      Localized functions: 0.86 MiB
      Mixer: 1.46 MiB
    Hamiltonian: 5.40 MiB
      Arrays: 2.49 MiB
      XC: 0.00 MiB
      Poisson: 2.85 MiB
      vbar: 0.07 MiB
    Wavefunctions: 4.05 MiB
      C [qnM]: 0.23 MiB
      S, T [2 x qmm]: 1.49 MiB
      P [aqMi]: 0.01 MiB
      TCI: 0.00 MiB
      BasisFunctions: 2.33 MiB
      Eigensolver: 0.00 MiB

Total number of cores used: 16
Domain decomposition: 2 x 4 x 2

Number of atoms: 24
Number of atomic orbitals: 312
Number of bands in calculation: 98
Bands to converge: occupied states only
Number of valence electrons: 96

... initialized

Initializing position-dependent things.

Density initialized from atomic densities
           .--------------------------------------.  
          /|                                      |  
         / |                                      |  
        /  |                                      |  
       /   |                                      |  
      /    |                                      |  
     /     |                                      |  
    /      |                                      |  
   /       |             C                        |  
  /        |               C                      |  
 *         |C  C        C     CC                  |  
 |         |      C  C CC   C                     |  
 |         .---C--C--C-------C--------------------.  
 |        /   C     C  C  C                      /   
 |       /   C   C                              /    
 |      /                                      /     
 |     /                                      /      
 |    /                                      /       
 |   /                                      /        
 |  /                                      /         
 | /                                      /          
 |/                                      /           
 *--------------------------------------*            

Positions:
   0 C      6.596772    6.889116    4.560813
   1 C      5.843616    9.089112    4.636005
   2 C      7.008391    8.319667    4.449669
   3 C      4.164821    3.160794    5.347074
   4 C      4.181425    4.491032    5.232785
   5 C      5.158149    6.874135    4.874404
   6 C      4.431249    5.732812    5.084271
   7 C      4.706913    8.296417    4.905043
   8 C      3.405676    8.733112    5.077421
   9 C      2.263067    9.246492    5.179399
  10 C      7.474550    9.855573    6.157935
  11 C      9.743989    8.378239    6.052891
  12 C      7.536920    7.523351    5.862838
  13 C      9.369287    6.023665    5.717151
  14 C      8.023810    6.192012    5.751022
  15 C      6.143599    7.460102    5.647753
  16 C     10.269665    7.170217    5.932189
  17 C      8.333084    8.728866    6.027784
  18 C      6.913151    5.270855    5.515602
  19 C      5.607596    3.415962    5.249252
  20 C      6.956709    3.831346    5.385978
  21 C      8.304040    3.323138    5.459763
  22 C     10.259485    4.900505    5.692558
  23 C      9.498199    3.715117    5.581164

Unit cell:
           periodic     x           y           z      points  spacing
  1. axis:    yes   16.000000    0.000000    0.000000    80     0.2000
  2. axis:    yes    0.000000   16.000000    0.000000    80     0.2000
  3. axis:    yes    0.000000    0.000000   10.000000    48     0.2083

Effective grid spacing dv^(1/3) = 0.2027

                     log10-error:    total        iterations:
           time      wfs    density  energy       fermi  poisson
iter:   1  11:53:32          +inf  -167.380292    2      6      
iter:   2  11:53:33         -0.88  -165.796389    3      3      
iter:   3  11:53:34         -0.92  -163.659322    4      3      
iter:   4  11:53:34         -1.01  -163.221021    3      2      
iter:   5  11:53:35         -1.05  -164.093402    34     4      
iter:   6  11:53:36         -1.10  -164.135206    2      1      
iter:   7  11:53:36         -1.09  -163.989404    3      2      
iter:   8  11:53:37         -1.08  -162.629487    31     3      
iter:   9  11:53:38         -1.14  -162.078038    34     3      
iter:  10  11:53:38         -1.38  -162.110300    2      3      
iter:  11  11:53:39         -1.47  -162.036978    4      3      
iter:  12  11:53:40         -1.61  -162.062078    4      3      
iter:  13  11:53:40         -1.64  -161.871036    4      3      
iter:  14  11:53:41         -1.98  -161.867167    3      2      
iter:  15  11:53:42         -2.03  -161.850379    3      2      
iter:  16  11:53:42         -2.23  -161.844791    3      2      
iter:  17  11:53:43         -2.39  -161.844011    3      2      
iter:  18  11:53:44         -2.47  -161.843680    3      2      
iter:  19  11:53:44         -2.66  -161.841154    3      2      
iter:  20  11:53:45         -3.01  -161.846207    3      1      
iter:  21  11:53:46         -3.09  -161.843932    2      1      
iter:  22  11:53:46         -3.27  -161.840964    2      1      
iter:  23  11:53:47         -3.50  -161.840083    2      1      
iter:  24  11:53:47         -3.62  -161.836191    2      1      
iter:  25  11:53:48         -3.73  -161.834595    2      1      
iter:  26  11:53:49         -3.91  -161.837894    2      1      
iter:  27  11:53:49         -4.10  -161.837777    2      1      

Converged after 27 iterations.

Dipole moment: (1.004411, -0.911244, -0.072214) |e|*Ang

Energy contributions relative to reference atoms: (reference = -24663.074771)

Kinetic:       +160.860798
Potential:     -145.271748
External:        +0.000000
XC:            -180.195382
Entropy (-ST):   -0.320803
Local:           +2.928955
--------------------------
Free energy:   -161.998178
Extrapolated:  -161.837777

Fermi level: -4.71736

 Band  Eigenvalues  Occupancy
    0    -29.64067    2.00000
    1    -24.30871    2.00000
    2    -22.92887    2.00000
    3    -22.21048    2.00000
    4    -21.89945    2.00000
    5    -21.25936    2.00000
    6    -20.39826    2.00000
    7    -20.04644    2.00000
    8    -19.32797    2.00000
    9    -18.54050    2.00000
   10    -18.07431    2.00000
   11    -17.74219    2.00000
   12    -17.13069    2.00000
   13    -16.61160    2.00000
   14    -16.04140    2.00000
   15    -15.61867    2.00000
   16    -15.37022    2.00000
   17    -15.02547    2.00000
   18    -14.28032    2.00000
   19    -13.96341    2.00000
   20    -13.53276    2.00000
   21    -12.97178    2.00000
   22    -12.70060    2.00000
   23    -12.50491    2.00000
   24    -12.21044    2.00000
   25    -11.41243    2.00000
   26    -10.80309    2.00000
   27    -10.44595    2.00000
   28    -10.38690    2.00000
   29     -9.84122    2.00000
   30     -9.59014    2.00000
   31     -9.41868    2.00000
   32     -9.23169    2.00000
   33     -8.93027    2.00000
   34     -8.47287    2.00000
   35     -7.96311    2.00000
   36     -7.66566    2.00000
   37     -7.34851    2.00000
   38     -7.23211    2.00000
   39     -6.72739    2.00000
   40     -6.17348    2.00000
   41     -6.02389    2.00000
   42     -5.73878    1.99993
   43     -5.49818    1.99919
   44     -5.37002    1.99708
   45     -5.05473    1.93374
   46     -5.01177    1.89997
   47     -4.83478    1.52779
   48     -4.63636    0.61577
   49     -4.23258    0.01557
   50     -4.19048    0.01025
   51     -3.92175    0.00070
   52     -3.58351    0.00002
   53     -3.46194    0.00001
   54     -3.08413    0.00000
   55     -2.95043    0.00000
   56     -2.18103    0.00000
   57     -1.86614    0.00000
   58     -1.51068    0.00000
   59     -0.76284    0.00000
   60     -0.39594    0.00000
   61      0.22096    0.00000
   62      0.48423    0.00000
   63      0.75302    0.00000
   64      1.22214    0.00000
   65      2.07855    0.00000
   66      2.30107    0.00000
   67      2.69370    0.00000
   68      2.88016    0.00000
   69      3.35772    0.00000
   70      3.53984    0.00000
   71      3.95525    0.00000
   72      4.45754    0.00000
   73      4.80308    0.00000
   74      5.22055    0.00000
   75      5.49477    0.00000
   76      5.92792    0.00000
   77      6.31670    0.00000
   78      6.47173    0.00000
   79      6.70167    0.00000
   80      7.03602    0.00000
   81      7.10378    0.00000
   82      7.25140    0.00000
   83      7.46551    0.00000
   84      7.94781    0.00000
   85      8.22974    0.00000
   86      8.52965    0.00000
   87      8.60960    0.00000
   88      8.79533    0.00000
   89      8.81499    0.00000
   90      9.05585    0.00000
   91      9.15114    0.00000
   92      9.19203    0.00000
   93      9.23890    0.00000
   94      9.40017    0.00000
   95      9.47694    0.00000
   96      9.74147    0.00000
   97      9.92173    0.00000


Forces in eV/Ang:
  0 C     0.31768   -8.00081  -11.02138
  1 C     2.02571    1.73360    2.02705
  2 C     0.33439   -0.65053   -3.84859
  3 C     4.14244   -3.40672    0.14608
  4 C     1.41965    3.43800   -0.63981
  5 C    -6.46632   -1.09181   -1.86595
  6 C    -1.22325   -0.83429    0.53229
  7 C    -4.23436    1.03702   -2.34299
  8 C     2.62316   -1.10421    0.16349
  9 C    -2.27742    0.94953    0.15152
 10 C     0.49932    1.35091    0.14149
 11 C    -0.20818   -2.17853    0.27327
 12 C     2.63808    0.60923    3.37203
 13 C     7.57882   -0.87835    0.79146
 14 C    -1.23555   -2.44086    0.91499
 15 C     0.13369    6.33703   10.80095
 16 C    -3.11138    3.99362    0.02994
 17 C     1.64371    1.53805    1.64569
 18 C     3.02269    1.84936   -0.88900
 19 C    -4.24488   -1.57203    0.38603
 20 C    -0.46279    0.72360   -0.26308
 21 C    -1.60926   -0.80780   -0.22687
 22 C    -1.24698   -2.43634   -0.42125
 23 C    -0.07676    1.80208    0.18910

System changes: positions 

Initializing position-dependent things.

Density initialized from wave functions
           .--------------------------------------.  
          /|                                      |  
         / |                                      |  
        /  |                                      |  
       /   |                                      |  
      /    |                                      |  
     /     |                                      |  
    /      |                                      |  
   /       |             C                        |  
  /        |               C                      |  
 *         |C  C        C     C                   |  
 |         |      C  C CC   C                     |  
 |         .---C--C--C-------C--------------------.  
 |        /   C     C  C  C                      /   
 |       /   C   C                              /    
 |      /                                      /     
 |     /                                      /      
 |    /                                      /       
 |   /                                      /        
 |  /                                      /         
 | /                                      /          
 |/                                      /           
 *--------------------------------------*            

Positions:
   0 C      6.597705    6.865624    4.528452
   1 C      5.849564    9.094202    4.641957
   2 C      7.009373    8.317757    4.438369
   3 C      4.176984    3.150791    5.347503
   4 C      4.185594    4.501127    5.230906
   5 C      5.139162    6.870929    4.868925
   6 C      4.427658    5.730362    5.085834
   7 C      4.694480    8.299462    4.898164
   8 C      3.413378    8.729870    5.077901
   9 C      2.256380    9.249280    5.179844
  10 C      7.476017    9.859540    6.158350
  11 C      9.743377    8.371842    6.053693
  12 C      7.544666    7.525140    5.872739
  13 C      9.391540    6.021086    5.719475
  14 C      8.020183    6.184845    5.753709
  15 C      6.143992    7.478709    5.679467
  16 C     10.260529    7.181944    5.932277
  17 C      8.337910    8.733382    6.032617
  18 C      6.922026    5.276285    5.512992
  19 C      5.595132    3.411346    5.250386
  20 C      6.955350    3.833470    5.385205
  21 C      8.299315    3.320766    5.459097
  22 C     10.255823    4.893351    5.691321
  23 C      9.497974    3.720408    5.581720

Unit cell:
           periodic     x           y           z      points  spacing
  1. axis:    yes   16.000000    0.000000    0.000000    80     0.2000
  2. axis:    yes    0.000000   16.000000    0.000000    80     0.2000
  3. axis:    yes    0.000000    0.000000   10.000000    48     0.2083

Effective grid spacing dv^(1/3) = 0.2027

                     log10-error:    total        iterations:
           time      wfs    density  energy       fermi  poisson
iter:   1  11:53:51          +inf  -163.717415    3      5      
iter:   2  11:53:52         -1.81  -163.608418    3      2      
iter:   3  11:53:53         -2.09  -163.591333    3      2      
iter:   4  11:53:53         -2.18  -163.571163    3      2      
iter:   5  11:53:54         -2.37  -163.568684    3      2      
iter:   6  11:53:55         -2.53  -163.567021    3      2      
iter:   7  11:53:55         -2.66  -163.566027    3      2      
iter:   8  11:53:56         -2.82  -163.565639    2      2      
iter:   9  11:53:56         -3.02  -163.565913    2      2      
iter:  10  11:53:57         -3.22  -163.568126    2      1      
iter:  11  11:53:58         -3.33  -163.568153    2      1      
iter:  12  11:53:58         -3.46  -163.568061    2      1      
iter:  13  11:53:59         -3.76  -163.566270    2      1      
iter:  14  11:54:00         -3.88  -163.565050    2      1      
iter:  15  11:54:00         -3.94  -163.565254    2      1      
iter:  16  11:54:01         -4.02  -163.565657    2      1      

Converged after 16 iterations.

Dipole moment: (1.049533, -0.898694, -0.071885) |e|*Ang

Energy contributions relative to reference atoms: (reference = -24663.074771)

Kinetic:       +152.308054
Potential:     -139.954575
External:        +0.000000
XC:            -178.644820
Entropy (-ST):   -0.292564
Local:           +2.871966
--------------------------
Free energy:   -163.711939
Extrapolated:  -163.565657

Fermi level: -4.68870

 Band  Eigenvalues  Occupancy
    0    -28.95932    2.00000
    1    -24.02296    2.00000
    2    -22.83204    2.00000
    3    -22.08295    2.00000
    4    -21.77823    2.00000
    5    -21.18469    2.00000
    6    -20.32542    2.00000
    7    -19.98218    2.00000
    8    -19.30005    2.00000
    9    -18.52518    2.00000
   10    -18.02695    2.00000
   11    -17.71246    2.00000
   12    -17.09330    2.00000
   13    -16.52212    2.00000
   14    -16.01086    2.00000
   15    -15.60104    2.00000
   16    -15.27495    2.00000
   17    -14.95317    2.00000
   18    -14.17669    2.00000
   19    -13.90026    2.00000
   20    -13.40882    2.00000
   21    -12.98534    2.00000
   22    -12.61875    2.00000
   23    -12.47748    2.00000
   24    -12.16889    2.00000
   25    -11.33641    2.00000
   26    -10.78452    2.00000
   27    -10.52109    2.00000
   28    -10.37256    2.00000
   29     -9.82326    2.00000
   30     -9.56692    2.00000
   31     -9.39222    2.00000
   32     -9.23856    2.00000
   33     -8.97914    2.00000
   34     -8.42616    2.00000
   35     -7.97333    2.00000
   36     -7.66059    2.00000
   37     -7.33592    2.00000
   38     -7.25232    2.00000
   39     -6.71466    2.00000
   40     -6.24346    2.00000
   41     -6.05868    2.00000
   42     -5.76867    1.99996
   43     -5.47452    1.99923
   44     -5.35357    1.99741
   45     -5.05585    1.95038
   46     -5.00684    1.92026
   47     -4.82077    1.57860
   48     -4.58685    0.53065
   49     -4.20681    0.01602
   50     -4.12578    0.00716
   51     -3.81484    0.00032
   52     -3.50230    0.00001
   53     -3.41528    0.00001
   54     -3.01316    0.00000
   55     -2.92898    0.00000
   56     -2.17211    0.00000
   57     -1.96121    0.00000
   58     -1.55157    0.00000
   59     -0.80077    0.00000
   60     -0.43350    0.00000
   61      0.23693    0.00000
   62      0.48208    0.00000
   63      0.66994    0.00000
   64      1.13980    0.00000
   65      2.02405    0.00000
   66      2.29490    0.00000
   67      2.72379    0.00000
   68      2.92486    0.00000
   69      3.28852    0.00000
   70      3.64362    0.00000
   71      3.87032    0.00000
   72      4.40459    0.00000
   73      4.84104    0.00000
   74      5.22500    0.00000
   75      5.51348    0.00000
   76      5.87294    0.00000
   77      6.20365    0.00000
   78      6.46847    0.00000
   79      6.77825    0.00000
   80      7.00104    0.00000
   81      7.15331    0.00000
   82      7.29239    0.00000
   83      7.48372    0.00000
   84      7.91382    0.00000
   85      8.20649    0.00000
   86      8.53359    0.00000
   87      8.58186    0.00000
   88      8.77081    0.00000
   89      8.83295    0.00000
   90      9.04672    0.00000
   91      9.16008    0.00000
   92      9.18880    0.00000
   93      9.21837    0.00000
   94      9.39416    0.00000
   95      9.43322    0.00000
   96      9.73687    0.00000
   97      9.90392    0.00000


Forces in eV/Ang:
  0 C    -1.35916   -6.00450   -7.49483
  1 C     1.98847    1.16294    2.19364
  2 C     0.12181   -1.12065   -3.43653
  3 C     3.83174   -2.55678    0.03815
  4 C     1.10173    1.75756   -0.44845
  5 C    -4.21013   -0.14134   -1.30137
  6 C    -1.27970   -0.36528    0.45430
  7 C    -3.27425    0.78055   -2.35585
  8 C     0.93427   -0.39752    0.32461
  9 C    -1.34335    0.51582    0.05735
 10 C     0.53414    1.32069    0.13274
 11 C    -0.43998   -1.39983    0.31676
 12 C     2.34510    0.51279    2.81382
 13 C     6.35469   -0.59595    0.84813
 14 C     0.02034   -2.05641    0.96577
 15 C     0.27027    4.67898    6.73928
 16 C    -2.71613    3.31701   -0.04790
 17 C     1.42939    1.46306    1.62682
 18 C     2.72756    1.58066   -1.15837
 19 C    -3.56160   -1.36850    0.47401
 20 C    -0.60824    0.62565   -0.28622
 21 C    -1.34966   -0.72677   -0.21639
 22 C    -1.03232   -2.66169   -0.39159
 23 C    -0.48580    1.65478    0.11337

System changes: positions 

Initializing position-dependent things.

Density initialized from wave functions
           .--------------------------------------.  
          /|                                      |  
         / |                                      |  
        /  |                                      |  
       /   |                                      |  
      /    |                                      |  
     /     |                                      |  
    /      |                                      |  
   /       |             C                        |  
  /        |               C                      |  
 *         |C  C     C  C     C                   |  
 |         |      C  C  C   C                     |  
 |         .---C--C--C-C-----C--------------------.  
 |        /   C     C  C  C                      /   
 |       /   C   C                              /    
 |      /                                      /     
 |     /                                      /      
 |    /                                      /       
 |   /                                      /        
 |  /                                      /         
 | /                                      /          
 |/                                      /           
 *--------------------------------------*            

Positions:
   0 C      6.578583    6.840614    4.503777
   1 C      5.861791    9.097882    4.656760
   2 C      7.008792    8.307760    4.419436
   3 C      4.199035    3.140141    5.347060
   4 C      4.190488    4.501516    5.229306
   5 C      5.127042    6.876054    4.864339
   6 C      4.419280    5.731038    5.088188
   7 C      4.680029    8.302732    4.883317
   8 C      3.408554    8.731847    5.080955
   9 C      2.253867    9.249770    5.179608
  10 C      7.479584    9.867626    6.159127
  11 C      9.739154    8.367993    6.055953
  12 C      7.557512    7.527744    5.886846
  13 C      9.423628    6.019136    5.725149
  14 C      8.028252    6.174388    5.760083
  15 C      6.146550    7.497550    5.696023
  16 C     10.246005    7.198455    5.931484
  17 C      8.345513    8.742077    6.042694
  18 C      6.937255    5.284493    5.504028
  19 C      5.577130    3.404056    5.253913
  20 C      6.950618    3.836772    5.383265
  21 C      8.292497    3.316723    5.457807
  22 C     10.250710    4.875243    5.689055
  23 C      9.492343    3.729848    5.581951

Unit cell:
           periodic     x           y           z      points  spacing
  1. axis:    yes   16.000000    0.000000    0.000000    80     0.2000
  2. axis:    yes    0.000000   16.000000    0.000000    80     0.2000
  3. axis:    yes    0.000000    0.000000   10.000000    48     0.2083

Effective grid spacing dv^(1/3) = 0.2027

                     log10-error:    total        iterations:
           time      wfs    density  energy       fermi  poisson
iter:   1  11:54:03          +inf  -165.367792    2      5      
iter:   2  11:54:04         -1.68  -165.166343    3      2      
iter:   3  11:54:04         -1.99  -165.143250    3      2      
iter:   4  11:54:05         -2.10  -165.120216    3      2      
iter:   5  11:54:05         -2.29  -165.113452    3      2      
iter:   6  11:54:06         -2.47  -165.110459    3      2      
iter:   7  11:54:07         -2.61  -165.111213    2      2      
iter:   8  11:54:07         -2.75  -165.111029    2      2      
iter:   9  11:54:08         -2.99  -165.110676    2      2      
iter:  10  11:54:09         -3.15  -165.112284    2      1      
iter:  11  11:54:09         -3.30  -165.112842    2      1      
iter:  12  11:54:10         -3.48  -165.111718    2      1      
iter:  13  11:54:11         -3.70  -165.111168    2      1      
iter:  14  11:54:11         -3.80  -165.111029    2      1      
iter:  15  11:54:12         -3.93  -165.110997    2      1      
iter:  16  11:54:12         -4.04  -165.110909    2      1      

Converged after 16 iterations.

Dipole moment: (1.089207, -0.909925, -0.075756) |e|*Ang

Energy contributions relative to reference atoms: (reference = -24663.074771)

Kinetic:       +147.698928
Potential:     -137.510053
External:        +0.000000
XC:            -178.062471
Entropy (-ST):   -0.261625
Local:           +2.893500
--------------------------
Free energy:   -165.241721
Extrapolated:  -165.110909

Fermi level: -4.66907

 Band  Eigenvalues  Occupancy
    0    -28.40967    2.00000
    1    -23.78361    2.00000
    2    -22.80070    2.00000
    3    -22.03914    2.00000
    4    -21.67526    2.00000
    5    -21.12012    2.00000
    6    -20.28912    2.00000
    7    -19.92319    2.00000
    8    -19.28546    2.00000
    9    -18.49445    2.00000
   10    -17.98938    2.00000
   11    -17.66861    2.00000
   12    -17.07302    2.00000
   13    -16.43775    2.00000
   14    -15.97510    2.00000
   15    -15.55268    2.00000
   16    -15.19042    2.00000
   17    -14.86634    2.00000
   18    -14.05614    2.00000
   19    -13.85162    2.00000
   20    -13.30194    2.00000
   21    -13.01279    2.00000
   22    -12.51000    2.00000
   23    -12.40031    2.00000
   24    -12.09686    2.00000
   25    -11.33154    2.00000
   26    -10.77733    2.00000
   27    -10.66399    2.00000
   28    -10.29284    2.00000
   29     -9.81400    2.00000
   30     -9.58346    2.00000
   31     -9.39450    2.00000
   32     -9.24610    2.00000
   33     -9.03424    2.00000
   34     -8.38468    2.00000
   35     -8.00086    2.00000
   36     -7.66851    2.00000
   37     -7.34765    2.00000
   38     -7.29833    2.00000
   39     -6.72075    2.00000
   40     -6.33617    2.00000
   41     -6.09527    2.00000
   42     -5.80189    1.99998
   43     -5.50467    1.99953
   44     -5.32431    1.99715
   45     -5.05634    1.95924
   46     -4.99921    1.92895
   47     -4.82634    1.65634
   48     -4.54269    0.44064
   49     -4.18247    0.01529
   50     -4.01178    0.00279
   51     -3.65332    0.00008
   52     -3.41028    0.00001
   53     -3.37585    0.00000
   54     -2.94685    0.00000
   55     -2.87427    0.00000
   56     -2.16199    0.00000
   57     -2.00049    0.00000
   58     -1.47394    0.00000
   59     -0.74525    0.00000
   60     -0.41136    0.00000
   61      0.22529    0.00000
   62      0.52703    0.00000
   63      0.67320    0.00000
   64      1.12403    0.00000
   65      1.94319    0.00000
   66      2.32876    0.00000
   67      2.78075    0.00000
   68      3.04094    0.00000
   69      3.25882    0.00000
   70      3.74729    0.00000
   71      3.83184    0.00000
   72      4.36530    0.00000
   73      4.87406    0.00000
   74      5.30320    0.00000
   75      5.57376    0.00000
   76      5.82156    0.00000
   77      6.16330    0.00000
   78      6.44777    0.00000
   79      6.80985    0.00000
   80      7.01263    0.00000
   81      7.29222    0.00000
   82      7.34954    0.00000
   83      7.55319    0.00000
   84      7.93022    0.00000
   85      8.20899    0.00000
   86      8.53702    0.00000
   87      8.54431    0.00000
   88      8.76615    0.00000
   89      8.82272    0.00000
   90      9.05421    0.00000
   91      9.16284    0.00000
   92      9.19211    0.00000
   93      9.23696    0.00000
   94      9.37165    0.00000
   95      9.45700    0.00000
   96      9.72907    0.00000
   97      9.87567    0.00000


Forces in eV/Ang:
  0 C    -2.14557   -4.90833   -5.59851
  1 C     1.80505    0.66429    2.29758
  2 C     0.04100   -1.83510   -2.89496
  3 C     3.01425   -2.29671    0.04310
  4 C     0.94010    1.48510   -0.40754
  5 C    -3.34793   -0.00958   -1.09550
  6 C    -1.30046   -0.44728    0.48527
  7 C    -2.54324    0.81080   -2.20045
  8 C     0.99782   -0.40193    0.24304
  9 C    -1.59462    0.62102    0.08026
 10 C     0.58290    1.26575    0.14193
 11 C    -0.63545   -0.35539    0.36938
 12 C     2.00230    0.41601    2.09499
 13 C     5.11940   -0.39115    0.90925
 14 C     0.88505   -1.37346    1.09820
 15 C     0.70281    4.08538    4.66737
 16 C    -2.04342    2.28425   -0.09754
 17 C     0.99823    1.39575    1.63908
 18 C     2.40265    1.43438   -1.55778
 19 C    -2.25848   -1.04002    0.50771
 20 C    -0.63825    0.45138   -0.31095
 21 C    -1.50053   -0.74579   -0.24277
 22 C    -0.66469   -2.62010   -0.33298
 23 C    -0.75897    1.47860    0.05120

System changes: positions 

Initializing position-dependent things.

Density initialized from wave functions
           .--------------------------------------.  
          /|                                      |  
         / |                                      |  
        /  |                                      |  
       /   |                                      |  
      /    |                                      |  
     /     |                                      |  
    /      |                                      |  
   /       |             C                        |  
  /        |               C  C                   |  
 *         |C  C     C  C     C                   |  
 |         |      C  C  C   C                     |  
 |         .---C--C--C-C-----C--------------------.  
 |        /   C     C  C  C                      /   
 |       /   C   C                              /    
 |      /                                      /     
 |     /                                      /      
 |    /                                      /       
 |   /                                      /        
 |  /                                      /         
 | /                                      /          
 |/                                      /           
 *--------------------------------------*            

Positions:
   0 C      6.552765    6.816947    4.484456
   1 C      5.874287    9.098565    4.674764
   2 C      7.007889    8.289726    4.401785
   3 C      4.217050    3.127825    5.346925
   4 C      4.195469    4.504201    5.227278
   5 C      5.115186    6.880573    4.859440
   6 C      4.409385    5.729500    5.091530
   7 C      4.668008    8.307693    4.867594
   8 C      3.408777    8.731946    5.083163
   9 C      2.245316    9.252822    5.179868
  10 C      7.484197    9.876626    6.160166
  11 C      9.732789    8.372381    6.059045
  12 C      7.569795    7.530053    5.897355
  13 C      9.451725    6.018193    5.732303
  14 C      8.043227    6.168311    5.768850
  15 C      6.153818    7.518368    5.705551
  16 C     10.235006    7.208756    5.930256
  17 C      8.350439    8.751797    6.054725
  18 C      6.952540    5.293381    5.490001
  19 C      5.567984    3.398420    5.258151
  20 C      6.945181    3.839067    5.380789
  21 C      8.282053    3.311517    5.455974
  22 C     10.248023    4.855112    5.686935
  23 C      9.484028    3.739486    5.581784

Unit cell:
           periodic     x           y           z      points  spacing
  1. axis:    yes   16.000000    0.000000    0.000000    80     0.2000
  2. axis:    yes    0.000000   16.000000    0.000000    80     0.2000
  3. axis:    yes    0.000000    0.000000   10.000000    48     0.2083

Effective grid spacing dv^(1/3) = 0.2027

                     log10-error:    total        iterations:
           time      wfs    density  energy       fermi  poisson
iter:   1  11:54:14          +inf  -166.499353    2      5      
iter:   2  11:54:15         -1.87  -166.424771    3      2      
iter:   3  11:54:16         -2.09  -166.409596    2      2      
iter:   4  11:54:16         -2.18  -166.392971    3      2      
iter:   5  11:54:17         -2.40  -166.390563    3      2      
iter:   6  11:54:18         -2.58  -166.389958    3      2      
iter:   7  11:54:18         -2.71  -166.388949    2      2      
iter:   8  11:54:19         -2.92  -166.388797    2      2      
iter:   9  11:54:20         -3.12  -166.389953    2      1      
iter:  10  11:54:20         -3.31  -166.389752    2      1      
iter:  11  11:54:21         -3.40  -166.390987    2      1      
iter:  12  11:54:21         -3.63  -166.389565    2      1      
iter:  13  11:54:22         -3.77  -166.389012    2      1      
iter:  14  11:54:23         -3.85  -166.388973    2      1      
iter:  15  11:54:23         -3.91  -166.388926    2      1      
iter:  16  11:54:24         -4.08  -166.388716    2      1      

Converged after 16 iterations.

Dipole moment: (1.104843, -0.918577, -0.085341) |e|*Ang

Energy contributions relative to reference atoms: (reference = -24663.074771)

Kinetic:       +143.631965
Potential:     -135.304380
External:        +0.000000
XC:            -177.491766
Entropy (-ST):   -0.226184
Local:           +2.888556
--------------------------
Free energy:   -166.501809
Extrapolated:  -166.388716

Fermi level: -4.66337

 Band  Eigenvalues  Occupancy
    0    -27.99162    2.00000
    1    -23.60203    2.00000
    2    -22.78381    2.00000
    3    -21.98289    2.00000
    4    -21.59024    2.00000
    5    -21.07517    2.00000
    6    -20.27248    2.00000
    7    -19.87838    2.00000
    8    -19.27566    2.00000
    9    -18.46694    2.00000
   10    -17.95037    2.00000
   11    -17.62122    2.00000
   12    -17.04716    2.00000
   13    -16.39323    2.00000
   14    -15.94696    2.00000
   15    -15.50299    2.00000
   16    -15.12793    2.00000
   17    -14.79254    2.00000
   18    -13.95196    2.00000
   19    -13.83016    2.00000
   20    -13.26711    2.00000
   21    -13.00209    2.00000
   22    -12.41391    2.00000
   23    -12.29638    2.00000
   24    -12.02996    2.00000
   25    -11.33797    2.00000
   26    -10.83909    2.00000
   27    -10.69010    2.00000
   28    -10.23344    2.00000
   29     -9.81419    2.00000
   30     -9.59610    2.00000
   31     -9.41069    2.00000
   32     -9.25226    2.00000
   33     -9.06091    2.00000
   34     -8.35502    2.00000
   35     -8.01454    2.00000
   36     -7.67552    2.00000
   37     -7.36753    2.00000
   38     -7.33323    2.00000
   39     -6.72418    2.00000
   40     -6.40166    2.00000
   41     -6.14866    2.00000
   42     -5.82989    1.99998
   43     -5.51493    1.99960
   44     -5.29467    1.99638
   45     -5.08426    1.97071
   46     -5.01904    1.94452
   47     -4.84622    1.72318
   48     -4.50855    0.35069
   49     -4.16615    0.01376
   50     -3.91655    0.00114
   51     -3.52725    0.00002
   52     -3.35930    0.00000
   53     -3.34073    0.00000
   54     -2.90298    0.00000
   55     -2.80214    0.00000
   56     -2.21296    0.00000
   57     -1.93280    0.00000
   58     -1.32410    0.00000
   59     -0.68757    0.00000
   60     -0.40191    0.00000
   61      0.19634    0.00000
   62      0.57858    0.00000
   63      0.65500    0.00000
   64      1.07641    0.00000
   65      1.86959    0.00000
   66      2.36701    0.00000
   67      2.84600    0.00000
   68      3.11937    0.00000
   69      3.19942    0.00000
   70      3.74534    0.00000
   71      3.88837    0.00000
   72      4.35602    0.00000
   73      4.87555    0.00000
   74      5.35049    0.00000
   75      5.59826    0.00000
   76      5.81098    0.00000
   77      6.14873    0.00000
   78      6.42485    0.00000
   79      6.75959    0.00000
   80      7.06947    0.00000
   81      7.36449    0.00000
   82      7.41755    0.00000
   83      7.61782    0.00000
   84      7.95988    0.00000
   85      8.20289    0.00000
   86      8.48644    0.00000
   87      8.54294    0.00000
   88      8.74723    0.00000
   89      8.80519    0.00000
   90      9.05999    0.00000
   91      9.16122    0.00000
   92      9.20789    0.00000
   93      9.22291    0.00000
   94      9.34699    0.00000
   95      9.50462    0.00000
   96      9.72241    0.00000
   97      9.84832    0.00000


Forces in eV/Ang:
  0 C    -2.56965   -4.30850   -4.27616
  1 C     1.80685    0.25824    2.39501
  2 C    -0.06497   -2.45594   -2.34225
  3 C     2.32859   -1.86425    0.02780
  4 C     0.73529    0.64390   -0.30730
  5 C    -2.71807    0.00573   -0.92782
  6 C    -1.18661   -0.01504    0.48012
  7 C    -1.90687    0.69753   -2.06045
  8 C     0.14756    0.00193    0.25043
  9 C    -1.10781    0.39630    0.04876
 10 C     0.55028    1.24447    0.15676
 11 C    -0.49422   -0.08370    0.35684
 12 C     1.77583    0.48120    1.44597
 13 C     4.21399   -0.34099    0.97909
 14 C     1.15281   -0.99379    1.15601
 15 C     0.81762    3.67909    3.25890
 16 C    -1.60204    1.99785   -0.08512
 17 C     0.66451    1.35775    1.64547
 18 C     2.26000    1.55491   -1.93641
 19 C    -1.43259   -0.81317    0.48756
 20 C    -0.41092    0.37480   -0.31002
 21 C    -1.55600   -0.75326   -0.26202
 22 C    -0.30347   -2.36355   -0.27758
 23 C    -1.08165    1.23320    0.00535

System changes: positions 

Initializing position-dependent things.

Density initialized from wave functions
           .--------------------------------------.  
          /|                                      |  
         / |                                      |  
        /  |                                      |  
       /   |                                      |  
      /    |                                      |  
     /     |                                      |  
    /      |                                      |  
   /       |             C                        |  
  /        |               C  C                   |  
 *         |C  C     C  C     C                   |  
 |         |      C  C  C   C                     |  
 |         .---C--C--C-C-----C--------------------.  
 |        /   C     C  C  C                      /   
 |       /   C   C                              /    
 |      /                                      /     
 |     /                                      /      
 |    /                                      /       
 |   /                                      /        
 |  /                                      /         
 | /                                      /          
 |/                                      /           
 *--------------------------------------*            

Positions:
   0 C      6.525597    6.792622    4.468018
   1 C      5.887884    9.096986    4.694277
   2 C      7.006365    8.266370    4.387216
   3 C      4.230926    3.117333    5.346811
   4 C      4.199454    4.501803    5.225764
   5 C      5.103579    6.883521    4.854621
   6 C      4.400283    5.731689    5.095087
   7 C      4.658905    8.312154    4.852220
   8 C      3.403096    8.734988    5.085421
   9 C      2.240135    9.254293    5.179945
  10 C      7.488569    9.886049    6.161416
  11 C      9.728332    8.376531    6.061999
  12 C      7.581538    7.533522    5.903976
  13 C      9.476366    6.016836    5.740364
  14 C      8.057955    6.163933    5.778367
  15 C      6.161650    7.540184    5.712059
  16 C     10.226081    7.219734    5.929322
  17 C      8.353317    8.761908    6.067492
  18 C      6.968296    5.304771    5.472465
  19 C      5.563365    3.393882    5.262188
  20 C      6.942146    3.841181    5.378274
  21 C      8.270257    3.305836    5.453867
  22 C     10.247907    4.836903    5.685118
  23 C      9.473129    3.747672    5.581378

Unit cell:
           periodic     x           y           z      points  spacing
  1. axis:    yes   16.000000    0.000000    0.000000    80     0.2000
  2. axis:    yes    0.000000   16.000000    0.000000    80     0.2000
  3. axis:    yes    0.000000    0.000000   10.000000    48     0.2083

Effective grid spacing dv^(1/3) = 0.2027

                     log10-error:    total        iterations:
           time      wfs    density  energy       fermi  poisson
iter:   1  11:54:26          +inf  -167.544743    2      5      
iter:   2  11:54:27         -2.02  -167.516901    3      2      
iter:   3  11:54:27         -2.16  -167.505552    2      2      
iter:   4  11:54:28         -2.27  -167.496236    3      2      
iter:   5  11:54:29         -2.51  -167.493454    3      2      
iter:   6  11:54:29         -2.69  -167.493565    2      2      
iter:   7  11:54:30         -2.82  -167.493873    2      2      
iter:   8  11:54:30         -3.17  -167.494166    2      1      
iter:   9  11:54:31         -3.24  -167.495336    2      1      
iter:  10  11:54:32         -3.44  -167.493949    2      1      
iter:  11  11:54:32         -3.51  -167.494181    2      1      
iter:  12  11:54:33         -3.77  -167.493985    2      1      
iter:  13  11:54:33         -3.95  -167.493371    2      1      
iter:  14  11:54:34         -4.01  -167.493334    2      1      

Converged after 14 iterations.

Dipole moment: (1.103222, -0.928193, -0.097402) |e|*Ang

Energy contributions relative to reference atoms: (reference = -24663.074771)

Kinetic:       +140.097655
Potential:     -133.337512
External:        +0.000000
XC:            -177.044364
Entropy (-ST):   -0.190728
Local:           +2.886251
--------------------------
Free energy:   -167.588698
Extrapolated:  -167.493334

Fermi level: -4.65991

 Band  Eigenvalues  Occupancy
    0    -27.67725    2.00000
    1    -23.47427    2.00000
    2    -22.79375    2.00000
    3    -21.95474    2.00000
    4    -21.51836    2.00000
    5    -21.04615    2.00000
    6    -20.26513    2.00000
    7    -19.84020    2.00000
    8    -19.26409    2.00000
    9    -18.42552    2.00000
   10    -17.91950    2.00000
   11    -17.59029    2.00000
   12    -17.05162    2.00000
   13    -16.38587    2.00000
   14    -15.91281    2.00000
   15    -15.46475    2.00000
   16    -15.09551    2.00000
   17    -14.73794    2.00000
   18    -13.88030    2.00000
   19    -13.81091    2.00000
   20    -13.25691    2.00000
   21    -12.97521    2.00000
   22    -12.34105    2.00000
   23    -12.18290    2.00000
   24    -11.98557    2.00000
   25    -11.37124    2.00000
   26    -10.89945    2.00000
   27    -10.68830    2.00000
   28    -10.20676    2.00000
   29     -9.82079    2.00000
   30     -9.60807    2.00000
   31     -9.45359    2.00000
   32     -9.26730    2.00000
   33     -9.06916    2.00000
   34     -8.33159    2.00000
   35     -8.01992    2.00000
   36     -7.68020    2.00000
   37     -7.39007    2.00000
   38     -7.37016    2.00000
   39     -6.73454    2.00000
   40     -6.46487    2.00000
   41     -6.20984    2.00000
   42     -5.84696    1.99999
   43     -5.55034    1.99973
   44     -5.27088    1.99557
   45     -5.12291    1.98068
   46     -5.03477    1.95398
   47     -4.87354    1.78876
   48     -4.47325    0.26787
   49     -4.15630    0.01291
   50     -3.83053    0.00050
   51     -3.43305    0.00001
   52     -3.33805    0.00000
   53     -3.28990    0.00000
   54     -2.87496    0.00000
   55     -2.72885    0.00000
   56     -2.27907    0.00000
   57     -1.82926    0.00000
   58     -1.13746    0.00000
   59     -0.62374    0.00000
   60     -0.40525    0.00000
   61      0.18696    0.00000
   62      0.61072    0.00000
   63      0.66049    0.00000
   64      1.06389    0.00000
   65      1.77528    0.00000
   66      2.39993    0.00000
   67      2.88789    0.00000
   68      3.11671    0.00000
   69      3.21832    0.00000
   70      3.70866    0.00000
   71      3.93369    0.00000
   72      4.33080    0.00000
   73      4.86327    0.00000
   74      5.33638    0.00000
   75      5.56191    0.00000
   76      5.84042    0.00000
   77      6.14659    0.00000
   78      6.38379    0.00000
   79      6.73138    0.00000
   80      7.11110    0.00000
   81      7.36763    0.00000
   82      7.50235    0.00000
   83      7.65819    0.00000
   84      7.98011    0.00000
   85      8.18658    0.00000
   86      8.42846    0.00000
   87      8.53720    0.00000
   88      8.71821    0.00000
   89      8.78155    0.00000
   90      9.05888    0.00000
   91      9.14704    0.00000
   92      9.18093    0.00000
   93      9.21413    0.00000
   94      9.33495    0.00000
   95      9.53639    0.00000
   96      9.70923    0.00000
   97      9.81378    0.00000


Forces in eV/Ang:
  0 C    -2.69881   -3.76742   -3.18830
  1 C     1.75823   -0.09405    2.42582
  2 C    -0.14439   -2.97596   -1.84754
  3 C     1.73420   -1.68044    0.05394
  4 C     0.69562    0.66282   -0.29181
  5 C    -2.25247    0.05241   -0.84972
  6 C    -1.30913   -0.33093    0.57440
  7 C    -1.69347    0.76260   -1.82411
  8 C     0.36218   -0.03499    0.14522
  9 C    -1.25947    0.45078    0.07473
 10 C     0.52479    1.21936    0.14317
 11 C    -0.48277    0.28262    0.37209
 12 C     1.59095    0.54682    0.90710
 13 C     3.49372   -0.29726    1.03436
 14 C     1.33831   -0.65913    1.15400
 15 C     0.84021    3.33647    2.17361
 16 C    -1.15662    1.55869   -0.10213
 17 C     0.46414    1.34015    1.66316
 18 C     2.05795    1.59580   -2.24189
 19 C    -0.76703   -0.58034    0.46459
 20 C    -0.29145    0.41549   -0.30941
 21 C    -1.54908   -0.78658   -0.28540
 22 C    -0.06207   -2.03306   -0.25620
 23 C    -1.25082    1.01784    0.00213

System changes: positions 

Initializing position-dependent things.

Density initialized from wave functions
           .--------------------------------------.  
          /|                                      |  
         / |                                      |  
        /  |                                      |  
       /   |                                      |  
      /    |                                      |  
     /     |                                      |  
    /      |                                      |  
   /       |             C                        |  
  /        |               C  C                   |  
 *         |C  C     C  C     C                   |  
 |         |      C  C   C  C                     |  
 |         .---C--C--C-C-----C--------------------.  
 |        /   C     C  C  C                      /   
 |       /   C   C                              /    
 |      /                                      /     
 |     /                                      /      
 |    /                                      /       
 |   /                                      /        
 |  /                                      /         
 | /                                      /          
 |/                                      /           
 *--------------------------------------*            

Positions:
   0 C      6.497381    6.767724    4.454456
   1 C      5.902680    9.093152    4.715686
   2 C      7.004230    8.237288    4.374668
   3 C      4.242229    3.106160    5.347069
   4 C      4.204220    4.502279    5.223917
   5 C      5.092061    6.886424    4.849192
   6 C      4.388745    5.729668    5.100085
   7 C      4.648332    8.318100    4.837472
   8 C      3.401580    8.736843    5.086746
   9 C      2.231800    9.256970    5.180393
  10 C      7.493034    9.896305    6.162604
  11 C      9.723844    8.382417    6.065324
  12 C      7.593553    7.538236    5.907831
  13 C      9.499806    6.015196    5.749621
  14 C      8.073469    6.160814    5.788465
  15 C      6.169466    7.563126    5.715510
  16 C     10.219132    7.229629    5.928222
  17 C      8.355664    8.773087    6.081746
  18 C      6.984375    5.318052    5.451155
  19 C      5.561714    3.390440    5.266287
  20 C      6.939959    3.844484    5.375569
  21 C      8.257535    3.299187    5.451351
  22 C     10.249149    4.820272    5.683144
  23 C      9.460458    3.755043    5.581131

Unit cell:
           periodic     x           y           z      points  spacing
  1. axis:    yes   16.000000    0.000000    0.000000    80     0.2000
  2. axis:    yes    0.000000   16.000000    0.000000    80     0.2000
  3. axis:    yes    0.000000    0.000000   10.000000    48     0.2083

Effective grid spacing dv^(1/3) = 0.2027

                     log10-error:    total        iterations:
           time      wfs    density  energy       fermi  poisson
iter:   1  11:54:36          +inf  -168.580901    3      5      
iter:   2  11:54:37         -2.12  -168.568297    2      2      
iter:   3  11:54:37         -2.20  -168.554579    2      2      
iter:   4  11:54:38         -2.35  -168.546836    2      2      
iter:   5  11:54:39         -2.58  -168.546029    2      2      
iter:   6  11:54:39         -2.77  -168.546373    2      2      
iter:   7  11:54:40         -2.96  -168.545691    2      2      
iter:   8  11:54:41         -3.21  -168.546136    2      1      
iter:   9  11:54:41         -3.30  -168.547012    2      1      
iter:  10  11:54:42         -3.53  -168.545849    2      1      
iter:  11  11:54:42         -3.60  -168.546427    2      1      
iter:  12  11:54:43         -3.80  -168.545985    2      1      
iter:  13  11:54:44         -3.95  -168.545699    2      1      
iter:  14  11:54:44         -4.08  -168.545534    2      1      

Converged after 14 iterations.

Dipole moment: (1.083530, -0.931457, -0.111317) |e|*Ang

Energy contributions relative to reference atoms: (reference = -24663.074771)

Kinetic:       +136.605614
Potential:     -131.369470
External:        +0.000000
XC:            -176.590899
Entropy (-ST):   -0.151269
Local:           +2.884855
--------------------------
Free energy:   -168.621169
Extrapolated:  -168.545534

Fermi level: -4.65579

 Band  Eigenvalues  Occupancy
    0    -27.42850    2.00000
    1    -23.36799    2.00000
    2    -22.78985    2.00000
    3    -21.92016    2.00000
    4    -21.45537    2.00000
    5    -21.01690    2.00000
    6    -20.25530    2.00000
    7    -19.81007    2.00000
    8    -19.26046    2.00000
    9    -18.39736    2.00000
   10    -17.89964    2.00000
   11    -17.55858    2.00000
   12    -17.05227    2.00000
   13    -16.38179    2.00000
   14    -15.86477    2.00000
   15    -15.42345    2.00000
   16    -15.08403    2.00000
   17    -14.68755    2.00000
   18    -13.85606    2.00000
   19    -13.74946    2.00000
   20    -13.25306    2.00000
   21    -12.95211    2.00000
   22    -12.27183    2.00000
   23    -12.06314    2.00000
   24    -11.93992    2.00000
   25    -11.39140    2.00000
   26    -10.93239    2.00000
   27    -10.67605    2.00000
   28    -10.20232    2.00000
   29     -9.82553    2.00000
   30     -9.62060    2.00000
   31     -9.50408    2.00000
   32     -9.28863    2.00000
   33     -9.06573    2.00000
   34     -8.31037    2.00000
   35     -8.01509    2.00000
   36     -7.68094    2.00000
   37     -7.41504    2.00000
   38     -7.40300    2.00000
   39     -6.75484    2.00000
   40     -6.52013    2.00000
   41     -6.28135    2.00000
   42     -5.87146    1.99999
   43     -5.57919    1.99980
   44     -5.24587    1.99454
   45     -5.17760    1.98922
   46     -5.06874    1.96833
   47     -4.90445    1.84640
   48     -4.43032    0.18989
   49     -4.14121    0.01158
   50     -3.74936    0.00023
   51     -3.39164    0.00001
   52     -3.31893    0.00000
   53     -3.20655    0.00000
   54     -2.84981    0.00000
   55     -2.64998    0.00000
   56     -2.32693    0.00000
   57     -1.69057    0.00000
   58     -0.90888    0.00000
   59     -0.57986    0.00000
   60     -0.39321    0.00000
   61      0.19641    0.00000
   62      0.63669    0.00000
   63      0.65026    0.00000
   64      1.06176    0.00000
   65      1.68062    0.00000
   66      2.43313    0.00000
   67      2.87996    0.00000
   68      3.09061    0.00000
   69      3.26336    0.00000
   70      3.67096    0.00000
   71      3.95966    0.00000
   72      4.29263    0.00000
   73      4.85281    0.00000
   74      5.28512    0.00000
   75      5.51514    0.00000
   76      5.88086    0.00000
   77      6.14364    0.00000
   78      6.30893    0.00000
   79      6.72694    0.00000
   80      7.13957    0.00000
   81      7.35680    0.00000
   82      7.56510    0.00000
   83      7.69482    0.00000
   84      7.98642    0.00000
   85      8.16144    0.00000
   86      8.37341    0.00000
   87      8.53777    0.00000
   88      8.67891    0.00000
   89      8.76678    0.00000
   90      9.04522    0.00000
   91      9.11091    0.00000
   92      9.13959    0.00000
   93      9.21539    0.00000
   94      9.32971    0.00000
   95      9.54755    0.00000
   96      9.70128    0.00000
   97      9.78799    0.00000


Forces in eV/Ang:
  0 C    -2.56341   -3.29505   -2.27887
  1 C     1.77487   -0.44044    2.44914
  2 C    -0.22686   -3.34699   -1.35635
  3 C     1.34767   -1.35154    0.06824
  4 C     0.56286   -0.02457   -0.20746
  5 C    -2.05958   -0.08475   -0.73181
  6 C    -1.19876    0.17342    0.53048
  7 C    -1.18970    0.69211   -1.66733
  8 C    -0.16737    0.22914    0.14078
  9 C    -0.96869    0.30798    0.06635
 10 C     0.47277    1.19883    0.09631
 11 C    -0.38365    0.44432    0.37747
 12 C     1.36946    0.55431    0.37713
 13 C     2.88860   -0.29861    1.05444
 14 C     1.34996   -0.37475    1.07510
 15 C     0.84662    2.97424    1.34978
 16 C    -0.79443    1.30780   -0.08123
 17 C     0.30917    1.31627    1.62752
 18 C     1.85419    1.58763   -2.46890
 19 C    -0.38183   -0.41075    0.43661
 20 C    -0.15858    0.50992   -0.30472
 21 C    -1.49231   -0.77312   -0.28691
 22 C     0.12689   -1.77623   -0.26663
 23 C    -1.37288    0.85746    0.00965

System changes: positions 

Initializing position-dependent things.

Density initialized from wave functions
           .--------------------------------------.  
          /|                                      |  
         / |                                      |  
        /  |                                      |  
       /   |                                      |  
      /    |                                      |  
     /     |                                      |  
    /      |                                      |  
   /       |             C                        |  
  /        |               C  C                   |  
 *         |C  C     C  C     C                   |  
 |         |      C  C   C  C                     |  
 |         .---C--C--C-C-----C--------------------.  
 |        /   C     C  C  C                      /   
 |       /   C   C                              /    
 |      /                                      /     
 |     /                                      /      
 |    /                                      /       
 |   /                                      /        
 |  /                                      /         
 | /                                      /          
 |/                                      /           
 *--------------------------------------*            

Positions:
   0 C      6.470184    6.741164    4.442010
   1 C      5.919764    9.086687    4.739660
   2 C      7.001369    8.202801    4.364026
   3 C      4.253275    3.095545    5.347623
   4 C      4.208831    4.497770    5.222444
   5 C      5.077080    6.887066    4.843464
   6 C      4.377046    5.732687    5.105116
   7 C      4.639690    8.324307    4.822070
   8 C      3.396369    8.740733    5.088219
   9 C      2.224432    9.258973    5.180898
  10 C      7.497481    9.907755    6.163348
  11 C      9.719955    8.388741    6.069085
  12 C      7.605559    7.543539    5.908690
  13 C      9.523483    6.012816    5.759996
  14 C      8.088752    6.158804    5.798630
  15 C      6.177712    7.587580    5.718339
  16 C     10.213474    7.240040    5.927323
  17 C      8.357848    8.785609    6.097353
  18 C      7.001001    5.332890    5.426033
  19 C      5.560547    3.387478    5.270552
  20 C      6.938582    3.849681    5.372605
  21 C      8.243885    3.291860    5.448575
  22 C     10.251351    4.803823    5.680575
  23 C      9.446114    3.762441    5.581154

Unit cell:
           periodic     x           y           z      points  spacing
  1. axis:    yes   16.000000    0.000000    0.000000    80     0.2000
  2. axis:    yes    0.000000   16.000000    0.000000    80     0.2000
  3. axis:    yes    0.000000    0.000000   10.000000    48     0.2083

Effective grid spacing dv^(1/3) = 0.2027

                     log10-error:    total        iterations:
           time      wfs    density  energy       fermi  poisson
iter:   1  11:54:46          +inf  -169.594110    3      5      
iter:   2  11:54:47         -2.15  -169.583252    2      2      
iter:   3  11:54:48         -2.22  -169.566071    2      2      
iter:   4  11:54:48         -2.46  -169.562367    2      2      
iter:   5  11:54:49         -2.64  -169.561484    2      2      
iter:   6  11:54:50         -2.87  -169.561585    2      2      
iter:   7  11:54:50         -3.03  -169.561481    2      2      
iter:   8  11:54:51         -3.30  -169.562171    2      1      
iter:   9  11:54:51         -3.40  -169.562257    2      1      
iter:  10  11:54:52         -3.52  -169.561868    2      1      
iter:  11  11:54:53         -3.82  -169.561452    1      1      
iter:  12  11:54:53         -3.91  -169.561296    2      1      
iter:  13  11:54:54         -4.02  -169.561360    2      1      

Converged after 13 iterations.

Dipole moment: (1.055272, -0.937563, -0.125070) |e|*Ang

Energy contributions relative to reference atoms: (reference = -24663.074771)

Kinetic:       +132.722789
Potential:     -129.024984
External:        +0.000000
XC:            -176.085476
Entropy (-ST):   -0.118484
Local:           +2.885553
--------------------------
Free energy:   -169.620602
Extrapolated:  -169.561360

Fermi level: -4.65123

 Band  Eigenvalues  Occupancy
    0    -27.21357    2.00000
    1    -23.27328    2.00000
    2    -22.81613    2.00000
    3    -21.90210    2.00000
    4    -21.39996    2.00000
    5    -20.99319    2.00000
    6    -20.25371    2.00000
    7    -19.77795    2.00000
    8    -19.24601    2.00000
    9    -18.34989    2.00000
   10    -17.87335    2.00000
   11    -17.53301    2.00000
   12    -17.06333    2.00000
   13    -16.38384    2.00000
   14    -15.81332    2.00000
   15    -15.39382    2.00000
   16    -15.08695    2.00000
   17    -14.64200    2.00000
   18    -13.85797    2.00000
   19    -13.66322    2.00000
   20    -13.25030    2.00000
   21    -12.91951    2.00000
   22    -12.21014    2.00000
   23    -11.97738    2.00000
   24    -11.85544    2.00000
   25    -11.42513    2.00000
   26    -10.95356    2.00000
   27    -10.67036    2.00000
   28    -10.22039    2.00000
   29     -9.83915    2.00000
   30     -9.64189    2.00000
   31     -9.55633    2.00000
   32     -9.31442    2.00000
   33     -9.06042    2.00000
   34     -8.28987    2.00000
   35     -8.00732    2.00000
   36     -7.68062    2.00000
   37     -7.43632    2.00000
   38     -7.43469    2.00000
   39     -6.77888    2.00000
   40     -6.57717    2.00000
   41     -6.34139    2.00000
   42     -5.88610    1.99999
   43     -5.61854    1.99987
   44     -5.24147    1.99455
   45     -5.22520    1.99359
   46     -5.09098    1.97568
   47     -4.93897    1.89344
   48     -4.38612    0.13185
   49     -4.13062    0.01091
   50     -3.67245    0.00011
   51     -3.38395    0.00001
   52     -3.31634    0.00000
   53     -3.10561    0.00000
   54     -2.82817    0.00000
   55     -2.57790    0.00000
   56     -2.35310    0.00000
   57     -1.55060    0.00000
   58     -0.67640    0.00000
   59     -0.57865    0.00000
   60     -0.30584    0.00000
   61      0.23596    0.00000
   62      0.61363    0.00000
   63      0.69609    0.00000
   64      1.09044    0.00000
   65      1.56195    0.00000
   66      2.46373    0.00000
   67      2.79852    0.00000
   68      3.11220    0.00000
   69      3.29968    0.00000
   70      3.61125    0.00000
   71      3.96799    0.00000
   72      4.23665    0.00000
   73      4.82697    0.00000
   74      5.22227    0.00000
   75      5.45709    0.00000
   76      5.90468    0.00000
   77      6.13682    0.00000
   78      6.24003    0.00000
   79      6.74819    0.00000
   80      7.13892    0.00000
   81      7.35126    0.00000
   82      7.59883    0.00000
   83      7.72625    0.00000
   84      7.97540    0.00000
   85      8.13198    0.00000
   86      8.32282    0.00000
   87      8.54546    0.00000
   88      8.63633    0.00000
   89      8.76048    0.00000
   90      8.98297    0.00000
   91      9.06955    0.00000
   92      9.11056    0.00000
   93      9.21638    0.00000
   94      9.32680    0.00000
   95      9.54181    0.00000
   96      9.67420    0.00000
   97      9.75145    0.00000


Forces in eV/Ang:
  0 C    -2.28918   -2.77042   -1.36608
  1 C     1.66833   -0.75428    2.39846
  2 C    -0.21980   -3.54717   -0.89276
  3 C     0.88643   -1.19155    0.08818
  4 C     0.56743    0.18072   -0.20510
  5 C    -1.72033    0.01330   -0.67736
  6 C    -1.38468   -0.31744    0.59849
  7 C    -0.90072    0.68131   -1.42007
  8 C    -0.10220    0.25983    0.06702
  9 C    -0.99344    0.31369    0.07847
 10 C     0.40335    1.14641    0.01691
 11 C    -0.31574    0.61607    0.39763
 12 C     1.14304    0.57148   -0.08329
 13 C     2.30759   -0.27459    1.05477
 14 C     1.33845   -0.15814    0.93089
 15 C     0.76873    2.58589    0.64260
 16 C    -0.45592    0.99897   -0.07246
 17 C     0.15576    1.23356    1.54394
 18 C     1.63402    1.50165   -2.59348
 19 C     0.07157   -0.17102    0.40244
 20 C    -0.11900    0.62866   -0.31887
 21 C    -1.34358   -0.75975   -0.28409
 22 C     0.26897   -1.48397   -0.23388
 23 C    -1.46304    0.66247   -0.01758

System changes: positions 

Initializing position-dependent things.

Density initialized from wave functions
           .--------------------------------------.  
          /|                                      |  
         / |                                      |  
        /  |                                      |  
       /   |                                      |  
      /    |                                      |  
     /     |                                      |  
    /      |                                      |  
   /       |             C                        |  
  /        |               C  C                   |  
 *         |C  C     C  C     C                   |  
 |         |     C   C   C  C                     |  
 |         .---C--C--C-C-----C--------------------.  
 |        /   C     C  C  C                      /   
 |       /   C   C                              /    
 |      /                                      /     
 |     /                                      /      
 |    /                                      /       
 |   /                                      /        
 |  /                                      /         
 | /                                      /          
 |/                                      /           
 *--------------------------------------*            

Positions:
   0 C      6.444652    6.713957    4.432438
   1 C      5.938079    9.077335    4.765954
   2 C      6.998719    8.163855    4.355296
   3 C      4.262962    3.083985    5.348474
   4 C      4.214757    4.497329    5.220510
   5 C      5.061162    6.888664    4.836862
   6 C      4.361442    5.729592    5.111534
   7 C      4.631273    8.331241    4.806813
   8 C      3.392250    8.744940    5.089221
   9 C      2.215472    9.261503    5.181602
  10 C      7.501700    9.920249    6.163203
  11 C      9.716480    8.395692    6.073535
  12 C      7.617471    7.549694    5.906753
  13 C      9.547327    6.009997    5.771519
  14 C      8.104103    6.157231    5.808184
  15 C      6.185486    7.612871    5.720018
  16 C     10.208962    7.250558    5.926507
  17 C      8.359648    8.798936    6.113976
  18 C      7.018222    5.348674    5.397522
  19 C      5.561161    3.386000    5.274993
  20 C      6.937020    3.857213    5.369065
  21 C      8.230342    3.283773    5.445552
  22 C     10.254281    4.787719    5.677945
  23 C      9.429748    3.769367    5.580923

Unit cell:
           periodic     x           y           z      points  spacing
  1. axis:    yes   16.000000    0.000000    0.000000    80     0.2000
  2. axis:    yes    0.000000   16.000000    0.000000    80     0.2000
  3. axis:    yes    0.000000    0.000000   10.000000    48     0.2083

Effective grid spacing dv^(1/3) = 0.2027

                     log10-error:    total        iterations:
           time      wfs    density  energy       fermi  poisson
iter:   1  11:54:56          +inf  -170.560813    3      5      
iter:   2  11:54:57         -2.17  -170.549941    2      2      
iter:   3  11:54:57         -2.24  -170.528585    2      2      
iter:   4  11:54:58         -2.51  -170.526598    2      2      
iter:   5  11:54:59         -2.82  -170.526046    2      2      
iter:   6  11:54:59         -2.98  -170.525857    2      2      
iter:   7  11:55:00         -3.18  -170.527194    2      1      
iter:   8  11:55:00         -3.43  -170.526185    2      1      
iter:   9  11:55:01         -3.51  -170.526039    2      1      
iter:  10  11:55:02         -3.64  -170.526925    2      1      
iter:  11  11:55:02         -3.74  -170.525460    2      1      
iter:  12  11:55:03         -3.89  -170.525351    2      1      
iter:  13  11:55:03         -4.00  -170.526123    2      1      

Converged after 13 iterations.

Dipole moment: (1.012809, -0.934582, -0.138899) |e|*Ang

Energy contributions relative to reference atoms: (reference = -24663.074771)

Kinetic:       +129.060167
Potential:     -126.822904
External:        +0.000000
XC:            -175.606055
Entropy (-ST):   -0.091468
Local:           +2.888403
--------------------------
Free energy:   -170.571857
Extrapolated:  -170.526123

Fermi level: -4.64710

 Band  Eigenvalues  Occupancy
    0    -27.05252    2.00000
    1    -23.19094    2.00000
    2    -22.82141    2.00000
    3    -21.87494    2.00000
    4    -21.35770    2.00000
    5    -20.96831    2.00000
    6    -20.24423    2.00000
    7    -19.75178    2.00000
    8    -19.23816    2.00000
    9    -18.33078    2.00000
   10    -17.86215    2.00000
   11    -17.51143    2.00000
   12    -17.07282    2.00000
   13    -16.38337    2.00000
   14    -15.75618    2.00000
   15    -15.35435    2.00000
   16    -15.10822    2.00000
   17    -14.59522    2.00000
   18    -13.86934    2.00000
   19    -13.57100    2.00000
   20    -13.23868    2.00000
   21    -12.89308    2.00000
   22    -12.14940    2.00000
   23    -11.94392    2.00000
   24    -11.71797    2.00000
   25    -11.43794    2.00000
   26    -10.96255    2.00000
   27    -10.65617    2.00000
   28    -10.25792    2.00000
   29     -9.86209    2.00000
   30     -9.66698    2.00000
   31     -9.58985    2.00000
   32     -9.34281    2.00000
   33     -9.05669    2.00000
   34     -8.27729    2.00000
   35     -7.99651    2.00000
   36     -7.67965    2.00000
   37     -7.47021    2.00000
   38     -7.45129    2.00000
   39     -6.81481    2.00000
   40     -6.62931    2.00000
   41     -6.40563    2.00000
   42     -5.91917    1.99999
   43     -5.66016    1.99992
   44     -5.31469    1.99748
   45     -5.22349    1.99374
   46     -5.11544    1.98167
   47     -4.97400    1.92670
   48     -4.34136    0.08980
   49     -4.12389    0.01063
   50     -3.59996    0.00006
   51     -3.38977    0.00001
   52     -3.31647    0.00000
   53     -3.01485    0.00000
   54     -2.79630    0.00000
   55     -2.52984    0.00000
   56     -2.31856    0.00000
   57     -1.40701    0.00000
   58     -0.62401    0.00000
   59     -0.48769    0.00000
   60     -0.12483    0.00000
   61      0.30474    0.00000
   62      0.60690    0.00000
   63      0.74851    0.00000
   64      1.16358    0.00000
   65      1.46448    0.00000
   66      2.50217    0.00000
   67      2.67740    0.00000
   68      3.15099    0.00000
   69      3.32327    0.00000
   70      3.53111    0.00000
   71      3.96374    0.00000
   72      4.17289    0.00000
   73      4.77929    0.00000
   74      5.16740    0.00000
   75      5.38060    0.00000
   76      5.89049    0.00000
   77      6.06491    0.00000
   78      6.22575    0.00000
   79      6.76969    0.00000
   80      7.10655    0.00000
   81      7.32474    0.00000
   82      7.60062    0.00000
   83      7.74575    0.00000
   84      7.94410    0.00000
   85      8.09240    0.00000
   86      8.27996    0.00000
   87      8.56058    0.00000
   88      8.59018    0.00000
   89      8.76250    0.00000
   90      8.89837    0.00000
   91      8.98650    0.00000
   92      9.10938    0.00000
   93      9.21617    0.00000
   94      9.31936    0.00000
   95      9.52844    0.00000
   96      9.64126    0.00000
   97      9.71587    0.00000


Forces in eV/Ang:
  0 C    -1.95875   -2.33755   -0.63366
  1 C     1.54760   -1.00951    2.32334
  2 C    -0.13182   -3.55895   -0.44845
  3 C     0.61173   -0.87912    0.06114
  4 C     0.44495   -0.60156   -0.10756
  5 C    -1.58265   -0.17365   -0.55903
  6 C    -1.24807    0.36214    0.50525
  7 C    -0.63330    0.63258   -1.20591
  8 C    -0.22557    0.36667    0.00853
  9 C    -0.85716    0.26904    0.07237
 10 C     0.30809    1.08851   -0.09098
 11 C    -0.26110    0.76193    0.43789
 12 C     0.96694    0.54703   -0.45210
 13 C     1.79018   -0.27699    1.01450
 14 C     1.25053    0.08863    0.69764
 15 C     0.68465    2.15579    0.14251
 16 C    -0.15081    0.71015   -0.04960
 17 C     0.02405    1.14215    1.39567
 18 C     1.39538    1.39509   -2.60281
 19 C     0.30694    0.01177    0.37319
 20 C    -0.05070    0.76077   -0.35682
 21 C    -1.25852   -0.73215   -0.28855
 22 C     0.34835   -1.19262   -0.17763
 23 C    -1.45081    0.51492   -0.08490

System changes: positions 

Initializing position-dependent things.

Density initialized from wave functions
           .--------------------------------------.  
          /|                                      |  
         / |                                      |  
        /  |                                      |  
       /   |                                      |  
      /    |                                      |  
     /     |                                      |  
    /      |                                      |  
   /       |              C                       |  
  /        |               C  C                   |  
 *         |C  C     C  C     C                   |  
 |         |     C   C   C  C                     |  
 |         .---C--C--C-C-----C--------------------.  
 |        /   C     CC C  C                      /   
 |       /   C   C                              /    
 |      /                                      /     
 |     /                                      /      
 |    /                                      /       
 |   /                                      /        
 |  /                                      /         
 | /                                      /          
 |/                                      /           
 *--------------------------------------*            

Positions:
   0 C      6.422516    6.687002    4.425035
   1 C      5.956192    9.066035    4.792860
   2 C      6.997482    8.124361    4.349075
   3 C      4.272312    3.073743    5.349042
   4 C      4.220274    4.490199    5.219268
   5 C      5.043226    6.887824    4.830491
   6 C      4.346261    5.733386    5.117274
   7 C      4.622951    8.338409    4.792441
   8 C      3.389105    8.749403    5.089579
   9 C      2.206104    9.264380    5.182349
  10 C      7.505177    9.933002    6.161810
  11 C      9.713159    8.403498    6.078764
  12 C      7.629140    7.555892    5.902852
  13 C      9.570089    6.006711    5.783136
  14 C      8.118286    6.157018    5.815565
  15 C      6.192463    7.636928    5.722008
  16 C     10.205977    7.259893    5.925909
  17 C      8.360982    8.812205    6.129968
  18 C      7.034638    5.364232    5.368302
  19 C      5.561890    3.385716    5.279443
  20 C      6.935626    3.866808    5.364800
  21 C      8.216720    3.275434    5.442299
  22 C     10.257215    4.773090    5.675770
  23 C      9.413413    3.775846    5.579902

Unit cell:
           periodic     x           y           z      points  spacing
  1. axis:    yes   16.000000    0.000000    0.000000    80     0.2000
  2. axis:    yes    0.000000   16.000000    0.000000    80     0.2000
  3. axis:    yes    0.000000    0.000000   10.000000    48     0.2083

Effective grid spacing dv^(1/3) = 0.2027

                     log10-error:    total        iterations:
           time      wfs    density  energy       fermi  poisson
iter:   1  11:55:06          +inf  -171.406651    3      5      
iter:   2  11:55:06         -2.20  -171.396352    2      2      
iter:   3  11:55:07         -2.26  -171.377497    2      2      
iter:   4  11:55:07         -2.52  -171.375415    2      2      
iter:   5  11:55:08         -2.79  -171.374533    2      2      
iter:   6  11:55:09         -3.02  -171.374281    2      2      
iter:   7  11:55:09         -3.19  -171.375630    2      1      
iter:   8  11:55:10         -3.45  -171.374367    2      1      
iter:   9  11:55:11         -3.53  -171.374116    1      1      
iter:  10  11:55:11         -3.69  -171.374905    2      1      
iter:  11  11:55:12         -3.70  -171.373484    2      1      
iter:  12  11:55:12         -3.93  -171.373602    2      1      
iter:  13  11:55:13         -3.97  -171.374251    1      1      
iter:  14  11:55:14         -4.26  -171.373757    2      1      

Converged after 14 iterations.

Dipole moment: (0.955985, -0.923638, -0.149067) |e|*Ang

Energy contributions relative to reference atoms: (reference = -24663.074771)

Kinetic:       +124.791244
Potential:     -124.039180
External:        +0.000000
XC:            -174.972259
Entropy (-ST):   -0.074387
Local:           +2.883632
--------------------------
Free energy:   -171.410951
Extrapolated:  -171.373757

Fermi level: -4.64255

 Band  Eigenvalues  Occupancy
    0    -26.89913    2.00000
    1    -23.10879    2.00000
    2    -22.86047    2.00000
    3    -21.86019    2.00000
    4    -21.31798    2.00000
    5    -20.94118    2.00000
    6    -20.23980    2.00000
    7    -19.72350    2.00000
    8    -19.21600    2.00000
    9    -18.28087    2.00000
   10    -17.83513    2.00000
   11    -17.48790    2.00000
   12    -17.07288    2.00000
   13    -16.37104    2.00000
   14    -15.69767    2.00000
   15    -15.32017    2.00000
   16    -15.12831    2.00000
   17    -14.54875    2.00000
   18    -13.87712    2.00000
   19    -13.47857    2.00000
   20    -13.21704    2.00000
   21    -12.85862    2.00000
   22    -12.09881    2.00000
   23    -11.91343    2.00000
   24    -11.57587    2.00000
   25    -11.45274    2.00000
   26    -10.96087    2.00000
   27    -10.64106    2.00000
   28    -10.29617    2.00000
   29     -9.89727    2.00000
   30     -9.67284    2.00000
   31     -9.60369    2.00000
   32     -9.37102    2.00000
   33     -9.04273    2.00000
   34     -8.26761    2.00000
   35     -7.98163    2.00000
   36     -7.67335    2.00000
   37     -7.49433    2.00000
   38     -7.44838    2.00000
   39     -6.85886    2.00000
   40     -6.66712    2.00000
   41     -6.43447    2.00000
   42     -5.92899    1.99999
   43     -5.69959    1.99995
   44     -5.37746    1.99871
   45     -5.26450    1.99603
   46     -5.12184    1.98356
   47     -4.99947    1.94518
   48     -4.30400    0.06550
   49     -4.12295    0.01102
   50     -3.55128    0.00004
   51     -3.41261    0.00001
   52     -3.31014    0.00000
   53     -2.94270    0.00000
   54     -2.76189    0.00000
   55     -2.49840    0.00000
   56     -2.24903    0.00000
   57     -1.32366    0.00000
   58     -0.66706    0.00000
   59     -0.35474    0.00000
   60      0.03536    0.00000
   61      0.41858    0.00000
   62      0.60883    0.00000
   63      0.79766    0.00000
   64      1.23337    0.00000
   65      1.44135    0.00000
   66      2.52426    0.00000
   67      2.55984    0.00000
   68      3.17049    0.00000
   69      3.32884    0.00000
   70      3.43269    0.00000
   71      3.97200    0.00000
   72      4.11528    0.00000
   73      4.72094    0.00000
   74      5.13360    0.00000
   75      5.32948    0.00000
   76      5.82815    0.00000
   77      6.02553    0.00000
   78      6.25352    0.00000
   79      6.79193    0.00000
   80      7.05786    0.00000
   81      7.33063    0.00000
   82      7.58382    0.00000
   83      7.74872    0.00000
   84      7.91876    0.00000
   85      8.06144    0.00000
   86      8.24701    0.00000
   87      8.55272    0.00000
   88      8.58944    0.00000
   89      8.76309    0.00000
   90      8.82704    0.00000
   91      8.90787    0.00000
   92      9.10388    0.00000
   93      9.21762    0.00000
   94      9.30484    0.00000
   95      9.52378    0.00000
   96      9.61482    0.00000
   97      9.69276    0.00000


Forces in eV/Ang:
  0 C    -1.60078   -1.88566    0.01515
  1 C     1.38609   -1.24482    2.20087
  2 C    -0.02218   -3.40358   -0.06329
  3 C     0.25748   -0.81098    0.07937
  4 C     0.48501   -0.13605   -0.11528
  5 C    -1.25493   -0.08031   -0.54932
  6 C    -1.42596   -0.33090    0.55459
  7 C    -0.27327    0.52747   -0.99018
  8 C    -0.49124    0.53056   -0.03059
  9 C    -0.64467    0.17756    0.04204
 10 C     0.23093    1.00825   -0.21433
 11 C    -0.16828    0.74134    0.46473
 12 C     0.77435    0.49867   -0.75367
 13 C     1.30733   -0.25273    0.94009
 14 C     1.14829    0.23889    0.45958
 15 C     0.61900    1.78695   -0.18028
 16 C     0.07289    0.55671   -0.02003
 17 C    -0.09499    1.02325    1.22700
 18 C     1.13459    1.27245   -2.52955
 19 C     0.63170    0.26276    0.33712
 20 C    -0.04050    0.85071   -0.40966
 21 C    -1.07388   -0.67280   -0.24811
 22 C     0.43175   -0.95004   -0.11031
 23 C    -1.45222    0.37554   -0.11693

System changes: positions 

Initializing position-dependent things.

Density initialized from wave functions
           .--------------------------------------.  
          /|                                      |  
         / |                                      |  
        /  |                                      |  
       /   |                                      |  
      /    |                                      |  
     /     |                                      |  
    /      |                                      |  
   /       |              C                       |  
  /        |               C  C                   |  
 *         |C  C     C  C     C                   |  
 |         |     C   C   C  C                     |  
 |         .---C--C---CC-----C--------------------.  
 |        /   C     CC C  C                      /   
 |       /   C   C                              /    
[...]
    5    -20.90188    2.00000
    6    -20.29621    2.00000
    7    -19.52574    2.00000
    8    -18.84476    2.00000
    9    -18.30373    2.00000
   10    -17.86293    2.00000
   11    -17.21952    2.00000
   12    -16.99829    2.00000
   13    -16.24457    2.00000
   14    -15.37920    2.00000
   15    -15.02141    2.00000
   16    -14.75869    2.00000
   17    -14.53071    2.00000
   18    -13.86494    2.00000
   19    -13.31436    2.00000
   20    -12.79005    2.00000
   21    -12.49285    2.00000
   22    -11.92942    2.00000
   23    -11.44102    2.00000
   24    -11.23531    2.00000
   25    -11.03471    2.00000
   26    -10.90675    2.00000
   27    -10.70568    2.00000
   28    -10.51315    2.00000
   29    -10.14334    2.00000
   30    -10.05005    2.00000
   31     -9.64616    2.00000
   32     -9.59116    2.00000
   33     -9.22458    2.00000
   34     -8.93747    2.00000
   35     -7.82458    2.00000
   36     -7.64700    2.00000
   37     -7.56270    2.00000
   38     -7.43425    2.00000
   39     -7.28324    2.00000
   40     -6.71079    2.00000
   41     -6.54058    2.00000
   42     -6.32323    2.00000
   43     -5.59914    1.99876
   44     -5.57485    1.99842
   45     -5.31493    1.97890
   46     -5.23410    1.95325
   47     -4.91218    1.25118
   48     -4.82411    0.81834
   49     -4.09396    0.00093
   50     -3.95329    0.00023
   51     -3.39124    0.00000
   52     -2.86458    0.00000
   53     -2.44726    0.00000
   54     -2.08835    0.00000
   55     -1.86387    0.00000
   56     -1.34648    0.00000
   57     -1.16111    0.00000
   58     -0.05666    0.00000
   59      0.43329    0.00000
   60      0.84967    0.00000
   61      1.07681    0.00000
   62      1.52245    0.00000
   63      1.63962    0.00000
   64      2.08814    0.00000
   65      2.42494    0.00000
   66      2.69796    0.00000
   67      2.89693    0.00000
   68      3.32313    0.00000
   69      3.92538    0.00000
   70      4.33233    0.00000
   71      4.59956    0.00000
   72      4.66277    0.00000
   73      4.89733    0.00000
   74      5.10331    0.00000
   75      5.28134    0.00000
   76      5.59621    0.00000
   77      5.75274    0.00000
   78      6.05931    0.00000
   79      6.28577    0.00000
   80      6.50958    0.00000
   81      7.30150    0.00000
   82      7.46276    0.00000
   83      7.87241    0.00000
   84      8.01559    0.00000
   85      8.27409    0.00000
   86      8.45669    0.00000
   87      8.47861    0.00000
   88      8.79879    0.00000
   89      8.87741    0.00000
   90      8.99076    0.00000
   91      9.09937    0.00000
   92      9.16920    0.00000
   93      9.20514    0.00000
   94      9.53683    0.00000
   95      9.69064    0.00000
   96      9.79423    0.00000
   97      9.90530    0.00000


Forces in eV/Ang:
  0 C    -0.02067   -0.00078   -0.03647
  1 C    -0.03049   -0.02338    0.03329
  2 C     0.06866   -0.07074   -0.17855
  3 C    -0.06758    0.08821   -0.05341
  4 C    -0.04276    0.04592    0.05509
  5 C    -0.16751    0.01696   -0.00283
  6 C     0.05248   -0.07075    0.01884
  7 C    -0.07710   -0.09136   -0.01462
  8 C     0.14240   -0.00845    0.03365
  9 C    -0.02203    0.01691    0.03257
 10 C    -0.02207    0.00019    0.01397
 11 C     0.01306    0.02515    0.03156
 12 C     0.06622    0.02602   -0.02458
 13 C     0.03667   -0.03092    0.04136
 14 C     0.06389    0.03184   -0.08095
 15 C    -0.04776    0.03347    0.07356
 16 C     0.03991   -0.02615   -0.02516
 17 C     0.01477    0.03566    0.07556
 18 C    -0.00852    0.02344    0.04126
 19 C    -0.00386   -0.04200    0.01278
 20 C     0.07077    0.00304   -0.01416
 21 C     0.01261   -0.05342    0.04472
 22 C     0.00359   -0.03663    0.04720
 23 C    -0.01960    0.08213   -0.06091

System changes: positions 

Initializing position-dependent things.

Density initialized from wave functions
           .--------------------------------------.  
          /|                                      |  
         / |                                      |  
        /  |                                      |  
       /   |                                      |  
      /    |                                      |  
     /     |                                      |  
    /      |                                      |  
   /       |                                      |  
  /        |             C C  C                   |  
 *         | C C     CC        C                  |  
 |         |     C       C   C                    |  
 |         .--C--C--C-C--C---C--------------------.  
 |        /   C      CCC  C                      /   
 |       /    C  C                              /    
 |      /                                      /     
 |     /                                      /      
 |    /                                      /       
 |   /                                      /        
 |  /                                      /         
 | /                                      /          
 |/                                      /           
 *--------------------------------------*            

Positions:
   0 C      6.138803    6.530679    4.955266
   1 C      6.070910    8.792746    5.351205
   2 C      6.755960    7.793674    4.427506
   3 C      4.463825    2.905075    5.046512
   4 C      4.258573    4.340510    4.986785
   5 C      4.672749    6.816076    5.004401
   6 C      3.978903    5.617762    4.994877
   7 C      4.556838    8.297245    5.200871
   8 C      3.398342    9.016717    5.200153
   9 C      2.303641    9.708148    5.042046
  10 C      7.214276    9.784666    5.741602
  11 C      9.665540    8.538296    6.203981
  12 C      7.972365    7.665280    5.230623
  13 C      9.728226    6.075432    5.903374
  14 C      8.430836    6.269767    5.296864
  15 C      6.643652    7.521647    6.017264
  16 C     10.227649    7.390690    6.296090
  17 C      8.401085    9.019076    5.727017
  18 C      7.211356    5.482010    5.047455
  19 C      5.632834    3.584498    5.070139
  20 C      7.001887    4.060941    5.181476
  21 C      8.079763    3.204308    5.529752
  22 C     10.145083    4.709403    6.084656
  23 C      9.212990    3.834611    5.797130

Unit cell:
           periodic     x           y           z      points  spacing
  1. axis:    yes   16.000000    0.000000    0.000000    80     0.2000
  2. axis:    yes    0.000000   16.000000    0.000000    80     0.2000
  3. axis:    yes    0.000000    0.000000   10.000000    48     0.2083

Effective grid spacing dv^(1/3) = 0.2027

                     log10-error:    total        iterations:
           time      wfs    density  energy       fermi  poisson
iter:   1  12:03:00          +inf  -177.253304    2      5      
iter:   2  12:03:01         -2.66  -177.250764    2      1      
iter:   3  12:03:01         -2.84  -177.250636    2      1      
iter:   4  12:03:02         -2.92  -177.250533    2      1      
iter:   5  12:03:03         -3.07  -177.250631    2      1      
iter:   6  12:03:03         -3.22  -177.252288    2      1      
iter:   7  12:03:04         -3.04  -177.250492    2      1      
iter:   8  12:03:04         -3.42  -177.250333    2      1      
iter:   9  12:03:05         -3.59  -177.251764    2      1      
iter:  10  12:03:06         -3.36  -177.250677    2      1      
iter:  11  12:03:06         -3.81  -177.250272    2      1      
iter:  12  12:03:07         -3.39  -177.250636    2      1      
iter:  13  12:03:07         -3.98  -177.250465    2      1      
iter:  14  12:03:08         -4.36  -177.250354    2      1      

Converged after 14 iterations.

Dipole moment: (0.778702, -0.682484, -0.171101) |e|*Ang

Energy contributions relative to reference atoms: (reference = -24663.074771)

Kinetic:       +114.895695
Potential:     -118.582550
External:        +0.000000
XC:            -176.331565
Entropy (-ST):   -0.304916
Local:           +2.920523
--------------------------
Free energy:   -177.402812
Extrapolated:  -177.250354

Fermi level: -4.86404

 Band  Eigenvalues  Occupancy
    0    -26.67079    2.00000
    1    -23.47745    2.00000
    2    -22.61700    2.00000
    3    -22.03608    2.00000
    4    -21.19797    2.00000
    5    -20.89588    2.00000
    6    -20.29472    2.00000
    7    -19.53006    2.00000
    8    -18.84512    2.00000
    9    -18.29752    2.00000
   10    -17.86106    2.00000
   11    -17.22517    2.00000
   12    -16.99085    2.00000
   13    -16.24336    2.00000
   14    -15.37845    2.00000
   15    -15.02434    2.00000
   16    -14.76236    2.00000
   17    -14.52241    2.00000
   18    -13.85789    2.00000
   19    -13.32167    2.00000
   20    -12.78271    2.00000
   21    -12.48532    2.00000
   22    -11.92852    2.00000
   23    -11.43063    2.00000
   24    -11.24098    2.00000
   25    -11.03324    2.00000
   26    -10.91025    2.00000
   27    -10.69937    2.00000
   28    -10.50116    2.00000
   29    -10.14482    2.00000
   30    -10.04145    2.00000
   31     -9.63307    2.00000
   32     -9.59408    2.00000
   33     -9.22210    2.00000
   34     -8.94040    2.00000
   35     -7.82467    2.00000
   36     -7.65199    2.00000
   37     -7.55999    2.00000
   38     -7.43258    2.00000
   39     -7.28606    2.00000
   40     -6.71544    2.00000
   41     -6.54046    2.00000
   42     -6.32484    2.00000
   43     -5.59844    1.99871
   44     -5.57347    1.99834
   45     -5.31901    1.97908
   46     -5.23793    1.95354
   47     -4.91477    1.24834
   48     -4.82783    0.82087
   49     -4.09654    0.00093
   50     -3.93748    0.00019
   51     -3.38913    0.00000
   52     -2.86954    0.00000
   53     -2.44721    0.00000
   54     -2.09229    0.00000
   55     -1.84802    0.00000
   56     -1.36636    0.00000
   57     -1.17212    0.00000
   58     -0.05563    0.00000
   59      0.43408    0.00000
   60      0.85726    0.00000
   61      1.06854    0.00000
   62      1.52027    0.00000
   63      1.63776    0.00000
   64      2.09944    0.00000
   65      2.40889    0.00000
   66      2.67908    0.00000
   67      2.88901    0.00000
   68      3.31892    0.00000
   69      3.91683    0.00000
   70      4.32175    0.00000
   71      4.59319    0.00000
   72      4.64948    0.00000
   73      4.89262    0.00000
   74      5.08490    0.00000
   75      5.27241    0.00000
   76      5.59036    0.00000
   77      5.76440    0.00000
   78      6.05611    0.00000
   79      6.28274    0.00000
   80      6.51819    0.00000
   81      7.31342    0.00000
   82      7.47917    0.00000
   83      7.87485    0.00000
   84      8.01902    0.00000
   85      8.27126    0.00000
   86      8.44957    0.00000
   87      8.47997    0.00000
   88      8.79925    0.00000
   89      8.87537    0.00000
   90      8.99048    0.00000
   91      9.09808    0.00000
   92      9.17099    0.00000
   93      9.20787    0.00000
   94      9.53790    0.00000
   95      9.68443    0.00000
   96      9.78685    0.00000
   97      9.90345    0.00000


Forces in eV/Ang:
  0 C     0.00244   -0.04185   -0.06372
  1 C    -0.01391    0.00136    0.02574
  2 C    -0.02026   -0.08853   -0.09305
  3 C    -0.04554    0.08711   -0.02482
  4 C    -0.02807    0.00353    0.03127
  5 C    -0.05126    0.00743   -0.00642
  6 C     0.00508   -0.02397    0.01828
  7 C    -0.03181   -0.04490   -0.01572
  8 C     0.07607    0.01143    0.02617
  9 C    -0.04845    0.02651    0.03769
 10 C    -0.01838   -0.03093    0.00984
 11 C     0.01155    0.00422    0.02309
 12 C     0.02572    0.05472    0.00055
 13 C     0.00683   -0.01434    0.01946
 14 C     0.03549    0.05822   -0.04495
 15 C     0.04726    0.02383   -0.00264
 16 C     0.02649    0.00680   -0.00169
 17 C     0.00286    0.02498    0.05696
 18 C     0.00057    0.01580    0.04559
 19 C     0.01243   -0.04203    0.00343
 20 C     0.02366   -0.02552   -0.00945
 21 C    -0.00366   -0.03269    0.02290
 22 C     0.02827   -0.03510    0.02236
 23 C    -0.00154    0.04224   -0.02292

System changes: positions 

Initializing position-dependent things.

Density initialized from wave functions
           .--------------------------------------.  
          /|                                      |  
         / |                                      |  
        /  |                                      |  
       /   |                                      |  
      /    |                                      |  
     /     |                                      |  
    /      |                                      |  
   /       |                                      |  
  /        |             C C  C                   |  
 *         | C C     CC        C                  |  
 |         |     C       C   C                    |  
 |         .--C--C--C-C--C---C--------------------.  
 |        /   C      CCC  C                      /   
 |       /    C  C                              /    
 |      /                                      /     
 |     /                                      /      
 |    /                                      /       
 |   /                                      /        
 |  /                                      /         
 | /                                      /          
 |/                                      /           
 *--------------------------------------*            

Positions:
   0 C      6.138063    6.530578    4.953500
   1 C      6.070716    8.791223    5.351024
   2 C      6.755886    7.792556    4.422651
   3 C      4.464342    2.903170    5.034922
   4 C      4.258676    4.337793    4.988344
   5 C      4.670121    6.815059    5.006073
   6 C      3.980151    5.614803    5.002496
   7 C      4.556127    8.294800    5.203628
   8 C      3.400930    9.018820    5.208327
   9 C      2.309364    9.714497    5.042856
  10 C      7.213218    9.784608    5.741849
  11 C      9.665685    8.539531    6.204061
  12 C      7.973643    7.666558    5.225804
  13 C      9.727751    6.075863    5.905409
  14 C      8.432567    6.271166    5.293159
  15 C      6.644669    7.521479    6.014757
  16 C     10.228118    7.392264    6.294368
  17 C      8.400464    9.019907    5.727359
  18 C      7.211525    5.482797    5.045586
  19 C      5.632780    3.583673    5.068304
  20 C      7.002440    4.061561    5.180336
  21 C      8.078426    3.204351    5.533003
  22 C     10.143542    4.709953    6.091507
  23 C      9.210315    3.837831    5.800106

Unit cell:
           periodic     x           y           z      points  spacing
  1. axis:    yes   16.000000    0.000000    0.000000    80     0.2000
  2. axis:    yes    0.000000   16.000000    0.000000    80     0.2000
  3. axis:    yes    0.000000    0.000000   10.000000    48     0.2083

Effective grid spacing dv^(1/3) = 0.2027

                     log10-error:    total        iterations:
           time      wfs    density  energy       fermi  poisson
iter:   1  12:03:10          +inf  -177.253800    2      5      
iter:   2  12:03:11         -2.90  -177.252832    2      1      
iter:   3  12:03:11         -3.05  -177.252588    2      1      
iter:   4  12:03:12         -3.14  -177.252603    2      1      
iter:   5  12:03:12         -3.29  -177.252940    2      1      
iter:   6  12:03:13         -3.51  -177.253761    2      1      
iter:   7  12:03:14         -3.26  -177.252423    2      1      
iter:   8  12:03:14         -3.68  -177.252124    2      1      
iter:   9  12:03:15         -3.88  -177.252454    2      1      
iter:  10  12:03:15         -3.87  -177.252274    2      1      
iter:  11  12:03:16         -4.20  -177.252063    2      1      

Converged after 11 iterations.

Dipole moment: (0.773339, -0.678322, -0.169510) |e|*Ang

Energy contributions relative to reference atoms: (reference = -24663.074771)

Kinetic:       +114.636714
Potential:     -118.398549
External:        +0.000000
XC:            -176.253747
Entropy (-ST):   -0.304568
Local:           +2.915804
--------------------------
Free energy:   -177.404347
Extrapolated:  -177.252063

Fermi level: -4.86667

 Band  Eigenvalues  Occupancy
    0    -26.65481    2.00000
    1    -23.48509    2.00000
    2    -22.61276    2.00000
    3    -22.03263    2.00000
    4    -21.19744    2.00000
    5    -20.89174    2.00000
    6    -20.29339    2.00000
    7    -19.53100    2.00000
    8    -18.84450    2.00000
    9    -18.29095    2.00000
   10    -17.86165    2.00000
   11    -17.22811    2.00000
   12    -16.98631    2.00000
   13    -16.24144    2.00000
   14    -15.37727    2.00000
   15    -15.02466    2.00000
   16    -14.76065    2.00000
   17    -14.51700    2.00000
   18    -13.85300    2.00000
   19    -13.32593    2.00000
   20    -12.77860    2.00000
   21    -12.48027    2.00000
   22    -11.92391    2.00000
   23    -11.42494    2.00000
   24    -11.24697    2.00000
   25    -11.03405    2.00000
   26    -10.90881    2.00000
   27    -10.69308    2.00000
   28    -10.49601    2.00000
   29    -10.14731    2.00000
   30    -10.04155    2.00000
   31     -9.62593    2.00000
   32     -9.59490    2.00000
   33     -9.22141    2.00000
   34     -8.93975    2.00000
   35     -7.82476    2.00000
   36     -7.65536    2.00000
   37     -7.55589    2.00000
   38     -7.43038    2.00000
   39     -7.28680    2.00000
   40     -6.71640    2.00000
   41     -6.53899    2.00000
   42     -6.32500    2.00000
   43     -5.59861    1.99868
   44     -5.57193    1.99827
   45     -5.32474    1.97971
   46     -5.24174    1.95408
   47     -4.91705    1.24671
   48     -4.83058    0.82148
   49     -4.09742    0.00091
   50     -3.92665    0.00017
   51     -3.38839    0.00000
   52     -2.87018    0.00000
   53     -2.44721    0.00000
   54     -2.09341    0.00000
   55     -1.83701    0.00000
   56     -1.37739    0.00000
   57     -1.18078    0.00000
   58     -0.05650    0.00000
   59      0.43208    0.00000
   60      0.85746    0.00000
   61      1.06233    0.00000
   62      1.51873    0.00000
   63      1.63223    0.00000
   64      2.10472    0.00000
   65      2.39659    0.00000
   66      2.66488    0.00000
   67      2.88030    0.00000
   68      3.31492    0.00000
   69      3.91323    0.00000
   70      4.31705    0.00000
   71      4.59124    0.00000
   72      4.64555    0.00000
   73      4.88258    0.00000
   74      5.07430    0.00000
   75      5.26109    0.00000
   76      5.58327    0.00000
   77      5.77002    0.00000
   78      6.05345    0.00000
   79      6.27561    0.00000
   80      6.51550    0.00000
   81      7.31433    0.00000
   82      7.47992    0.00000
   83      7.87379    0.00000
   84      8.02001    0.00000
   85      8.26847    0.00000
   86      8.44370    0.00000
   87      8.47997    0.00000
   88      8.79824    0.00000
   89      8.87034    0.00000
   90      8.98924    0.00000
   91      9.09681    0.00000
   92      9.17052    0.00000
   93      9.20807    0.00000
   94      9.53527    0.00000
   95      9.68093    0.00000
   96      9.78106    0.00000
   97      9.90041    0.00000


Forces in eV/Ang:
  0 C     0.01159   -0.04091   -0.06305
  1 C    -0.00548    0.00632    0.00551
  2 C    -0.04284   -0.03769   -0.02171
  3 C    -0.03249    0.03969   -0.00988
  4 C    -0.02411    0.02941    0.01441
  5 C     0.02314   -0.01799   -0.00421
  6 C    -0.01855   -0.00171    0.01445
  7 C    -0.00681    0.00571   -0.01240
  8 C     0.01036    0.03241    0.00872
  9 C    -0.01283    0.00734    0.04192
 10 C    -0.02881   -0.02422    0.01176
 11 C    -0.01071    0.02012    0.02053
 12 C    -0.00940    0.04186    0.01427
 13 C     0.00381    0.01154   -0.00284
 14 C     0.01591    0.04781   -0.01385
 15 C     0.06313    0.00824   -0.03662
 16 C     0.02236   -0.01116    0.01219
 17 C     0.01004    0.01045    0.02931
 18 C     0.01134   -0.00453    0.03924
 19 C     0.03205   -0.03668   -0.00886
 20 C    -0.00979   -0.02832    0.00075
 21 C     0.00448   -0.01591    0.01880
 22 C     0.02344   -0.00448    0.01861
 23 C     0.00136   -0.00269   -0.00899

