
  ___ ___ ___ _ _ _  
 |   |   |_  | | | | 
 | | | | | . | | | | 
 |__ |  _|___|_____|  1.3.0b1
 |___|_|             

User:   esb@s65n32.grendel.cscaa.dk
Date:   Wed Nov  8 17:12:57 2017
Arch:   x86_64
Pid:    14430
Python: 2.7.13
gpaw:   /home/esb/DFT/gpaw_git/gpaw
_gpaw:  /home/esb/DFT/gpaw_git/build/bin.linux-x86_64-2.7/gpaw-python
ase:    /home/esb/DFT/ase_git/ase (version 3.15.0b1)
numpy:  /comm/swstack/core/python/2.7.13/lib/python2.7/site-packages/numpy (version 1.13.3)
scipy:  /comm/swstack/core/python/2.7.13/lib/python2.7/site-packages/scipy (version 0.19.1)
units:  Angstrom and eV
cores:  16
Extra parameters: {'blacs': True}

Input parameters:
  basis: dzp
  gpts: [80 80 48]
  kpts: [1 1 1]
  maxiter: 99
  mixer: {backend: pulay,
          beta: 0.05,
          method: separate,
          nmaxold: 5,
          weight: 75}
  mode: lcao
  nbands: -50
  occupations: {name: fermi-dirac,
                width: 0.1}
  poissonsolver: {eps: 1e-07,
                  name: fd,
                  nn: 3,
                  relax: GS}
  xc: PBE

System changes: positions, numbers, cell, pbc, initial_charges, initial_magmoms 

Initialize ...

C-setup:
  name: Carbon
  id: 4aa54d4b901d75f77cc0ea3eec22967b
  Z: 6
  valence: 4
  core: 2
  charge: 0.0
  file: /home/esb/DFT/gpaw-setups-0.8.7929/C.PBE.gz
  cutoffs: 0.64(comp), 1.14(filt), 1.14(core), lmax=2
  valence states:
                energy  radius
    2s(2.00)   -13.751   0.635
    2p(2.00)    -5.284   0.635
    *s          13.461   0.635
    *p          21.927   0.635
    *d           0.000   0.635

  LCAO basis set for C:
    Name: dzp
    File: /home/esb/DFT/gpaw-setups-0.8.7929/C.dzp.basis.gz
    Number of radial functions: 5
    Number of spherical harmonics: 13
      l=0, rc=5.5469 Bohr: 2s-sz confined orbital
      l=1, rc=6.6719 Bohr: 2p-sz confined orbital
      l=0, rc=3.0312 Bohr: 2s-dz split-valence wave
      l=1, rc=3.7500 Bohr: 2p-dz split-valence wave
      l=2, rc=6.6719 Bohr: d-type Gaussian polarization

Reference energy: -24663.074771

Spin-paired calculation

Occupation numbers:
  Fermi-Dirac: width=0.1000 eV

Convergence criteria:
  Maximum total energy change: 0.0005 eV / electron
  Maximum integral of absolute density change: 0.0001 electrons
  Maximum integral of absolute eigenstate change: 4e-08 eV^2
  Maximum number of iterations: 99

Symmetries present (total): 1

  ( 1  0  0)
  ( 0  1  0)
  ( 0  0  1)

1 k-point (Gamma)
1 k-point in the irreducible part of the Brillouin zone
       k-points in crystal coordinates                weights
   0:     0.00000000    0.00000000    0.00000000          1/1

Wave functions: LCAO
  Diagonalizer: Serial LAPACK
  Atomic Correction: dense with blas
  Datatype: float
  Eigensolver: None 

LCAO using direct dense diagonalizer 

Densities:
  Coarse grid: 80*80*48 grid
  Fine grid: 160*160*96 grid
  Total Charge: 0.000000 

Density mixing:
  Method: separate
  Backend: pulay
  Linear mixing parameter: 0.05
  Mixing with 5 old densities
  Damping of long wave oscillations: 75 

Hamiltonian:
  XC and Coulomb potentials evaluated on a 160*160*96 grid
  Using the PBE Exchange-Correlation functional
  Interpolation: tri-quintic (5. degree polynomial)
  Poisson solver: Gauss-Seidel solver with 6 multi-grid levels
    Coarsest grid: 5 x 5 x 3 points
    Stencil: 6*3+1=19 point O(h^6) finite-difference Laplacian
    Max iterations: 1000
    Tolerance: 1.000000e-07 

Memory estimate:
  Process memory now: 77.58 MiB
  Calculator: 15.59 MiB
    Density: 6.13 MiB
      Arrays: 3.81 MiB
      Localized functions: 0.86 MiB
      Mixer: 1.46 MiB
    Hamiltonian: 5.40 MiB
      Arrays: 2.49 MiB
      XC: 0.00 MiB
      Poisson: 2.85 MiB
      vbar: 0.07 MiB
    Wavefunctions: 4.05 MiB
      C [qnM]: 0.23 MiB
      S, T [2 x qmm]: 1.49 MiB
      P [aqMi]: 0.01 MiB
      TCI: 0.00 MiB
      BasisFunctions: 2.33 MiB
      Eigensolver: 0.00 MiB

Total number of cores used: 16
Domain decomposition: 2 x 4 x 2

Number of atoms: 24
Number of atomic orbitals: 312
Number of bands in calculation: 98
Bands to converge: occupied states only
Number of valence electrons: 96

... initialized

Initializing position-dependent things.

Density initialized from atomic densities
           .--------------------------------------.  
          /|                                      |  
         / |                                      |  
        /  |                                      |  
       /   |                                      |  
      /    |                                      |  
     /     |                                      |  
    /      |                                      |  
   /       |    C                                 |  
  /        |              C   C   C               |  
 *         |     CC    C          CC              |  
 |         | C      C                             |  
 |         .---------C--C-----------C-------------.  
 |        /    C  C       C     C                /   
 |       /        C       C C                   /    
 |      /            C C                       /     
 |     /                                      /      
 |    /                                      /       
 |   /                                      /        
 |  /                                      /         
 | /                                      /          
 |/                                      /           
 *--------------------------------------*            

Positions:
   0 C      9.917296    5.317931    3.947701
   1 C      9.520816    3.647699    4.424035
   2 C      6.059016    4.196681    4.682773
   3 C      7.976175    9.619483    5.572758
   4 C      4.809711    8.729801    5.330225
   5 C      6.904215    8.980043    5.435828
   6 C      4.414252    5.590613    4.264871
   7 C      3.023826   11.955746    5.024513
   8 C     11.593640    9.011697    5.452197
   9 C      7.804192    6.305257    4.965145
  10 C      4.199795    9.840125    5.049408
  11 C      9.270143    9.999101    5.652306
  12 C      7.229846    3.792248    4.080531
  13 C      2.940414    7.574916    4.954646
  14 C      5.949814    7.948779    5.267782
  15 C     11.567852    7.825569    5.810332
  16 C      5.482703    5.438984    4.919105
  17 C     12.443307    7.263271    4.580157
  18 C      8.349783    3.141796    4.391366
  19 C     11.099152    9.925749    5.689696
  20 C      8.941237    5.819386    4.811950
  21 C     11.350773    5.512892    4.693819
  22 C      6.426266    6.607469    5.075716
  23 C      3.645243   11.090149    4.538154

Unit cell:
           periodic     x           y           z      points  spacing
  1. axis:    yes   16.000000    0.000000    0.000000    80     0.2000
  2. axis:    yes    0.000000   16.000000    0.000000    80     0.2000
  3. axis:    yes    0.000000    0.000000   10.000000    48     0.2083

Effective grid spacing dv^(1/3) = 0.2027

                     log10-error:    total        iterations:
           time      wfs    density  energy       fermi  poisson
iter:   1  17:12:59          +inf  -161.681219    3      6      
iter:   2  17:12:59         -0.83  -158.319689    4      3      
iter:   3  17:13:00         -0.89  -155.485666    33     3      
iter:   4  17:13:00         -0.90  -154.307529    3      2      
iter:   5  17:13:01         -0.96  -153.329829    4      3      
iter:   6  17:13:01         -1.04  -152.952432    4      3      
iter:   7  17:13:02         -1.12  -152.715397    33     3      
iter:   8  17:13:02         -1.18  -152.133306    4      3      
iter:   9  17:13:03         -1.46  -152.126792    4      3      
iter:  10  17:13:03         -1.58  -152.039591    3      3      
iter:  11  17:13:04         -1.79  -152.024313    3      2      
iter:  12  17:13:04         -1.87  -151.998434    3      2      
iter:  13  17:13:05         -2.06  -151.979034    3      2      
iter:  14  17:13:05         -2.16  -151.985464    2      2      
iter:  15  17:13:06         -2.22  -151.979970    3      2      
iter:  16  17:13:06         -2.41  -151.979567    3      2      
iter:  17  17:13:07         -2.74  -151.973007    3      2      
iter:  18  17:13:07         -2.85  -151.970548    2      2      
iter:  19  17:13:08         -2.96  -151.982668    3      1      
iter:  20  17:13:08         -3.19  -151.972029    2      1      
iter:  21  17:13:08         -3.31  -151.971967    2      1      
iter:  22  17:13:09         -3.38  -151.975573    2      1      
iter:  23  17:13:09         -3.47  -151.967796    2      1      
iter:  24  17:13:10         -3.64  -151.971350    2      1      
iter:  25  17:13:10         -3.75  -151.965900    2      1      
iter:  26  17:13:11         -4.06  -151.968466    2      1      

Converged after 26 iterations.

Dipole moment: (0.631053, -0.448307, 0.125247) |e|*Ang

Energy contributions relative to reference atoms: (reference = -24663.074771)

Kinetic:       +120.362789
Potential:     -121.338227
External:        +0.000000
XC:            -153.660720
Entropy (-ST):   -0.445410
Local:           +2.890398
--------------------------
Free energy:   -152.191171
Extrapolated:  -151.968466

Fermi level: -4.87053

 Band  Eigenvalues  Occupancy
    0    -22.57074    2.00000
    1    -21.82493    2.00000
    2    -21.69661    2.00000
    3    -20.96641    2.00000
    4    -20.26142    2.00000
    5    -20.02119    2.00000
    6    -19.54126    2.00000
    7    -18.99901    2.00000
    8    -18.47027    2.00000
    9    -18.20213    2.00000
   10    -17.61859    2.00000
   11    -17.10449    2.00000
   12    -16.68733    2.00000
   13    -15.18655    2.00000
   14    -14.62487    2.00000
   15    -14.41494    2.00000
   16    -13.62991    2.00000
   17    -13.52270    2.00000
   18    -13.10148    2.00000
   19    -12.86603    2.00000
   20    -12.37150    2.00000
   21    -12.13191    2.00000
   22    -11.72693    2.00000
   23    -10.92649    2.00000
   24    -10.45555    2.00000
   25     -9.89229    2.00000
   26     -9.61331    2.00000
   27     -9.57456    2.00000
   28     -9.09541    2.00000
   29     -9.02849    2.00000
   30     -8.60787    2.00000
   31     -8.56791    2.00000
   32     -8.28461    2.00000
   33     -8.22500    2.00000
   34     -8.01511    2.00000
   35     -7.69052    2.00000
   36     -7.42743    2.00000
   37     -7.15019    2.00000
   38     -6.83249    2.00000
   39     -6.62778    2.00000
   40     -6.57690    2.00000
   41     -6.14949    1.99999
   42     -5.88703    1.99992
   43     -5.60495    1.99871
   44     -5.44745    1.99377
   45     -5.28919    1.97006
   46     -5.12935    1.86019
   47     -4.92351    1.25884
   48     -4.77367    0.55029
   49     -4.65600    0.20953
   50     -4.62298    0.15518
   51     -4.23374    0.00343
   52     -3.83563    0.00006
   53     -3.68854    0.00001
   54     -3.56406    0.00000
   55     -3.51362    0.00000
   56     -3.29570    0.00000
   57     -2.87812    0.00000
   58     -1.93095    0.00000
   59     -1.52052    0.00000
   60     -1.23343    0.00000
   61     -1.11778    0.00000
   62     -0.78410    0.00000
   63     -0.70726    0.00000
   64     -0.14393    0.00000
   65      0.14994    0.00000
   66      0.25722    0.00000
   67      0.80688    0.00000
   68      0.87078    0.00000
   69      1.39082    0.00000
   70      1.80961    0.00000
   71      2.59015    0.00000
   72      3.06189    0.00000
   73      3.14839    0.00000
   74      3.91529    0.00000
   75      4.07553    0.00000
   76      4.38923    0.00000
   77      4.51427    0.00000
   78      5.61373    0.00000
   79      6.14586    0.00000
   80      6.70192    0.00000
   81      6.95500    0.00000
   82      7.46930    0.00000
   83      7.49035    0.00000
   84      8.11468    0.00000
   85      8.32232    0.00000
   86      8.40586    0.00000
   87      8.66575    0.00000
   88      8.87253    0.00000
   89      9.07261    0.00000
   90      9.14946    0.00000
   91      9.30972    0.00000
   92      9.35623    0.00000
   93      9.56159    0.00000
   94      9.70207    0.00000
   95      9.77003    0.00000
   96      9.83277    0.00000
   97      9.95576    0.00000


Forces in eV/Ang:
  0 C     4.23048   -3.01909    4.91727
  1 C     1.19447    1.97949   -1.30888
  2 C     3.99540   -2.73781   -2.81144
  3 C     6.21096    2.46532    0.61013
  4 C    -4.53990   -0.92976   -0.85387
  5 C    -2.08535   -3.03008   -0.46156
  6 C    -7.18231    1.48602   -2.79021
  7 C    -7.00773   10.02295    4.86881
  8 C    11.22054  -16.53902   -5.86883
  9 C    -2.63047    0.93429    0.70952
 10 C    -1.66588    3.13432   -2.41260
 11 C     3.17209   -0.38304   -0.26903
 12 C    -6.21117    0.28663    3.13336
 13 C     2.63936    0.40808   -0.09991
 14 C     3.53858    1.63541    0.46071
 15 C     5.98587  -12.21450   -3.18883
 16 C     5.70661    1.92470    2.93465
 17 C    -4.29714   -2.55130    4.21094
 18 C     1.83284   -0.17829   -0.91803
 19 C   -21.29063   28.33798    5.28956
 20 C     0.23236    1.05162   -1.86467
 21 C    -1.50962    2.06382   -2.80435
 22 C     0.01018   -0.31672    0.94015
 23 C     8.39852  -13.86329   -2.39447

System changes: positions 

Initializing position-dependent things.

Density initialized from wave functions
           .--------------------------------------.  
          /|                                      |  
         / |                                      |  
        /  |                                      |  
       /   |                                      |  
      /    |                                      |  
     /     |                                      |  
    /      |                                      |  
   /       |    C                                 |  
  /        |              C   C   C               |  
 *         |     CC    C          CC              |  
 |         | C      C                             |  
 |         .---------C--C-----------C-------------.  
 |        /    C  C       C     C                /   
 |       /        C       C  C                  /    
 |      /            C C                       /     
 |     /                                      /      
 |    /                                      /       
 |   /                                      /        
 |  /                                      /         
 | /                                      /          
 |/                                      /           
 *--------------------------------------*            

Positions:
   0 C      9.922018    5.314562    3.953189
   1 C      9.522149    3.649909    4.422574
   2 C      6.063476    4.193625    4.679635
   3 C      7.983108    9.622235    5.573439
   4 C      4.804644    8.728763    5.329272
   5 C      6.901887    8.976661    5.435313
   6 C      4.406235    5.592272    4.261757
   7 C      3.016004   11.966933    5.029947
   8 C     11.606164    8.993237    5.445647
   9 C      7.801256    6.306300    4.965937
  10 C      4.197936    9.843624    5.046715
  11 C      9.273684    9.998674    5.652006
  12 C      7.222913    3.792568    4.084028
  13 C      2.943360    7.575371    4.954534
  14 C      5.953764    7.950605    5.268296
  15 C     11.574533    7.811935    5.806773
  16 C      5.489073    5.441132    4.922381
  17 C     12.438510    7.260423    4.584857
  18 C      8.351828    3.141597    4.390341
  19 C     11.075388    9.957378    5.695600
  20 C      8.941496    5.820560    4.809869
  21 C     11.349088    5.515196    4.690689
  22 C      6.426277    6.607115    5.076765
  23 C      3.654617   11.074676    4.535481

Unit cell:
           periodic     x           y           z      points  spacing
  1. axis:    yes   16.000000    0.000000    0.000000    80     0.2000
  2. axis:    yes    0.000000   16.000000    0.000000    80     0.2000
  3. axis:    yes    0.000000    0.000000   10.000000    48     0.2083

Effective grid spacing dv^(1/3) = 0.2027

                     log10-error:    total        iterations:
           time      wfs    density  energy       fermi  poisson
iter:   1  17:13:12          +inf  -154.711304    3      5      
iter:   2  17:13:13         -1.96  -154.676987    2      2      
iter:   3  17:13:13         -2.11  -154.665278    3      2      
iter:   4  17:13:14         -2.20  -154.652137    3      2      
iter:   5  17:13:14         -2.32  -154.645711    3      2      
iter:   6  17:13:15         -2.54  -154.641799    3      2      
iter:   7  17:13:15         -2.75  -154.640097    3      2      
iter:   8  17:13:16         -2.93  -154.642525    2      1      
iter:   9  17:13:16         -3.03  -154.637515    2      2      
iter:  10  17:13:17         -3.18  -154.638185    2      1      
iter:  11  17:13:17         -3.29  -154.637932    2      1      
iter:  12  17:13:18         -3.40  -154.638823    2      1      
iter:  13  17:13:18         -3.55  -154.637336    2      1      
iter:  14  17:13:18         -3.64  -154.635105    2      1      
iter:  15  17:13:19         -3.87  -154.637007    2      1      
iter:  16  17:13:19         -4.01  -154.637117    2      1      

Converged after 16 iterations.

Dipole moment: (0.619654, -0.420519, 0.125776) |e|*Ang

Energy contributions relative to reference atoms: (reference = -24663.074771)

Kinetic:       +105.591461
Potential:     -111.242705
External:        +0.000000
XC:            -151.591927
Entropy (-ST):   -0.422964
Local:           +2.817537
--------------------------
Free energy:   -154.848599
Extrapolated:  -154.637117

Fermi level: -4.85993

 Band  Eigenvalues  Occupancy
    0    -22.54829    2.00000
    1    -21.70398    2.00000
    2    -21.64628    2.00000
    3    -20.92500    2.00000
    4    -20.24481    2.00000
    5    -19.99024    2.00000
    6    -19.51986    2.00000
    7    -18.96582    2.00000
    8    -18.46532    2.00000
    9    -18.16871    2.00000
   10    -17.61882    2.00000
   11    -17.09526    2.00000
   12    -16.64319    2.00000
   13    -15.12752    2.00000
   14    -14.63963    2.00000
   15    -14.45458    2.00000
   16    -13.62128    2.00000
   17    -13.54104    2.00000
   18    -13.12629    2.00000
   19    -12.88025    2.00000
   20    -12.35145    2.00000
   21    -12.12634    2.00000
   22    -11.72571    2.00000
   23    -10.93525    2.00000
   24    -10.43872    2.00000
   25     -9.83950    2.00000
   26     -9.59325    2.00000
   27     -9.47403    2.00000
   28     -9.05628    2.00000
   29     -8.98891    2.00000
   30     -8.58943    2.00000
   31     -8.56481    2.00000
   32     -8.28953    2.00000
   33     -8.20352    2.00000
   34     -7.99382    2.00000
   35     -7.64399    2.00000
   36     -7.41137    2.00000
   37     -7.14163    2.00000
   38     -6.80501    2.00000
   39     -6.60437    2.00000
   40     -6.53440    2.00000
   41     -6.15437    2.00000
   42     -5.89621    1.99994
   43     -5.62368    1.99904
   44     -5.46895    1.99548
   45     -5.31818    1.97975
   46     -5.14278    1.88839
   47     -4.90653    1.22888
   48     -4.77674    0.60649
   49     -4.62235    0.17008
   50     -4.59219    0.12864
   51     -4.21789    0.00325
   52     -3.80851    0.00005
   53     -3.64227    0.00001
   54     -3.51459    0.00000
   55     -3.48660    0.00000
   56     -3.26612    0.00000
   57     -2.84209    0.00000
   58     -1.85389    0.00000
   59     -1.49716    0.00000
   60     -1.21459    0.00000
   61     -1.13163    0.00000
   62     -0.82544    0.00000
   63     -0.71801    0.00000
   64     -0.17557    0.00000
   65      0.10143    0.00000
   66      0.21497    0.00000
   67      0.78978    0.00000
   68      0.81105    0.00000
   69      1.31129    0.00000
   70      1.71750    0.00000
   71      2.55012    0.00000
   72      2.87518    0.00000
   73      3.21696    0.00000
   74      3.82963    0.00000
   75      4.06820    0.00000
   76      4.26673    0.00000
   77      4.64182    0.00000
   78      5.67379    0.00000
   79      6.20269    0.00000
   80      6.71363    0.00000
   81      6.95837    0.00000
   82      7.47706    0.00000
   83      7.49035    0.00000
   84      8.13940    0.00000
   85      8.32841    0.00000
   86      8.42501    0.00000
   87      8.68620    0.00000
   88      8.87834    0.00000
   89      9.09210    0.00000
   90      9.16574    0.00000
   91      9.33200    0.00000
   92      9.39661    0.00000
   93      9.60948    0.00000
   94      9.74082    0.00000
   95      9.76616    0.00000
   96      9.81304    0.00000
   97      9.97726    0.00000


Forces in eV/Ang:
  0 C     4.20276   -2.99215    4.90156
  1 C     1.08198    1.93277   -1.31434
  2 C     3.55443   -2.31940   -2.57984
  3 C     5.13549    2.06342    0.51014
  4 C    -4.39552   -1.22006   -0.84135
  5 C    -1.10697   -2.34675   -0.30929
  6 C    -6.20302    1.38014   -2.15286
  7 C    -5.05030    7.29938    3.34859
  8 C     5.83702   -6.52578   -3.50456
  9 C    -2.17151    0.79213    0.65051
 10 C    -1.46290    2.88172   -2.29147
 11 C     3.73624   -0.50413   -0.33606
 12 C    -5.51708   -0.05398    3.02678
 13 C     2.72343    0.39666   -0.09440
 14 C     3.07451    1.59113    0.41483
 15 C     5.72244  -11.70745   -2.90312
 16 C     4.65472    1.80209    2.28042
 17 C    -4.09696   -2.66738    3.94016
 18 C     1.66021    0.00706   -0.99339
 19 C   -16.14385   18.12083    2.94140
 20 C    -0.03525    1.16147   -1.79936
 21 C    -1.53172    1.94272   -2.76279
 22 C    -0.02785   -0.31200    0.94675
 23 C     6.27400  -10.72440   -1.02578

System changes: positions 

Initializing position-dependent things.

Density initialized from wave functions
           .--------------------------------------.  
          /|                                      |  
         / |                                      |  
        /  |                                      |  
       /   |                                      |  
      /    |                                      |  
     /     |                                      |  
    /      |                                      |  
   /       |    C                                 |  
  /        |               C  C   C               |  
 *         |     CC    C          CC              |  
 |         | C       C                            |  
 |         .---------C--C-----------C-------------.  
 |        /    C  C       C     C                /   
 |       /        C        C C                  /    
 |      /            C C                       /     
 |     /                                      /      
 |    /                                      /       
 |   /                                      /        
 |  /                                      /         
 | /                                      /          
 |/                                      /           
 *--------------------------------------*            

Positions:
   0 C      9.935302    5.305134    3.968751
   1 C      9.525132    3.655877    4.418361
   2 C      6.072979    4.187966    4.672370
   3 C      7.995020    9.627147    5.574651
   4 C      4.791229    8.723669    5.326642
   5 C      6.902416    8.972013    5.434958
   6 C      4.390520    5.596233    4.257536
   7 C      3.008021   11.978909    5.034318
   8 C     11.602445    9.013963    5.444279
   9 C      7.796236    6.308236    4.967766
  10 C      4.194114    9.851764    5.039912
  11 C      9.287936    9.996564    5.650656
  12 C      7.208202    3.790983    4.093236
  13 C      2.952391    7.576588    4.954256
  14 C      5.961642    7.955494    5.269428
  15 C     11.591685    7.776712    5.798702
  16 C      5.499550    5.446369    4.926938
  17 C     12.426278    7.251437    4.596296
  18 C      8.356405    3.142388    4.386861
  19 C     11.045264    9.972775    5.695239
  20 C      8.940274    5.824719    4.804403
  21 C     11.344113    5.520887    4.682053
  22 C      6.426031    6.606140    5.079811
  23 C      3.665809   11.053503    4.537888

Unit cell:
           periodic     x           y           z      points  spacing
  1. axis:    yes   16.000000    0.000000    0.000000    80     0.2000
  2. axis:    yes    0.000000   16.000000    0.000000    80     0.2000
  3. axis:    yes    0.000000    0.000000   10.000000    48     0.2083

Effective grid spacing dv^(1/3) = 0.2027

                     log10-error:    total        iterations:
           time      wfs    density  energy       fermi  poisson
iter:   1  17:13:21          +inf  -157.237078    3      5      
iter:   2  17:13:22         -1.75  -157.116976    3      2      
iter:   3  17:13:22         -1.94  -157.093117    3      2      
iter:   4  17:13:23         -2.06  -157.062142    3      2      
iter:   5  17:13:23         -2.24  -157.055268    2      2      
iter:   6  17:13:23         -2.37  -157.050594    2      2      
iter:   7  17:13:24         -2.52  -157.049802    2      2      
iter:   8  17:13:24         -2.68  -157.047870    3      2      
iter:   9  17:13:25         -2.90  -157.048605    2      1      
iter:  10  17:13:25         -3.01  -157.047750    2      1      
iter:  11  17:13:26         -3.14  -157.046719    2      2      
iter:  12  17:13:26         -3.36  -157.046809    2      1      
iter:  13  17:13:27         -3.43  -157.046702    2      1      
iter:  14  17:13:27         -3.57  -157.046482    2      1      
iter:  15  17:13:28         -3.64  -157.045871    2      1      
iter:  16  17:13:28         -3.91  -157.046356    2      1      
iter:  17  17:13:29         -4.12  -157.046746    2      1      

Converged after 17 iterations.

Dipole moment: (0.574431, -0.327238, 0.127791) |e|*Ang

Energy contributions relative to reference atoms: (reference = -24663.074771)

Kinetic:        +93.441307
Potential:     -102.796997
External:        +0.000000
XC:            -150.342633
Entropy (-ST):   -0.366250
Local:           +2.834702
--------------------------
Free energy:   -157.229871
Extrapolated:  -157.046746

Fermi level: -4.83404

 Band  Eigenvalues  Occupancy
    0    -22.49606    2.00000
    1    -21.55418    2.00000
    2    -21.44254    2.00000
    3    -20.87100    2.00000
    4    -20.21889    2.00000
    5    -19.94259    2.00000
    6    -19.48930    2.00000
    7    -18.94135    2.00000
    8    -18.45028    2.00000
    9    -18.13464    2.00000
   10    -17.62654    2.00000
   11    -17.10032    2.00000
   12    -16.58353    2.00000
   13    -15.02723    2.00000
   14    -14.63479    2.00000
   15    -14.55360    2.00000
   16    -13.61251    2.00000
   17    -13.54787    2.00000
   18    -13.11943    2.00000
   19    -12.89931    2.00000
   20    -12.32046    2.00000
   21    -12.24498    2.00000
   22    -11.74480    2.00000
   23    -10.98200    2.00000
   24    -10.40676    2.00000
   25     -9.77489    2.00000
   26     -9.56550    2.00000
   27     -9.37255    2.00000
   28     -9.00041    2.00000
   29     -8.92673    2.00000
   30     -8.57018    2.00000
   31     -8.56030    2.00000
   32     -8.30114    2.00000
   33     -8.18712    2.00000
   34     -7.96859    2.00000
   35     -7.58671    2.00000
   36     -7.38173    2.00000
   37     -7.11717    2.00000
   38     -6.76963    2.00000
   39     -6.62571    2.00000
   40     -6.52380    2.00000
   41     -6.19100    2.00000
   42     -5.91686    1.99996
   43     -5.67298    1.99955
   44     -5.49676    1.99736
   45     -5.39551    1.99274
   46     -5.17282    1.93464
   47     -4.89868    1.31236
   48     -4.73835    0.55498
   49     -4.55063    0.11102
   50     -4.53308    0.09398
   51     -4.19555    0.00337
   52     -3.75135    0.00004
   53     -3.54914    0.00001
   54     -3.46996    0.00000
   55     -3.31555    0.00000
   56     -3.20071    0.00000
   57     -2.77311    0.00000
   58     -1.74030    0.00000
   59     -1.44854    0.00000
   60     -1.17989    0.00000
   61     -1.07765    0.00000
   62     -0.84170    0.00000
   63     -0.60474    0.00000
   64     -0.21773    0.00000
   65      0.03391    0.00000
   66      0.21317    0.00000
   67      0.70420    0.00000
   68      0.84382    0.00000
   69      1.31772    0.00000
   70      1.72189    0.00000
   71      2.50214    0.00000
   72      2.74441    0.00000
   73      3.40287    0.00000
   74      3.81765    0.00000
   75      4.11853    0.00000
   76      4.55650    0.00000
   77      5.16546    0.00000
   78      5.78206    0.00000
   79      6.27288    0.00000
   80      6.76238    0.00000
   81      6.97659    0.00000
   82      7.48645    0.00000
   83      7.50040    0.00000
   84      8.16328    0.00000
   85      8.34114    0.00000
   86      8.47783    0.00000
   87      8.73522    0.00000
   88      8.85821    0.00000
   89      9.14453    0.00000
   90      9.18282    0.00000
   91      9.34741    0.00000
   92      9.45438    0.00000
   93      9.60974    0.00000
   94      9.76632    0.00000
   95      9.79864    0.00000
   96      9.84736    0.00000
   97      9.97048    0.00000


Forces in eV/Ang:
  0 C     3.86784   -2.92349    4.83077
  1 C     0.87643    1.89858   -1.34921
  2 C     2.53209   -1.42225   -2.02819
  3 C     4.49877    1.58807    0.37114
  4 C    -4.28502   -1.47035   -0.88381
  5 C    -0.03344   -1.56594   -0.16074
  6 C    -4.71181    1.28806   -1.16512
  7 C    -3.21387    4.74234    1.92512
  8 C     5.44352   -8.48002   -2.12299
  9 C    -1.53911    0.60993    0.57035
 10 C    -0.94819    1.98116   -1.93625
 11 C     3.64368   -0.45299   -0.25961
 12 C    -4.02922   -0.72003    2.67848
 13 C     2.91635    0.41781   -0.07655
 14 C     2.40433    1.65217    0.36250
 15 C     5.77415   -7.67924   -4.03710
 16 C     3.02672    1.43456    1.26334
 17 C    -4.14487   -2.55630    4.04786
 18 C     1.42971    0.36970   -1.08827
 19 C   -15.91190   15.90422    2.51643
 20 C    -0.24041    1.25422   -1.76589
 21 C    -1.49761    1.82264   -2.65600
 22 C    -0.04327   -0.26688    0.91624
 23 C     4.09126   -7.39016    0.09987

System changes: positions 

Initializing position-dependent things.

Density initialized from wave functions
           .--------------------------------------.  
          /|                                      |  
         / |                                      |  
        /  |                                      |  
       /   |                                      |  
      /    |                                      |  
     /     |                                      |  
    /      |                                      |  
   /       |    C                                 |  
  /        |               C  C   C               |  
 *         |     CC    C          CC              |  
 |         | C       C                            |  
 |         .---------C--C-----------C-------------.  
 |        /    C  C       C     C                /   
 |       /        C        C C                  /    
 |      /            C C                       /     
 |     /                                      /      
 |    /                                      /       
 |   /                                      /        
 |  /                                      /         
 | /                                      /          
 |/                                      /           
 *--------------------------------------*            

Positions:
   0 C      9.948875    5.294477    3.986575
   1 C      9.527478    3.662702    4.413218
   2 C      6.078304    4.186410    4.666998
   3 C      8.005986    9.630354    5.575312
   4 C      4.776060    8.716419    5.323293
   5 C      6.908737    8.970735    5.435319
   6 C      4.380320    5.600403    4.258041
   7 C      3.008198   11.979670    5.032054
   8 C     11.599920    9.018665    5.449152
   9 C      7.793804    6.309518    4.969473
  10 C      4.192576    9.856077    5.033984
  11 C      9.303640    9.994495    5.649587
  12 C      7.199381    3.785380    4.102013
  13 C      2.964072    7.578151    4.954033
  14 C      5.967199    7.961626    5.270476
  15 C     11.612302    7.759298    5.782192
  16 C      5.502846    5.450389    4.926664
  17 C     12.411499    7.241667    4.610562
  18 C      8.360516    3.145355    4.382271
  19 C     11.007341    9.985445    5.694089
  20 C      8.937815    5.830065    4.798148
  21 C     11.338505    5.526929    4.672543
  22 C      6.425679    6.605266    5.083192
  23 C      3.667437   11.046320    4.546418

Unit cell:
           periodic     x           y           z      points  spacing
  1. axis:    yes   16.000000    0.000000    0.000000    80     0.2000
  2. axis:    yes    0.000000   16.000000    0.000000    80     0.2000
  3. axis:    yes    0.000000    0.000000   10.000000    48     0.2083

Effective grid spacing dv^(1/3) = 0.2027

                     log10-error:    total        iterations:
           time      wfs    density  energy       fermi  poisson
iter:   1  17:13:30          +inf  -159.182873    3      5      
iter:   2  17:13:31         -1.74  -159.016029    3      2      
iter:   3  17:13:31         -2.02  -158.989714    3      2      
iter:   4  17:13:32         -2.18  -158.969040    2      2      
iter:   5  17:13:32         -2.34  -158.961986    2      2      
iter:   6  17:13:33         -2.51  -158.959676    2      2      
iter:   7  17:13:33         -2.62  -158.959297    2      2      
iter:   8  17:13:34         -2.79  -158.958667    2      2      
iter:   9  17:13:34         -2.98  -158.956445    2      1      
iter:  10  17:13:34         -3.12  -158.956172    2      1      
iter:  11  17:13:35         -3.25  -158.955725    2      1      
iter:  12  17:13:35         -3.47  -158.957593    2      1      
iter:  13  17:13:36         -3.54  -158.958496    2      1      
iter:  14  17:13:36         -3.68  -158.958217    2      1      
iter:  15  17:13:37         -3.83  -158.958403    2      1      
iter:  16  17:13:37         -4.03  -158.958608    2      1      

Converged after 16 iterations.

Dipole moment: (0.602707, -0.282000, 0.135570) |e|*Ang

Energy contributions relative to reference atoms: (reference = -24663.074771)

Kinetic:        +88.595934
Potential:      -99.726681
External:        +0.000000
XC:            -150.504515
Entropy (-ST):   -0.334832
Local:           +2.844069
--------------------------
Free energy:   -159.126024
Extrapolated:  -158.958608

Fermi level: -4.81398

 Band  Eigenvalues  Occupancy
    0    -22.43478    2.00000
    1    -21.48687    2.00000
    2    -21.36269    2.00000
    3    -20.85304    2.00000
    4    -20.21562    2.00000
    5    -19.91677    2.00000
    6    -19.47844    2.00000
    7    -18.95132    2.00000
    8    -18.54351    2.00000
    9    -18.14799    2.00000
   10    -17.62901    2.00000
   11    -17.11966    2.00000
   12    -16.54911    2.00000
   13    -14.98461    2.00000
   14    -14.68247    2.00000
   15    -14.63370    2.00000
   16    -13.61413    2.00000
   17    -13.55660    2.00000
   18    -13.21083    2.00000
   19    -12.92592    2.00000
   20    -12.38246    2.00000
   21    -12.31087    2.00000
   22    -11.75469    2.00000
   23    -11.04912    2.00000
   24    -10.36993    2.00000
   25     -9.79187    2.00000
   26     -9.54791    2.00000
   27     -9.36124    2.00000
   28     -8.97719    2.00000
   29     -8.89489    2.00000
   30     -8.59870    2.00000
   31     -8.55785    2.00000
   32     -8.31973    2.00000
   33     -8.18322    2.00000
   34     -7.98506    2.00000
   35     -7.54408    2.00000
   36     -7.35716    2.00000
   37     -7.09782    2.00000
   38     -6.75675    2.00000
   39     -6.69028    2.00000
   40     -6.53682    2.00000
   41     -6.23541    2.00000
   42     -5.92926    1.99997
   43     -5.68000    1.99965
   44     -5.52524    1.99837
   45     -5.42870    1.99573
   46     -5.18075    1.95020
   47     -4.88681    1.34889
   48     -4.72170    0.56876
   49     -4.50060    0.08347
   50     -4.45063    0.05149
   51     -4.17721    0.00343
   52     -3.69431    0.00003
   53     -3.45832    0.00000
   54     -3.43033    0.00000
   55     -3.15446    0.00000
   56     -3.14354    0.00000
   57     -2.70761    0.00000
   58     -1.63086    0.00000
   59     -1.38301    0.00000
   60     -1.16072    0.00000
   61     -0.95901    0.00000
   62     -0.79764    0.00000
   63     -0.48914    0.00000
   64     -0.20903    0.00000
   65     -0.00970    0.00000
   66      0.24901    0.00000
   67      0.70935    0.00000
   68      0.92695    0.00000
   69      1.36777    0.00000
   70      1.77076    0.00000
   71      2.51807    0.00000
   72      2.79188    0.00000
   73      3.61389    0.00000
   74      3.86285    0.00000
   75      4.17350    0.00000
   76      4.90500    0.00000
   77      5.68801    0.00000
   78      5.87964    0.00000
   79      6.28940    0.00000
   80      6.80896    0.00000
   81      7.01070    0.00000
   82      7.50083    0.00000
   83      7.53221    0.00000
   84      8.17903    0.00000
   85      8.37081    0.00000
   86      8.51926    0.00000
   87      8.75837    0.00000
   88      8.83450    0.00000
   89      9.18601    0.00000
   90      9.20763    0.00000
   91      9.37290    0.00000
   92      9.49915    0.00000
   93      9.62756    0.00000
   94      9.74649    0.00000
   95      9.82281    0.00000
   96      9.89088    0.00000
   97      9.96227    0.00000


Forces in eV/Ang:
  0 C     3.49113   -2.83323    4.74598
  1 C     0.77405    1.85819   -1.35808
  2 C     1.89576   -0.94412   -1.65298
  3 C     4.13519    1.38054    0.29506
  4 C    -4.14827   -1.67892   -0.93426
  5 C     0.52810   -1.15952   -0.08707
  6 C    -4.17290    1.28234   -0.76638
  7 C    -3.10727    4.62818    1.78712
  8 C     4.10326   -6.47434   -0.94619
  9 C    -1.30609    0.54859    0.54407
 10 C    -0.68879    1.45490   -1.68755
 11 C     3.72350   -0.46106   -0.23650
 12 C    -3.22147   -1.01568    2.37487
 13 C     3.05631    0.42521   -0.08312
 14 C     1.97648    1.58806    0.30650
 15 C     5.59742   -6.08491   -4.13888
 16 C     2.41610    1.18439    0.84793
 17 C    -3.99619   -2.70076    3.71531
 18 C     1.38971    0.51216   -1.07870
 19 C   -14.76992   12.47934    1.72774
 20 C    -0.13910    1.21528   -1.79219
 21 C    -1.34284    1.67288   -2.43385
 22 C    -0.08493   -0.06424    0.89581
 23 C     3.80156   -6.83283    0.00484

System changes: positions 

Initializing position-dependent things.

Density initialized from wave functions
           .--------------------------------------.  
          /|                                      |  
         / |                                      |  
        /  |                                      |  
       /   |                                      |  
      /    |                                      |  
     /     |                                      |  
    /      |                                      |  
   /       |    C                                 |  
  /        |               C  C   C               |  
 *         |     CC    C          CC              |  
 |         | C       C                            |  
 |         .---------C--C-----------C-------------.  
 |        /    C  C       C     C                /   
 |       /        C        C C                  /    
 |      /            C C                       /     
 |     /                                      /      
 |    /                                      /       
 |   /                                      /        
 |  /                                      /         
 | /                                      /          
 |/                                      /           
 *--------------------------------------*            

Positions:
   0 C      9.960536    5.283782    4.004925
   1 C      9.529496    3.669737    4.407712
   2 C      6.080339    4.187221    4.663516
   3 C      8.016998    9.633140    5.575675
   4 C      4.760716    8.707680    5.319329
   5 C      6.917531    8.970910    5.435926
   6 C      4.370968    5.605052    4.259940
   7 C      3.004355   11.986374    5.032314
   8 C     11.595415    9.025424    5.458931
   9 C      7.791817    6.310774    4.971242
  10 C      4.192292    9.857526    5.029220
  11 C      9.320157    9.992381    5.648685
  12 C      7.194208    3.778130    4.109321
  13 C      2.977349    7.579876    4.953717
  14 C      5.970936    7.967636    5.271249
  15 C     11.633164    7.749536    5.764325
  16 C      5.504499    5.453123    4.924927
  17 C     12.396718    7.230163    4.623332
  18 C      8.365053    3.149059    4.377677
  19 C     10.967698    9.989482    5.690606
  20 C      8.936671    5.835164    4.791135
  21 C     11.333830    5.532423    4.664104
  22 C      6.425035    6.605970    5.086636
  23 C      3.672269   11.035073    4.551411

Unit cell:
           periodic     x           y           z      points  spacing
  1. axis:    yes   16.000000    0.000000    0.000000    80     0.2000
  2. axis:    yes    0.000000   16.000000    0.000000    80     0.2000
  3. axis:    yes    0.000000    0.000000   10.000000    48     0.2083

Effective grid spacing dv^(1/3) = 0.2027

                     log10-error:    total        iterations:
           time      wfs    density  energy       fermi  poisson
iter:   1  17:13:39          +inf  -160.929320    3      5      
iter:   2  17:13:39         -1.70  -160.706625    3      2      
iter:   3  17:13:40         -2.00  -160.668827    3      2      
iter:   4  17:13:40         -2.18  -160.643221    3      2      
iter:   5  17:13:41         -2.38  -160.638599    2      2      
iter:   6  17:13:41         -2.56  -160.637029    1      2      
iter:   7  17:13:42         -2.65  -160.635926    2      2      
iter:   8  17:13:42         -2.86  -160.635814    2      2      
iter:   9  17:13:43         -3.02  -160.632920    2      1      
iter:  10  17:13:43         -3.17  -160.633422    2      1      
iter:  11  17:13:43         -3.31  -160.633376    2      1      
iter:  12  17:13:44         -3.53  -160.635062    2      1      
iter:  13  17:13:44         -3.59  -160.635825    2      1      
iter:  14  17:13:45         -3.71  -160.635826    2      1      
iter:  15  17:13:45         -3.85  -160.636269    2      1      
iter:  16  17:13:46         -4.08  -160.636056    1      1      

Converged after 16 iterations.

Dipole moment: (0.617142, -0.212957, 0.147841) |e|*Ang

Energy contributions relative to reference atoms: (reference = -24663.074771)

Kinetic:        +85.549637
Potential:      -97.970211
External:        +0.000000
XC:            -150.911448
Entropy (-ST):   -0.310293
Local:           +2.851112
--------------------------
Free energy:   -160.791202
Extrapolated:  -160.636056

Fermi level: -4.78624

 Band  Eigenvalues  Occupancy
    0    -22.35943    2.00000
    1    -21.41843    2.00000
    2    -21.33846    2.00000
    3    -20.84119    2.00000
    4    -20.21026    2.00000
    5    -19.88750    2.00000
    6    -19.45525    2.00000
    7    -18.95479    2.00000
    8    -18.63489    2.00000
    9    -18.13079    2.00000
   10    -17.60787    2.00000
   11    -17.12060    2.00000
   12    -16.50556    2.00000
   13    -14.96385    2.00000
   14    -14.73355    2.00000
   15    -14.69868    2.00000
   16    -13.60237    2.00000
   17    -13.57114    2.00000
   18    -13.34804    2.00000
   19    -12.92382    2.00000
   20    -12.52051    2.00000
   21    -12.29765    2.00000
   22    -11.74175    2.00000
   23    -11.11242    2.00000
   24    -10.32010    2.00000
   25     -9.81687    2.00000
   26     -9.52103    2.00000
   27     -9.38178    2.00000
   28     -8.95104    2.00000
   29     -8.87087    2.00000
   30     -8.62290    2.00000
   31     -8.54870    2.00000
   32     -8.32841    2.00000
   33     -8.17096    2.00000
   34     -8.00589    2.00000
   35     -7.51439    2.00000
   36     -7.31573    2.00000
   37     -7.07581    2.00000
   38     -6.76746    2.00000
   39     -6.71066    2.00000
   40     -6.53797    2.00000
   41     -6.28071    2.00000
   42     -5.94074    1.99998
   43     -5.69048    1.99976
   44     -5.53728    1.99891
   45     -5.46058    1.99765
   46     -5.17827    1.96110
   47     -4.86401    1.37038
   48     -4.69739    0.58284
   49     -4.44643    0.06471
   50     -4.33405    0.02150
   51     -4.14132    0.00316
   52     -3.63144    0.00002
   53     -3.41583    0.00000
   54     -3.33265    0.00000
   55     -3.09269    0.00000
   56     -2.95850    0.00000
   57     -2.63206    0.00000
   58     -1.55365    0.00000
   59     -1.30723    0.00000
   60     -1.14936    0.00000
   61     -0.84601    0.00000
   62     -0.74818    0.00000
   63     -0.35817    0.00000
   64     -0.18804    0.00000
   65     -0.03554    0.00000
   66      0.28809    0.00000
   67      0.73349    0.00000
   68      1.00322    0.00000
   69      1.45630    0.00000
   70      1.86157    0.00000
   71      2.51809    0.00000
   72      2.79883    0.00000
   73      3.84797    0.00000
   74      4.04855    0.00000
   75      4.26633    0.00000
   76      5.21188    0.00000
   77      5.88104    0.00000
   78      6.23901    0.00000
   79      6.31816    0.00000
   80      6.86384    0.00000
   81      7.07888    0.00000
   82      7.53305    0.00000
   83      7.61100    0.00000
   84      8.20820    0.00000
   85      8.41491    0.00000
   86      8.57383    0.00000
   87      8.76883    0.00000
   88      8.85065    0.00000
   89      9.22025    0.00000
   90      9.25026    0.00000
   91      9.41270    0.00000
   92      9.54279    0.00000
   93      9.64940    0.00000
   94      9.75886    0.00000
   95      9.85578    0.00000
   96      9.92226    0.00000
   97      9.96483    0.00000


Forces in eV/Ang:
  0 C     3.18001   -2.76941    4.57222
  1 C     0.75809    1.85360   -1.36994
  2 C     1.62864   -0.76897   -1.45863
  3 C     3.93129    1.21457    0.23679
  4 C    -3.98082   -2.00065   -0.96798
  5 C     0.83367   -0.92391   -0.05919
  6 C    -3.81812    1.30421   -0.49289
  7 C    -2.36508    3.59239    1.23583
  8 C     3.58039   -5.50871   -0.24042
  9 C    -1.07185    0.47605    0.51246
 10 C    -0.50337    1.04965   -1.47473
 11 C     3.67348   -0.46538   -0.20030
 12 C    -2.86021   -1.09686    2.20106
 13 C     3.20467    0.47151   -0.07119
 14 C     1.67879    1.56956    0.27757
 15 C     5.27407   -4.82783   -3.93099
 16 C     1.98802    1.10557    0.58371
 17 C    -3.76048   -2.93424    3.20388
 18 C     1.33893    0.54312   -1.04395
 19 C   -14.25194   10.49472    1.27531
 20 C    -0.15829    1.21729   -1.75565
 21 C    -1.13631    1.60442   -2.21115
 22 C    -0.10430    0.08524    0.86715
 23 C     2.85968   -5.29972    0.33812

System changes: positions 

Initializing position-dependent things.

Density initialized from wave functions
           .--------------------------------------.  
          /|                                      |  
         / |                                      |  
        /  |                                      |  
       /   |                                      |  
      /    |                                      |  
     /     |                                      |  
    /      |                                      |  
   /       |    C                                 |  
  /        |               C  C   C               |  
 *         |     CC    C          CC              |  
 |         | C       C                            |  
 |         .---------C--C-----------C-------------.  
 |        /    C  C       C     C                /   
 |       /        C        C C                  /    
 |      /            C C                       /     
 |     /                                      /      
 |    /                                      /       
 |   /                                      /        
 |  /                                      /         
 | /                                      /          
 |/                                      /           
 *--------------------------------------*            

Positions:
   0 C      9.970044    5.273755    4.021364
   1 C      9.531818    3.676649    4.402338
   2 C      6.082542    4.187359    4.660429
   3 C      8.028058    9.635602    5.575878
   4 C      4.746902    8.697195    5.315307
   5 C      6.925770    8.971023    5.436340
   6 C      4.361547    5.609966    4.261831
   7 C      3.003122   11.989329    5.030934
   8 C     11.593067    9.032465    5.469326
   9 C      7.790449    6.311784    4.972862
  10 C      4.192459    9.857454    5.025589
  11 C      9.335267    9.990334    5.648053
  12 C      7.188740    3.771968    4.115823
  13 C      2.991013    7.581931    4.953498
  14 C      5.973761    7.973335    5.271925
  15 C     11.650855    7.743276    5.750332
  16 C      5.506151    5.456011    4.923353
  17 C     12.384214    7.217076    4.631652
  18 C      8.369494    3.152087    4.373714
  19 C     10.927940    9.991540    5.686729
  20 C      8.935734    5.839963    4.784612
  21 C     11.330908    5.537599    4.657437
  22 C      6.424348    6.607640    5.089778
  23 C      3.673528   11.030175    4.556774

Unit cell:
           periodic     x           y           z      points  spacing
  1. axis:    yes   16.000000    0.000000    0.000000    80     0.2000
  2. axis:    yes    0.000000   16.000000    0.000000    80     0.2000
  3. axis:    yes    0.000000    0.000000   10.000000    48     0.2083

Effective grid spacing dv^(1/3) = 0.2027

                     log10-error:    total        iterations:
           time      wfs    density  energy       fermi  poisson
iter:   1  17:13:47          +inf  -162.281342    3      5      
iter:   2  17:13:48         -1.76  -162.098094    3      2      
iter:   3  17:13:48         -2.06  -162.067663    2      2      
iter:   4  17:13:49         -2.23  -162.044722    2      2      
iter:   5  17:13:49         -2.46  -162.041417    2      2      
iter:   6  17:13:50         -2.65  -162.036881    2      1      
iter:   7  17:13:50         -2.73  -162.039757    2      2      
iter:   8  17:13:51         -2.96  -162.038395    2      1      
iter:   9  17:13:51         -3.05  -162.040093    2      2      
iter:  10  17:13:51         -3.26  -162.038288    2      1      
iter:  11  17:13:52         -3.41  -162.038648    2      1      
iter:  12  17:13:52         -3.57  -162.039764    2      1      
iter:  13  17:13:53         -3.71  -162.040482    2      1      
iter:  14  17:13:53         -3.81  -162.040642    2      1      
iter:  15  17:13:54         -3.98  -162.040393    2      1      
iter:  16  17:13:54         -4.21  -162.040503    2      1      

Converged after 16 iterations.

Dipole moment: (0.644623, -0.167424, 0.158204) |e|*Ang

Energy contributions relative to reference atoms: (reference = -24663.074771)

Kinetic:        +83.559255
Potential:      -96.936518
External:        +0.000000
XC:            -151.378690
Entropy (-ST):   -0.296197
Local:           +2.863548
--------------------------
Free energy:   -162.188601
Extrapolated:  -162.040503

Fermi level: -4.77347

 Band  Eigenvalues  Occupancy
    0    -22.29990    2.00000
    1    -21.36399    2.00000
    2    -21.32711    2.00000
    3    -20.82836    2.00000
    4    -20.20503    2.00000
    5    -19.86660    2.00000
    6    -19.43924    2.00000
    7    -18.96322    2.00000
    8    -18.70189    2.00000
    9    -18.12500    2.00000
   10    -17.59899    2.00000
   11    -17.12377    2.00000
   12    -16.47626    2.00000
   13    -14.95597    2.00000
   14    -14.79527    2.00000
   15    -14.74471    2.00000
   16    -13.61916    2.00000
   17    -13.59947    2.00000
   18    -13.46399    2.00000
   19    -12.93751    2.00000
   20    -12.62280    2.00000
   21    -12.28670    2.00000
   22    -11.73059    2.00000
   23    -11.17082    2.00000
   24    -10.28173    2.00000
   25     -9.84195    2.00000
   26     -9.49997    2.00000
   27     -9.40848    2.00000
   28     -8.92697    2.00000
   29     -8.85911    2.00000
   30     -8.64801    2.00000
   31     -8.54022    2.00000
   32     -8.33576    2.00000
   33     -8.16035    2.00000
   34     -8.03311    2.00000
   35     -7.50790    2.00000
   36     -7.27237    2.00000
   37     -7.06767    2.00000
   38     -6.81349    2.00000
   39     -6.70172    2.00000
   40     -6.54324    2.00000
   41     -6.32436    2.00000
   42     -5.94813    1.99998
   43     -5.69172    1.99979
   44     -5.54173    1.99908
   45     -5.47552    1.99821
   46     -5.17386    1.96417
   47     -4.85421    1.38308
   48     -4.68772    0.59573
   49     -4.40536    0.04915
   50     -4.22481    0.00825
   51     -4.10657    0.00254
   52     -3.58508    0.00001
   53     -3.39468    0.00000
   54     -3.24625    0.00000
   55     -3.04837    0.00000
   56     -2.78936    0.00000
   57     -2.56070    0.00000
   58     -1.51197    0.00000
   59     -1.22999    0.00000
   60     -1.12771    0.00000
   61     -0.74969    0.00000
   62     -0.68851    0.00000
   63     -0.25869    0.00000
   64     -0.16948    0.00000
   65     -0.04283    0.00000
   66      0.32434    0.00000
   67      0.77560    0.00000
   68      1.07548    0.00000
   69      1.54148    0.00000
   70      1.94490    0.00000
   71      2.53224    0.00000
   72      2.84450    0.00000
   73      4.03851    0.00000
   74      4.26378    0.00000
   75      4.40964    0.00000
   76      5.41307    0.00000
   77      5.93885    0.00000
   78      6.29568    0.00000
   79      6.56663    0.00000
   80      6.91857    0.00000
   81      7.15821    0.00000
   82      7.56120    0.00000
   83      7.69129    0.00000
   84      8.22259    0.00000
   85      8.44959    0.00000
   86      8.61879    0.00000
   87      8.76008    0.00000
   88      8.87954    0.00000
   89      9.23819    0.00000
   90      9.28598    0.00000
   91      9.44300    0.00000
   92      9.57420    0.00000
   93      9.67208    0.00000
   94      9.77655    0.00000
   95      9.87490    0.00000
   96      9.93472    0.00000
   97      9.98446    0.00000


Forces in eV/Ang:
  0 C     2.90992   -2.69095    4.36692
  1 C     0.67046    1.81929   -1.39016
  2 C     1.29903   -0.52851   -1.24708
  3 C     3.53595    0.98424    0.18356
  4 C    -3.90763   -2.13266   -1.00327
  5 C     1.15802   -0.65464   -0.03219
  6 C    -3.44002    1.31804   -0.22088
  7 C    -2.16981    3.32978    1.07524
  8 C     3.10639   -4.66504    0.30446
  9 C    -0.91119    0.43281    0.48930
 10 C    -0.41402    0.82190   -1.34260
 11 C     3.49377   -0.43632   -0.19146
 12 C    -2.40305   -1.24447    2.02753
 13 C     3.33800    0.52712   -0.05193
 14 C     1.47864    1.50617    0.27333
 15 C     4.86298   -3.67530   -3.59797
 16 C     1.56720    1.01486    0.32164
 17 C    -3.52389   -3.22749    2.64780
 18 C     1.27201    0.61618   -1.04124
 19 C   -13.46426    8.73217    0.90226
 20 C    -0.16272    1.20978   -1.71888
 21 C    -0.90138    1.61293   -2.02516
 22 C    -0.09686    0.18357    0.83333
 23 C     2.59159   -4.82530    0.39967

System changes: positions 

Initializing position-dependent things.

Density initialized from wave functions
           .--------------------------------------.  
          /|                                      |  
         / |                                      |  
        /  |                                      |  
       /   |                                      |  
      /    |                                      |  
     /     |                                      |  
    /      |                                      |  
   /       |    C                                 |  
  /        |               C  C   C               |  
 *         |     CC     C         CC              |  
 |         | C       C                            |  
 |         .---------C--C-----------C-------------.  
 |        /    C  C       C     C                /   
 |       /        C        C C                  /    
 |      /            C C                       /     
 |     /                                      /      
 |    /                                      /       
 |   /                                      /        
 |  /                                      /         
 | /                                      /          
 |/                                      /           
 *--------------------------------------*            

Positions:
   0 C      9.978891    5.263500    4.037313
   1 C      9.533729    3.683811    4.396417
   2 C      6.083814    4.188218    4.657905
   3 C      8.037477    9.636858    5.575893
   4 C      4.732152    8.685848    5.310802
   5 C      6.935485    8.972142    5.436742
   6 C      4.352721    5.615428    4.264768
   7 C      3.000716   11.994035    5.030270
   8 C     11.591732    9.039481    5.480902
   9 C      7.789325    6.312803    4.974523
  10 C      4.192387    9.857321    5.021973
  11 C      9.349224    9.988515    5.647346
  12 C      7.184518    3.764953    4.122096
  13 C      3.006394    7.584628    4.953456
  14 C      5.976595    7.978925    5.272824
  15 C     11.666460    7.741369    5.739081
  16 C      5.506573    5.459016    4.920900
  17 C     12.372524    7.200649    4.636344
  18 C      8.373869    3.155544    4.369468
  19 C     10.888191    9.991083    5.682278
  20 C      8.934678    5.845029    4.777970
  21 C     11.329574    5.543808    4.651320
  22 C      6.423847    6.609729    5.092889
  23 C      3.676176   11.023243    4.561761

Unit cell:
           periodic     x           y           z      points  spacing
  1. axis:    yes   16.000000    0.000000    0.000000    80     0.2000
  2. axis:    yes    0.000000   16.000000    0.000000    80     0.2000
  3. axis:    yes    0.000000    0.000000   10.000000    48     0.2083

Effective grid spacing dv^(1/3) = 0.2027

                     log10-error:    total        iterations:
           time      wfs    density  energy       fermi  poisson
iter:   1  17:13:56          +inf  -163.556351    2      5      
iter:   2  17:13:56         -1.78  -163.387530    3      2      
iter:   3  17:13:57         -2.07  -163.359826    2      2      
iter:   4  17:13:57         -2.23  -163.337103    2      2      
iter:   5  17:13:58         -2.47  -163.334165    2      2      
iter:   6  17:13:58         -2.67  -163.329396    2      1      
iter:   7  17:13:59         -2.76  -163.333204    2      2      
iter:   8  17:13:59         -2.97  -163.332158    2      1      
iter:   9  17:14:00         -3.06  -163.333705    2      2      
iter:  10  17:14:00         -3.25  -163.331286    1      1      
iter:  11  17:14:00         -3.43  -163.332334    2      1      
iter:  12  17:14:01         -3.55  -163.333901    2      1      
iter:  13  17:14:01         -3.72  -163.333638    1      1      
iter:  14  17:14:02         -3.80  -163.334369    2      1      
iter:  15  17:14:02         -3.94  -163.334100    1      1      
iter:  16  17:14:03         -4.01  -163.333401    1      1      

Converged after 16 iterations.

Dipole moment: (0.656878, -0.112562, 0.167165) |e|*Ang

Energy contributions relative to reference atoms: (reference = -24663.074771)

Kinetic:        +82.098791
Potential:      -96.288878
External:        +0.000000
XC:            -151.867326
Entropy (-ST):   -0.289172
Local:           +2.868597
--------------------------
Free energy:   -163.477987
Extrapolated:  -163.333401

Fermi level: -4.76184

 Band  Eigenvalues  Occupancy
    0    -22.23196    2.00000
    1    -21.32366    2.00000
    2    -21.30179    2.00000
    3    -20.80849    2.00000
    4    -20.20658    2.00000
    5    -19.84844    2.00000
    6    -19.42519    2.00000
    7    -18.96932    2.00000
    8    -18.73469    2.00000
    9    -18.10807    2.00000
   10    -17.57815    2.00000
   11    -17.12380    2.00000
   12    -16.44575    2.00000
   13    -14.97913    2.00000
   14    -14.85893    2.00000
   15    -14.78473    2.00000
   16    -13.71925    2.00000
   17    -13.59246    2.00000
   18    -13.51727    2.00000
   19    -12.96996    2.00000
   20    -12.66983    2.00000
   21    -12.27043    2.00000
   22    -11.70817    2.00000
   23    -11.21973    2.00000
   24    -10.23650    2.00000
   25     -9.86207    2.00000
   26     -9.47999    2.00000
   27     -9.42732    2.00000
   28     -8.90176    2.00000
   29     -8.85938    2.00000
   30     -8.67079    2.00000
   31     -8.53487    2.00000
   32     -8.34167    2.00000
   33     -8.14810    2.00000
   34     -8.05553    2.00000
   35     -7.51002    2.00000
   36     -7.22759    2.00000
   37     -7.06647    2.00000
   38     -6.84731    2.00000
   39     -6.68850    2.00000
   40     -6.54130    2.00000
   41     -6.36343    2.00000
   42     -5.96649    1.99999
   43     -5.69656    1.99983
   44     -5.52704    1.99905
   45     -5.49035    1.99863
   46     -5.15982    1.96331
   47     -4.84200    1.38063
   48     -4.68160    0.61901
   49     -4.35861    0.03485
   50     -4.11535    0.00311
   51     -4.04841    0.00159
   52     -3.53925    0.00001
   53     -3.37777    0.00000
   54     -3.16832    0.00000
   55     -2.99933    0.00000
   56     -2.63484    0.00000
   57     -2.48295    0.00000
   58     -1.49617    0.00000
   59     -1.14939    0.00000
   60     -1.09979    0.00000
   61     -0.66549    0.00000
   62     -0.62191    0.00000
   63     -0.17940    0.00000
   64     -0.13381    0.00000
   65     -0.00312    0.00000
   66      0.35895    0.00000
   67      0.83896    0.00000
   68      1.14850    0.00000
   69      1.63779    0.00000
   70      2.03864    0.00000
   71      2.52546    0.00000
   72      2.91008    0.00000
   73      4.16875    0.00000
   74      4.50945    0.00000
   75      4.66277    0.00000
   76      5.55226    0.00000
   77      6.00458    0.00000
   78      6.32279    0.00000
   79      6.75606    0.00000
   80      6.98885    0.00000
   81      7.26365    0.00000
   82      7.59307    0.00000
   83      7.79167    0.00000
   84      8.24420    0.00000
   85      8.49314    0.00000
   86      8.66273    0.00000
   87      8.75643    0.00000
   88      8.91731    0.00000
   89      9.25711    0.00000
   90      9.32164    0.00000
   91      9.48555    0.00000
   92      9.60081    0.00000
   93      9.71265    0.00000
   94      9.79880    0.00000
   95      9.88605    0.00000
   96      9.95660    0.00000
   97     10.01423    0.00000


Forces in eV/Ang:
  0 C     2.66783   -2.58966    4.21593
  1 C     0.63033    1.76721   -1.37675
  2 C     1.09105   -0.37974   -1.10175
  3 C     3.25484    0.85270    0.16676
  4 C    -3.81100   -2.31386   -1.02568
  5 C     1.29781   -0.52582   -0.03472
  6 C    -3.15751    1.34074   -0.03051
  7 C    -1.78623    2.78517    0.79396
  8 C     2.75888   -3.95897    0.68655
  9 C    -0.78477    0.39464    0.46376
 10 C    -0.28679    0.50869   -1.18452
 11 C     3.19745   -0.41135   -0.19379
 12 C    -2.12400   -1.30745    1.89205
 13 C     3.47149    0.57424   -0.04025
 14 C     1.28947    1.47359    0.28018
 15 C     4.45064   -2.73544   -3.21261
 16 C     1.28207    0.94674    0.13244
 17 C    -3.34595   -3.53787    2.12570
 18 C     1.23899    0.63705   -1.02456
 19 C   -12.60723    7.27212    0.64547
 20 C    -0.14241    1.18736   -1.67513
 21 C    -0.63897    1.69870   -1.82794
 22 C    -0.10265    0.29635    0.79818
 23 C     2.07255   -3.95708    0.52954

System changes: positions 

Initializing position-dependent things.

Density initialized from wave functions
           .--------------------------------------.  
          /|                                      |  
         / |                                      |  
        /  |                                      |  
       /   |                                      |  
      /    |                                      |  
     /     |                                      |  
    /      |                                      |  
   /       |    C                                 |  
  /        |               C  C   C               |  
 *         |     CC     C         CC              |  
 |         | C       C                            |  
 |         .---------C--C-----------C-------------.  
 |        /    C  C       C     C                /   
 |       /        C        C C                  /    
 |      /            C C                       /     
 |     /                                      /      
 |    /                                      /       
 |   /                                      /        
 |  /                                      /         
 | /                                      /          
 |/                                      /           
 *--------------------------------------*            

Positions:
   0 C      9.987606    5.252948    4.054131
   1 C      9.535825    3.691246    4.390153
   2 C      6.085275    4.189024    4.655262
   3 C      8.046951    9.638163    5.576138
   4 C      4.716259    8.672633    5.305787
   5 C      6.945068    8.972774    5.436843
   6 C      4.343163    5.621718    4.267986
   7 C      2.998820   11.998000    5.029154
   8 C     11.591799    9.046654    5.492807
   9 C      7.788021    6.313928    4.976257
  10 C      4.192683    9.855819    5.018661
  11 C      9.361400    9.986776    5.646407
  12 C      7.179685    3.757667    4.128659
  13 C      3.024043    7.587902    4.953466
  14 C      5.979445    7.984947    5.274058
  15 C     11.680763    7.741539    5.730374
  16 C      5.507255    5.462319    4.918212
  17 C     12.360428    7.180232    4.638214
  18 C      8.378782    3.159014    4.364960
  19 C     10.848443    9.989740    5.677998
  20 C      8.933928    5.850308    4.770969
  21 C     11.330035    5.552031    4.645708
  22 C      6.423303    6.612607    5.096078
  23 C      3.677716   11.018179    4.566950

Unit cell:
           periodic     x           y           z      points  spacing
  1. axis:    yes   16.000000    0.000000    0.000000    80     0.2000
  2. axis:    yes    0.000000   16.000000    0.000000    80     0.2000
  3. axis:    yes    0.000000    0.000000   10.000000    48     0.2083

Effective grid spacing dv^(1/3) = 0.2027

                     log10-error:    total        iterations:
           time      wfs    density  energy       fermi  poisson
iter:   1  17:14:04          +inf  -164.759034    2      5      
iter:   2  17:14:05         -1.82  -164.614254    2      2      
iter:   3  17:14:05         -2.08  -164.590431    2      2      
iter:   4  17:14:06         -2.22  -164.567661    3      2      
iter:   5  17:14:06         -2.46  -164.564451    2      2      
iter:   6  17:14:07         -2.66  -164.564774    2      2      
iter:   7  17:14:07         -2.77  -164.564034    2      2      
iter:   8  17:14:08         -2.95  -164.562147    2      1      
iter:   9  17:14:08         -3.06  -164.564316    2      2      
iter:  10  17:14:09         -3.29  -164.562810    2      1      
iter:  11  17:14:09         -3.40  -164.562602    2      1      
iter:  12  17:14:09         -3.59  -164.564961    2      1      
iter:  13  17:14:10         -3.71  -164.564576    2      1      
iter:  14  17:14:10         -3.77  -164.563738    2      1      
iter:  15  17:14:11         -4.03  -164.564833    1      1      

Converged after 15 iterations.

Dipole moment: (0.667741, -0.070263, 0.172859) |e|*Ang

Energy contributions relative to reference atoms: (reference = -24663.074771)

Kinetic:        +80.885109
Potential:      -95.804962
External:        +0.000000
XC:            -152.370976
Entropy (-ST):   -0.287220
Local:           +2.869606
--------------------------
Free energy:   -164.708443
Extrapolated:  -164.564833

Fermi level: -4.76174

 Band  Eigenvalues  Occupancy
    0    -22.16981    2.00000
    1    -21.30451    2.00000
    2    -21.25398    2.00000
    3    -20.78614    2.00000
    4    -20.20886    2.00000
    5    -19.83622    2.00000
    6    -19.41323    2.00000
    7    -18.96782    2.00000
    8    -18.74642    2.00000
    9    -18.09599    2.00000
   10    -17.56378    2.00000
   11    -17.12748    2.00000
   12    -16.41768    2.00000
   13    -15.04900    2.00000
   14    -14.91576    2.00000
   15    -14.81130    2.00000
   16    -13.83138    2.00000
   17    -13.59340    2.00000
   18    -13.54639    2.00000
   19    -13.01372    2.00000
   20    -12.67992    2.00000
   21    -12.25487    2.00000
   22    -11.68694    2.00000
   23    -11.26898    2.00000
   24    -10.19552    2.00000
   25     -9.88347    2.00000
   26     -9.48117    2.00000
   27     -9.42126    2.00000
   28     -8.88972    2.00000
   29     -8.87116    2.00000
   30     -8.69261    2.00000
   31     -8.53038    2.00000
   32     -8.34381    2.00000
   33     -8.13672    2.00000
   34     -8.07797    2.00000
   35     -7.51814    2.00000
   36     -7.18370    2.00000
   37     -7.08127    2.00000
   38     -6.87008    2.00000
   39     -6.68090    2.00000
   40     -6.53482    2.00000
   41     -6.39898    2.00000
   42     -5.98749    1.99999
   43     -5.70116    1.99983
   44     -5.50646    1.99883
   45     -5.49937    1.99875
   46     -5.14572    1.95791
   47     -4.83998    1.37242
   48     -4.68804    0.64734
   49     -4.31582    0.02288
   50     -4.03934    0.00146
   51     -3.94713    0.00058
   52     -3.50289    0.00001
   53     -3.36324    0.00000
   54     -3.10575    0.00000
   55     -2.94718    0.00000
   56     -2.50809    0.00000
   57     -2.39221    0.00000
   58     -1.49298    0.00000
   59     -1.08871    0.00000
   60     -1.04048    0.00000
   61     -0.59281    0.00000
   62     -0.54316    0.00000
   63     -0.11074    0.00000
   64     -0.09021    0.00000
   65      0.07131    0.00000
   66      0.38841    0.00000
   67      0.92766    0.00000
   68      1.22272    0.00000
   69      1.73895    0.00000
   70      2.12626    0.00000
   71      2.51748    0.00000
   72      3.00133    0.00000
   73      4.25398    0.00000
   74      4.77353    0.00000
   75      4.97701    0.00000
   76      5.63205    0.00000
   77      6.06536    0.00000
   78      6.35367    0.00000
   79      6.87705    0.00000
   80      7.06372    0.00000
   81      7.36492    0.00000
   82      7.62940    0.00000
   83      7.90229    0.00000
   84      8.25679    0.00000
   85      8.53996    0.00000
   86      8.69379    0.00000
   87      8.75805    0.00000
   88      8.95471    0.00000
   89      9.27626    0.00000
   90      9.34830    0.00000
   91      9.53265    0.00000
   92      9.62441    0.00000
   93      9.74943    0.00000
   94      9.82342    0.00000
   95      9.89310    0.00000
   96      9.98257    0.00000
   97     10.04936    0.00000


Forces in eV/Ang:
  0 C     2.45170   -2.48138    4.00719
  1 C     0.57590    1.70935   -1.35763
  2 C     0.84108   -0.19824   -0.93957
  3 C     2.86072    0.69348    0.14014
  4 C    -3.68675   -2.49117   -1.05674
  5 C     1.46842   -0.34450   -0.01329
  6 C    -2.85328    1.38434    0.19568
  7 C    -1.53981    2.43558    0.60898
  8 C     2.38956   -3.30371    0.96119
  9 C    -0.61872    0.34312    0.42604
 10 C    -0.22930    0.32977   -1.07749
 11 C     2.74667   -0.34825   -0.19919
 12 C    -1.75150   -1.40901    1.75269
 13 C     3.57588    0.61687   -0.04399
 14 C     1.08209    1.39168    0.27528
 15 C     4.08575   -1.93031   -2.87298
 16 C     0.95752    0.86715   -0.07454
 17 C    -3.24709   -3.83955    1.68733
 18 C     1.16081    0.66250   -0.99810
 19 C   -11.45637    5.89080    0.44464
 20 C    -0.16577    1.17079   -1.61318
 21 C    -0.37290    1.84679   -1.62109
 22 C    -0.10285    0.39435    0.75278
 23 C     1.75202   -3.40918    0.59779

System changes: positions 

Initializing position-dependent things.

Density initialized from wave functions
           .--------------------------------------.  
          /|                                      |  
         / |                                      |  
        /  |                                      |  
       /   |                                      |  
      /    |                                      |  
     /     |                                      |  
    /      |                                      |  
   /       |    C                                 |  
  /        |               C  C   C               |  
 *         |     CC     C         CC              |  
 |         | C       C                            |  
 |         .---------C--C-----------C-------------.  
 |        /    C  C       C     C                /   
 |       /        C        C C                  /    
 |      /            C C                       /     
 |     /                                      /      
 |    /                                      /       
 |   /                                      /        
 |  /                                      /         
 | /                                      /          
 |/                                      /           
 *--------------------------------------*            

Positions:
   0 C      9.997223    5.241189    4.072583
   1 C      9.538110    3.699607    4.383010
   2 C      6.086291    4.190458    4.652607
   3 C      8.055797    9.639143    5.576445
   4 C      4.698203    8.656127    5.299662
   5 C      6.956168    8.973913    5.437021
   6 C      4.332658    5.629691    4.272553
   7 C      2.996409   12.002823    5.028032
   8 C     11.592759    9.053840    5.505293
   9 C      7.787193    6.315007    4.978038
  10 C      4.192623    9.854289    5.014801
  11 C      9.371026    9.985444    5.645156
  12 C      7.175355    3.748785    4.135988
  13 C      3.045303    7.592016    4.953332
  14 C      5.982094    7.991350    5.275551
  15 C     11.695772    7.743169    5.722469
  16 C      5.507256    5.466015    4.914515
  17 C     12.345793    7.154067    4.638524
  18 C      8.384026    3.162952    4.359894
  19 C     10.808712    9.987447    5.673976
  20 C      8.932725    5.856425    4.763213
  21 C     11.332371    5.563748    4.640261
  22 C      6.422725    6.616390    5.099503
  23 C      3.679790   11.012004    4.572593

Unit cell:
           periodic     x           y           z      points  spacing
  1. axis:    yes   16.000000    0.000000    0.000000    80     0.2000
  2. axis:    yes    0.000000   16.000000    0.000000    80     0.2000
  3. axis:    yes    0.000000    0.000000   10.000000    48     0.2083

Effective grid spacing dv^(1/3) = 0.2027

                     log10-error:    total        iterations:
           time      wfs    density  energy       fermi  poisson
iter:   1  17:14:12          +inf  -166.001368    2      5      
iter:   2  17:14:13         -1.82  -165.864362    3      2      
iter:   3  17:14:13         -2.07  -165.842155    3      2      
iter:   4  17:14:14         -2.19  -165.817107    3      2      
iter:   5  17:14:14         -2.42  -165.812817    2      2      
iter:   6  17:14:15         -2.63  -165.813247    2      2      
iter:   7  17:14:15         -2.74  -165.812600    3      2      
iter:   8  17:14:16         -2.95  -165.810567    2      1      
iter:   9  17:14:16         -3.05  -165.812763    2      2      
iter:  10  17:14:17         -3.28  -165.811823    2      1      
iter:  11  17:14:17         -3.38  -165.811333    2      1      
iter:  12  17:14:17         -3.55  -165.813589    2      1      
iter:  13  17:14:18         -3.67  -165.812991    2      1      
iter:  14  17:14:18         -3.75  -165.812026    2      1      
iter:  15  17:14:19         -3.98  -165.813272    2      1      
iter:  16  17:14:19         -4.13  -165.813128    1      1      

Converged after 16 iterations.

Dipole moment: (0.665391, -0.027946, 0.174943) |e|*Ang

Energy contributions relative to reference atoms: (reference = -24663.074771)

Kinetic:        +79.797016
Potential:      -95.406496
External:        +0.000000
XC:            -152.933934
Entropy (-ST):   -0.289979
Local:           +2.875277
--------------------------
Free energy:   -165.958117
Extrapolated:  -165.813128

Fermi level: -4.76754

 Band  Eigenvalues  Occupancy
    0    -22.10103    2.00000
    1    -21.27379    2.00000
    2    -21.20308    2.00000
    3    -20.75728    2.00000
    4    -20.21477    2.00000
    5    -19.82980    2.00000
    6    -19.40238    2.00000
    7    -18.95872    2.00000
    8    -18.74592    2.00000
    9    -18.08030    2.00000
   10    -17.54248    2.00000
   11    -17.13585    2.00000
   12    -16.38762    2.00000
   13    -15.15969    2.00000
   14    -14.98233    2.00000
   15    -14.83195    2.00000
   16    -13.92415    2.00000
   17    -13.59895    2.00000
   18    -13.56997    2.00000
   19    -13.04523    2.00000
   20    -12.66994    2.00000
   21    -12.23589    2.00000
   22    -11.65821    2.00000
   23    -11.31755    2.00000
   24    -10.14998    2.00000
   25     -9.91216    2.00000
   26     -9.48917    2.00000
   27     -9.39566    2.00000
   28     -8.94610    2.00000
   29     -8.85245    2.00000
   30     -8.70838    2.00000
   31     -8.52830    2.00000
   32     -8.34162    2.00000
   33     -8.12907    2.00000
   34     -8.09336    2.00000
   35     -7.52708    2.00000
   36     -7.14142    2.00000
   37     -7.11486    2.00000
   38     -6.88106    2.00000
   39     -6.67757    2.00000
   40     -6.52372    2.00000
   41     -6.43065    2.00000
   42     -6.02585    1.99999
   43     -5.70637    1.99983
   44     -5.52003    1.99892
   45     -5.45728    1.99798
   46     -5.12549    1.94573
   47     -4.84331    1.36172
   48     -4.70158    0.68164
   49     -4.26711    0.01333
   50     -3.97234    0.00070
   51     -3.81261    0.00014
   52     -3.47676    0.00000
   53     -3.34128    0.00000
   54     -3.05381    0.00000
   55     -2.88616    0.00000
   56     -2.40324    0.00000
   57     -2.27433    0.00000
   58     -1.49853    0.00000
   59     -1.04724    0.00000
   60     -0.94451    0.00000
   61     -0.52499    0.00000
   62     -0.44482    0.00000
   63     -0.05726    0.00000
   64      0.01719    0.00000
   65      0.17622    0.00000
   66      0.41152    0.00000
   67      1.05408    0.00000
   68      1.32493    0.00000
   69      1.85932    0.00000
   70      2.21691    0.00000
   71      2.50028    0.00000
   72      3.11854    0.00000
   73      4.32837    0.00000
   74      5.07341    0.00000
   75      5.30865    0.00000
   76      5.67821    0.00000
   77      6.11850    0.00000
   78      6.39887    0.00000
   79      6.97951    0.00000
   80      7.15429    0.00000
   81      7.46135    0.00000
   82      7.68070    0.00000
   83      8.03512    0.00000
   84      8.26860    0.00000
   85      8.59266    0.00000
   86      8.71259    0.00000
   87      8.77775    0.00000
   88      8.99750    0.00000
   89      9.30343    0.00000
   90      9.37184    0.00000
   91      9.58913    0.00000
   92      9.64798    0.00000
   93      9.77841    0.00000
   94      9.85439    0.00000
   95      9.90619    0.00000
   96     10.01301    0.00000
   97     10.08577    0.00000


Forces in eV/Ang:
  0 C     2.21405   -2.33568    3.79545
  1 C     0.52315    1.66333   -1.34131
  2 C     0.65722   -0.06608   -0.80504
  3 C     2.44982    0.54575    0.11426
  4 C    -3.56849   -2.56304   -1.08252
  5 C     1.45828   -0.23134   -0.01344
  6 C    -2.54078    1.44254    0.41045
  7 C    -1.23315    1.99380    0.39872
  8 C     2.04077   -2.71614    1.16781
  9 C    -0.54099    0.32192    0.39471
 10 C    -0.11455    0.01733   -0.92829
 11 C     2.15392   -0.25730   -0.19346
 12 C    -1.47374   -1.42814    1.63544
 13 C     3.70372    0.67642   -0.02050
 14 C     0.88690    1.29648    0.25684
 15 C     3.71989   -1.16937   -2.55731
 16 C     0.67732    0.79303   -0.25240
 17 C    -3.26187   -4.17669    1.33578
 18 C     1.08900    0.65837   -0.95226
 19 C   -10.03862    4.61172    0.30188
 20 C    -0.06456    1.09297   -1.57687
 21 C    -0.08818    2.10997   -1.44779
 22 C    -0.09490    0.48903    0.69418
 23 C     1.36340   -2.73437    0.69429

System changes: positions 

Initializing position-dependent things.

Density initialized from wave functions
           .--------------------------------------.  
[...]
    1    -21.07102    2.00000
    2    -20.67284    2.00000
    3    -20.43108    2.00000
    4    -20.02510    2.00000
    5    -19.86196    2.00000
    6    -19.44112    2.00000
    7    -19.16256    2.00000
    8    -18.76744    2.00000
    9    -18.17223    2.00000
   10    -17.63476    2.00000
   11    -17.41960    2.00000
   12    -17.11008    2.00000
   13    -16.13622    2.00000
   14    -15.71018    2.00000
   15    -15.52347    2.00000
   16    -14.96775    2.00000
   17    -14.19804    2.00000
   18    -13.82307    2.00000
   19    -13.36293    2.00000
   20    -12.99054    2.00000
   21    -12.47075    2.00000
   22    -12.27138    2.00000
   23    -12.13430    2.00000
   24    -11.13470    2.00000
   25    -10.94609    2.00000
   26    -10.22669    2.00000
   27     -9.36857    2.00000
   28     -9.12250    2.00000
   29     -9.10058    2.00000
   30     -8.74908    2.00000
   31     -8.45245    2.00000
   32     -8.32906    2.00000
   33     -8.19582    2.00000
   34     -8.12204    2.00000
   35     -8.05585    2.00000
   36     -7.39125    2.00000
   37     -7.14903    2.00000
   38     -7.03447    2.00000
   39     -6.77161    2.00000
   40     -6.61435    2.00000
   41     -6.34068    2.00000
   42     -6.19088    2.00000
   43     -5.73550    2.00000
   44     -5.64120    1.99999
   45     -5.22786    1.99939
   46     -5.16087    1.99880
   47     -4.55037    1.57700
   48     -4.24431    0.29745
   49     -4.14998    0.12737
   50     -3.15875    0.00001
   51     -2.88232    0.00000
   52     -2.72710    0.00000
   53     -2.49109    0.00000
   54     -1.63156    0.00000
   55     -1.20751    0.00000
   56     -1.14750    0.00000
   57     -0.94593    0.00000
   58     -0.61405    0.00000
   59     -0.51387    0.00000
   60      0.38458    0.00000
   61      0.48510    0.00000
   62      1.27982    0.00000
   63      1.49139    0.00000
   64      1.54928    0.00000
   65      2.53474    0.00000
   66      3.22006    0.00000
   67      4.05241    0.00000
   68      4.49561    0.00000
   69      5.15441    0.00000
   70      5.32063    0.00000
   71      5.53701    0.00000
   72      5.65609    0.00000
   73      5.93449    0.00000
   74      6.32894    0.00000
   75      6.69983    0.00000
   76      7.07978    0.00000
   77      7.77082    0.00000
   78      7.94060    0.00000
   79      8.01478    0.00000
   80      8.29423    0.00000
   81      8.62893    0.00000
   82      8.70150    0.00000
   83      8.95855    0.00000
   84      9.01499    0.00000
   85      9.08854    0.00000
   86      9.23471    0.00000
   87      9.38047    0.00000
   88      9.47582    0.00000
   89      9.59158    0.00000
   90      9.72133    0.00000
   91      9.81872    0.00000
   92      9.90740    0.00000
   93      9.98263    0.00000
   94     10.16585    0.00000
   95     10.25087    0.00000
   96     10.26088    0.00000
   97     10.29883    0.00000


Forces in eV/Ang:
  0 C     0.04588   -0.00897    0.00560
  1 C    -0.05271   -0.00457    0.04384
  2 C    -0.04047    0.03206    0.00498
  3 C    -0.13342   -0.05196   -0.04159
  4 C    -0.02664    0.02750    0.00735
  5 C     0.15991    0.08885   -0.00829
  6 C    -0.00217    0.03642   -0.06131
  7 C     0.04124   -0.00739    0.00325
  8 C     0.01905   -0.02144    0.02324
  9 C    -0.06252    0.02424   -0.03915
 10 C    -0.00922    0.01782    0.03549
 11 C     0.08614   -0.00958   -0.04229
 12 C     0.01582   -0.02482    0.00070
 13 C    -0.01278   -0.03277    0.03478
 14 C    -0.00365   -0.01589    0.03414
 15 C    -0.00168   -0.00283   -0.01757
 16 C     0.04371   -0.03975   -0.03992
 17 C    -0.01933    0.01499    0.02132
 18 C     0.00571    0.00392   -0.01214
 19 C    -0.06694   -0.07711   -0.02885
 20 C     0.04470    0.01262   -0.00545
 21 C     0.03630    0.05024    0.00022
 22 C    -0.00494   -0.02562    0.02304
 23 C    -0.03543   -0.03493    0.01291

System changes: positions 

Initializing position-dependent things.

Density initialized from wave functions
           .--------------------------------------.  
          /|                                      |  
         / |                                      |  
        /  |                                      |  
       /   |                                      |  
      /    |                                      |  
     /     |                                      |  
    /      |                                      |  
   /       |                                      |  
  /        |    CC         C  C  C                |  
 *         |     C      C          C              |  
 |         |     C   C              C             |  
 |         .---C-----C--C---------C---------------.  
 |        /    C  C       C  C  C                /   
 |       /        C        C                    /    
 |      /           C  C                       /     
 |     /                                      /      
 |    /                                      /       
 |   /                                      /        
 |  /                                      /         
 | /                                      /          
 |/                                      /           
 *--------------------------------------*            

Positions:
   0 C     10.053379    5.026850    4.587523
   1 C      9.516912    3.741120    4.319778
   2 C      6.057161    4.337464    4.484387
   3 C      8.006530    9.680096    5.605081
   4 C      4.527578    8.422177    5.000397
   5 C      6.921783    9.082635    5.391372
   6 C      4.165717    6.087370    4.716539
   7 C      3.020592   12.116718    4.933305
   8 C     11.618230    9.063916    5.507648
   9 C      7.810231    6.409262    4.930793
  10 C      4.085935    9.721152    5.011864
  11 C      9.298577   10.041352    5.739343
  12 C      7.031852    3.540989    4.314515
  13 C      3.717507    7.260128    4.816011
  14 C      5.961175    8.081221    5.121492
  15 C     12.170496    7.951367    5.237943
  16 C      5.484022    5.586152    4.705090
  17 C     11.964253    6.658471    4.916696
  18 C      8.340194    3.251985    4.253348
  19 C     10.551841    9.857540    5.713287
  20 C      8.943420    5.905644    4.801710
  21 C     11.353579    5.575831    4.678874
  22 C      6.431099    6.733886    4.946609
  23 C      3.598041   10.917197    4.988222

Unit cell:
           periodic     x           y           z      points  spacing
  1. axis:    yes   16.000000    0.000000    0.000000    80     0.2000
  2. axis:    yes    0.000000   16.000000    0.000000    80     0.2000
  3. axis:    yes    0.000000    0.000000   10.000000    48     0.2083

Effective grid spacing dv^(1/3) = 0.2027

                     log10-error:    total        iterations:
           time      wfs    density  energy       fermi  poisson
iter:   1  17:20:25          +inf  -181.257342    3      4      
iter:   2  17:20:25         -2.60  -181.243163    3      1      
iter:   3  17:20:26         -3.09  -181.238632    3      1      
iter:   4  17:20:26         -3.33  -181.242764    3      1      
iter:   5  17:20:27         -3.19  -181.239325    2      1      
iter:   6  17:20:27         -3.60  -181.235790    3      1      
iter:   7  17:20:28         -3.11  -181.240167    3      1      
iter:   8  17:20:28         -3.80  -181.239417    2      1      
iter:   9  17:20:29         -3.93  -181.239202    2      1      
iter:  10  17:20:29         -3.98  -181.240693    2      1      
iter:  11  17:20:30         -3.73  -181.239360    2      1      
iter:  12  17:20:30         -4.01  -181.239432    2      1      

Converged after 12 iterations.

Dipole moment: (0.241492, -0.468264, 0.022942) |e|*Ang

Energy contributions relative to reference atoms: (reference = -24663.074771)

Kinetic:       +103.494417
Potential:     -115.299808
External:        +0.000000
XC:            -172.381074
Entropy (-ST):   -0.237022
Local:           +3.065544
--------------------------
Free energy:   -181.357943
Extrapolated:  -181.239432

Fermi level: -4.41775

 Band  Eigenvalues  Occupancy
    0    -22.24277    2.00000
    1    -21.06703    2.00000
    2    -20.67574    2.00000
    3    -20.43387    2.00000
    4    -20.02498    2.00000
    5    -19.86135    2.00000
    6    -19.44309    2.00000
    7    -19.16197    2.00000
    8    -18.76748    2.00000
    9    -18.17370    2.00000
   10    -17.63436    2.00000
   11    -17.41819    2.00000
   12    -17.11232    2.00000
   13    -16.13676    2.00000
   14    -15.70859    2.00000
   15    -15.52643    2.00000
   16    -14.96648    2.00000
   17    -14.19847    2.00000
   18    -13.82397    2.00000
   19    -13.36457    2.00000
   20    -12.99124    2.00000
   21    -12.46823    2.00000
   22    -12.26907    2.00000
   23    -12.13272    2.00000
   24    -11.13335    2.00000
   25    -10.94614    2.00000
   26    -10.22780    2.00000
   27     -9.36707    2.00000
   28     -9.12508    2.00000
   29     -9.10391    2.00000
   30     -8.75148    2.00000
   31     -8.44938    2.00000
   32     -8.32833    2.00000
   33     -8.19531    2.00000
   34     -8.12419    2.00000
   35     -8.05851    2.00000
   36     -7.39253    2.00000
   37     -7.14783    2.00000
   38     -7.03436    2.00000
   39     -6.77135    2.00000
   40     -6.61445    2.00000
   41     -6.33751    2.00000
   42     -6.19021    2.00000
   43     -5.73790    2.00000
   44     -5.64158    1.99999
   45     -5.22914    1.99940
   46     -5.16167    1.99883
   47     -4.54873    1.57498
   48     -4.24339    0.29771
   49     -4.15038    0.12909
   50     -3.15960    0.00001
   51     -2.88491    0.00000
   52     -2.72710    0.00000
   53     -2.48873    0.00000
   54     -1.63088    0.00000
   55     -1.20588    0.00000
   56     -1.14383    0.00000
   57     -0.95130    0.00000
   58     -0.61903    0.00000
   59     -0.51324    0.00000
   60      0.38110    0.00000
   61      0.48241    0.00000
   62      1.27962    0.00000
   63      1.49826    0.00000
   64      1.55067    0.00000
   65      2.53597    0.00000
   66      3.22602    0.00000
   67      4.06611    0.00000
   68      4.49555    0.00000
   69      5.16029    0.00000
   70      5.32127    0.00000
   71      5.54451    0.00000
   72      5.65880    0.00000
   73      5.93611    0.00000
   74      6.33228    0.00000
   75      6.70498    0.00000
   76      7.08031    0.00000
   77      7.77315    0.00000
   78      7.94231    0.00000
   79      8.01323    0.00000
   80      8.29151    0.00000
   81      8.63288    0.00000
   82      8.70391    0.00000
   83      8.95648    0.00000
   84      9.01182    0.00000
   85      9.08620    0.00000
   86      9.22932    0.00000
   87      9.37949    0.00000
   88      9.47375    0.00000
   89      9.59104    0.00000
   90      9.71620    0.00000
   91      9.81461    0.00000
   92      9.91145    0.00000
   93      9.98746    0.00000
   94     10.16503    0.00000
   95     10.25219    0.00000
   96     10.25983    0.00000
   97     10.29780    0.00000


Forces in eV/Ang:
  0 C     0.01923   -0.01738    0.01317
  1 C    -0.04939    0.02591    0.04348
  2 C     0.00071    0.01574   -0.00024
  3 C    -0.09559   -0.03441   -0.03373
  4 C     0.02463   -0.01463    0.03040
  5 C     0.10446    0.04523   -0.01448
  6 C     0.01486    0.02397   -0.06945
  7 C     0.02840    0.02147    0.00403
  8 C     0.03587   -0.03636    0.01801
  9 C    -0.03293    0.01520   -0.02855
 10 C    -0.01853    0.01099    0.03102
 11 C     0.04392    0.00689   -0.03686
 12 C     0.02669    0.00216    0.00670
 13 C    -0.01256   -0.03489    0.02367
 14 C     0.01224   -0.02226    0.03224
 15 C    -0.00099    0.00477   -0.01428
 16 C     0.00319   -0.06729   -0.01712
 17 C    -0.02600   -0.02168    0.01329
 18 C    -0.02844    0.00837   -0.00576
 19 C    -0.02435   -0.05935   -0.02681
 20 C     0.02053    0.00546   -0.01029
 21 C     0.05486    0.07003    0.01204
 22 C     0.00559    0.00066    0.00622
 23 C    -0.04412   -0.00032    0.01219

System changes: positions 

Initializing position-dependent things.

Density initialized from wave functions
           .--------------------------------------.  
          /|                                      |  
         / |                                      |  
        /  |                                      |  
       /   |                                      |  
      /    |                                      |  
     /     |                                      |  
    /      |                                      |  
   /       |                                      |  
  /        |    CC         C  C  C                |  
 *         |     C      C          C              |  
 |         |     C   C              C             |  
 |         .---C-----C--C---------C---------------.  
 |        /    C  C       C  C  C                /   
 |       /        C        C                    /    
 |      /           C  C                       /     
 |     /                                      /      
 |    /                                      /       
 |   /                                      /        
 |  /                                      /         
 | /                                      /          
 |/                                      /           
 *--------------------------------------*            

Positions:
   0 C     10.053964    5.024096    4.594678
   1 C      9.517854    3.738106    4.326008
   2 C      6.057393    4.339647    4.479880
   3 C      8.003784    9.682220    5.601273
   4 C      4.525217    8.422104    5.001261
   5 C      6.919584    9.086811    5.388028
   6 C      4.165914    6.088792    4.715044
   7 C      3.024339   12.116787    4.934522
   8 C     11.619408    9.061295    5.507251
   9 C      7.810720    6.411498    4.928154
  10 C      4.084150    9.720568    5.017866
  11 C      9.297471   10.039362    5.734923
  12 C      7.031178    3.541275    4.311930
  13 C      3.714993    7.259537    4.820787
  14 C      5.959432    8.083203    5.120663
  15 C     12.172558    7.949764    5.234839
  16 C      5.485615    5.589369    4.698434
  17 C     11.965801    6.656387    4.918331
  18 C      8.340063    3.252392    4.255274
  19 C     10.548619    9.849206    5.710788
  20 C      8.944525    5.907053    4.803583
  21 C     11.354805    5.574265    4.681726
  22 C      6.431282    6.736244    4.945168
  23 C      3.597534   10.916018    4.993985

Unit cell:
           periodic     x           y           z      points  spacing
  1. axis:    yes   16.000000    0.000000    0.000000    80     0.2000
  2. axis:    yes    0.000000   16.000000    0.000000    80     0.2000
  3. axis:    yes    0.000000    0.000000   10.000000    48     0.2083

Effective grid spacing dv^(1/3) = 0.2027

                     log10-error:    total        iterations:
           time      wfs    density  energy       fermi  poisson
iter:   1  17:20:32          +inf  -181.256603    3      4      
iter:   2  17:20:32         -2.64  -181.244234    3      1      
iter:   3  17:20:32         -3.07  -181.240267    2      1      
iter:   4  17:20:33         -3.26  -181.243832    3      1      
iter:   5  17:20:33         -3.17  -181.239963    3      1      
iter:   6  17:20:34         -3.40  -181.236993    2      1      
iter:   7  17:20:34         -3.12  -181.245352    3      1      
iter:   8  17:20:35         -3.11  -181.240471    3      1      
iter:   9  17:20:35         -3.60  -181.240728    2      1      
iter:  10  17:20:36         -3.97  -181.241697    2      1      
iter:  11  17:20:36         -4.09  -181.240245    2      1      

Converged after 11 iterations.

Dipole moment: (0.237847, -0.467216, 0.023313) |e|*Ang

Energy contributions relative to reference atoms: (reference = -24663.074771)

Kinetic:       +103.717475
Potential:     -115.480129
External:        +0.000000
XC:            -172.425749
Entropy (-ST):   -0.238783
Local:           +3.067550
--------------------------
Free energy:   -181.359636
Extrapolated:  -181.240245

Fermi level: -4.41824

 Band  Eigenvalues  Occupancy
    0    -22.24320    2.00000
    1    -21.06104    2.00000
    2    -20.67683    2.00000
    3    -20.43409    2.00000
    4    -20.02538    2.00000
    5    -19.86090    2.00000
    6    -19.44658    2.00000
    7    -19.16128    2.00000
    8    -18.76728    2.00000
    9    -18.17538    2.00000
   10    -17.63349    2.00000
   11    -17.41807    2.00000
   12    -17.11370    2.00000
   13    -16.13839    2.00000
   14    -15.70680    2.00000
   15    -15.52899    2.00000
   16    -14.96523    2.00000
   17    -14.19835    2.00000
   18    -13.82270    2.00000
   19    -13.36427    2.00000
   20    -12.99125    2.00000
   21    -12.46102    2.00000
   22    -12.26642    2.00000
   23    -12.13077    2.00000
   24    -11.13185    2.00000
   25    -10.94432    2.00000
   26    -10.22922    2.00000
   27     -9.36447    2.00000
   28     -9.12564    2.00000
   29     -9.10472    2.00000
   30     -8.75358    2.00000
   31     -8.44648    2.00000
   32     -8.32731    2.00000
   33     -8.19510    2.00000
   34     -8.12742    2.00000
   35     -8.06533    2.00000
   36     -7.39505    2.00000
   37     -7.14629    2.00000
   38     -7.03419    2.00000
   39     -6.77088    2.00000
   40     -6.61548    2.00000
   41     -6.33967    2.00000
   42     -6.18960    2.00000
   43     -5.73939    2.00000
   44     -5.64189    1.99999
   45     -5.23054    1.99941
   46     -5.16172    1.99882
   47     -4.54749    1.56915
   48     -4.24619    0.30361
   49     -4.15081    0.12902
   50     -3.15864    0.00001
   51     -2.88338    0.00000
   52     -2.72663    0.00000
   53     -2.48631    0.00000
   54     -1.62893    0.00000
   55     -1.20372    0.00000
   56     -1.13495    0.00000
   57     -0.94999    0.00000
   58     -0.62053    0.00000
   59     -0.51078    0.00000
   60      0.37805    0.00000
   61      0.48107    0.00000
   62      1.28277    0.00000
   63      1.50436    0.00000
   64      1.55199    0.00000
   65      2.54230    0.00000
   66      3.22620    0.00000
   67      4.07628    0.00000
   68      4.49990    0.00000
   69      5.16642    0.00000
   70      5.31976    0.00000
   71      5.55504    0.00000
   72      5.66453    0.00000
   73      5.93219    0.00000
   74      6.33222    0.00000
   75      6.70694    0.00000
   76      7.07958    0.00000
   77      7.77389    0.00000
   78      7.94607    0.00000
   79      8.01204    0.00000
   80      8.28818    0.00000
   81      8.63626    0.00000
   82      8.70621    0.00000
   83      8.95513    0.00000
   84      9.01004    0.00000
   85      9.08630    0.00000
   86      9.22525    0.00000
   87      9.37829    0.00000
   88      9.47353    0.00000
   89      9.59147    0.00000
   90      9.70818    0.00000
   91      9.80949    0.00000
   92      9.91782    0.00000
   93      9.99074    0.00000
   94     10.16393    0.00000
   95     10.25291    0.00000
   96     10.25920    0.00000
   97     10.29682    0.00000


Forces in eV/Ang:
  0 C     0.00363    0.00691   -0.00576
  1 C    -0.03350    0.05417    0.04167
  2 C     0.02349    0.01354   -0.01631
  3 C     0.00178    0.00389   -0.01605
  4 C     0.04933   -0.03050    0.06145
  5 C    -0.00041   -0.02767   -0.02828
  6 C     0.04847   -0.01617   -0.07692
  7 C     0.01752    0.04072    0.00905
  8 C     0.03743   -0.05013    0.00843
  9 C    -0.00095    0.00735   -0.01897
 10 C    -0.01108   -0.02827    0.02319
 11 C    -0.01879    0.02129   -0.02615
 12 C     0.04366    0.02068    0.01214
 13 C    -0.00079   -0.02726    0.01366
 14 C     0.03488   -0.03287    0.02354
 15 C    -0.00448    0.04449   -0.00290
 16 C    -0.03215   -0.07381    0.01300
 17 C    -0.00028   -0.02939    0.00793
 18 C    -0.06008    0.00432    0.00135
 19 C     0.04404   -0.04989   -0.02973
 20 C     0.00773   -0.01721   -0.00743
 21 C     0.01553    0.01778    0.02108
 22 C     0.00750    0.00739   -0.02185
 23 C    -0.06024    0.05807    0.00632

