
  ___ ___ ___ _ _ _  
 |   |   |_  | | | | 
 | | | | | . | | | | 
 |__ |  _|___|_____|  1.3.0b1
 |___|_|             

User:   esb@s65n84.grendel.cscaa.dk
Date:   Thu Nov  9 12:21:12 2017
Arch:   x86_64
Pid:    58518
Python: 2.7.13
gpaw:   /home/esb/DFT/gpaw_git/gpaw
_gpaw:  /home/esb/DFT/gpaw_git/build/bin.linux-x86_64-2.7/gpaw-python
ase:    /home/esb/DFT/ase_git/ase (version 3.15.0b1)
numpy:  /comm/swstack/core/python/2.7.13/lib/python2.7/site-packages/numpy (version 1.13.3)
scipy:  /comm/swstack/core/python/2.7.13/lib/python2.7/site-packages/scipy (version 0.19.1)
units:  Angstrom and eV
cores:  16
Extra parameters: {'blacs': True}

Input parameters:
  basis: dzp
  gpts: [80 80 48]
  kpts: [1 1 1]
  maxiter: 99
  mixer: {backend: pulay,
          beta: 0.05,
          method: separate,
          nmaxold: 5,
          weight: 75}
  mode: lcao
  nbands: -50
  occupations: {name: fermi-dirac,
                width: 0.1}
  poissonsolver: {eps: 1e-07,
                  name: fd,
                  nn: 3,
                  relax: GS}
  xc: PBE

System changes: positions, numbers, cell, pbc, initial_charges, initial_magmoms 

Initialize ...

C-setup:
  name: Carbon
  id: 4aa54d4b901d75f77cc0ea3eec22967b
  Z: 6
  valence: 4
  core: 2
  charge: 0.0
  file: /home/esb/DFT/gpaw-setups-0.8.7929/C.PBE.gz
  cutoffs: 0.64(comp), 1.14(filt), 1.14(core), lmax=2
  valence states:
                energy  radius
    2s(2.00)   -13.751   0.635
    2p(2.00)    -5.284   0.635
    *s          13.461   0.635
    *p          21.927   0.635
    *d           0.000   0.635

  LCAO basis set for C:
    Name: dzp
    File: /home/esb/DFT/gpaw-setups-0.8.7929/C.dzp.basis.gz
    Number of radial functions: 5
    Number of spherical harmonics: 13
      l=0, rc=5.5469 Bohr: 2s-sz confined orbital
      l=1, rc=6.6719 Bohr: 2p-sz confined orbital
      l=0, rc=3.0312 Bohr: 2s-dz split-valence wave
      l=1, rc=3.7500 Bohr: 2p-dz split-valence wave
      l=2, rc=6.6719 Bohr: d-type Gaussian polarization

Reference energy: -24663.074771

Spin-paired calculation

Occupation numbers:
  Fermi-Dirac: width=0.1000 eV

Convergence criteria:
  Maximum total energy change: 0.0005 eV / electron
  Maximum integral of absolute density change: 0.0001 electrons
  Maximum integral of absolute eigenstate change: 4e-08 eV^2
  Maximum number of iterations: 99

Symmetries present (total): 1

  ( 1  0  0)
  ( 0  1  0)
  ( 0  0  1)

1 k-point (Gamma)
1 k-point in the irreducible part of the Brillouin zone
       k-points in crystal coordinates                weights
   0:     0.00000000    0.00000000    0.00000000          1/1

Wave functions: LCAO
  Diagonalizer: Serial LAPACK
  Atomic Correction: dense with blas
  Datatype: float
  Eigensolver: None 

LCAO using direct dense diagonalizer 

Densities:
  Coarse grid: 80*80*48 grid
  Fine grid: 160*160*96 grid
  Total Charge: 0.000000 

Density mixing:
  Method: separate
  Backend: pulay
  Linear mixing parameter: 0.05
  Mixing with 5 old densities
  Damping of long wave oscillations: 75 

Hamiltonian:
  XC and Coulomb potentials evaluated on a 160*160*96 grid
  Using the PBE Exchange-Correlation functional
  Interpolation: tri-quintic (5. degree polynomial)
  Poisson solver: Gauss-Seidel solver with 6 multi-grid levels
    Coarsest grid: 5 x 5 x 3 points
    Stencil: 6*3+1=19 point O(h^6) finite-difference Laplacian
    Max iterations: 1000
    Tolerance: 1.000000e-07 

Memory estimate:
  Process memory now: 77.55 MiB
  Calculator: 15.59 MiB
    Density: 6.13 MiB
      Arrays: 3.81 MiB
      Localized functions: 0.86 MiB
      Mixer: 1.46 MiB
    Hamiltonian: 5.40 MiB
      Arrays: 2.49 MiB
      XC: 0.00 MiB
      Poisson: 2.85 MiB
      vbar: 0.07 MiB
    Wavefunctions: 4.05 MiB
      C [qnM]: 0.23 MiB
      S, T [2 x qmm]: 1.49 MiB
      P [aqMi]: 0.01 MiB
      TCI: 0.00 MiB
      BasisFunctions: 2.33 MiB
      Eigensolver: 0.00 MiB

Total number of cores used: 16
Domain decomposition: 2 x 4 x 2

Number of atoms: 24
Number of atomic orbitals: 312
Number of bands in calculation: 98
Bands to converge: occupied states only
Number of valence electrons: 96

... initialized

Initializing position-dependent things.

Density initialized from atomic densities
           .--------------------------------------.  
          /|                                      |  
         / |                                      |  
        /  |                                      |  
       /   |                                      |  
      /    |                                      |  
     /     |                                      |  
    /      |                                      |  
   /       |        C                             |  
  /        |     C     C                          |  
 *         |  C     C     C  C                    |  
 |         |  C      C   C  C    C                |  
 |         .---C---C-C--C-----CC------------------.  
 |        /   C C   C     CC                     /   
 |       /             C                        /    
 |      /                                      /     
 |     /                                      /      
 |    /                                      /       
 |   /                                      /        
 |  /                                      /         
 | /                                      /          
 |/                                      /           
 *--------------------------------------*            

Positions:
   0 C      4.995003   10.182697    6.380800
   1 C      6.283654   10.053316    5.594718
   2 C      5.608339    8.829288    5.162834
   3 C      3.404266    8.101609    5.769791
   4 C      6.309963    7.599507    5.316909
   5 C      4.262619    9.210443    5.638993
   6 C      3.413498    6.859093    5.599143
   7 C      5.306728    3.583619    5.262527
   8 C      6.685490    3.888651    5.257409
   9 C      4.346675    4.405261    5.317237
  10 C      6.862283    5.351935    5.268821
  11 C      4.371770    5.818629    5.401640
  12 C      5.752234    6.250228    5.308784
  13 C      7.813038    7.306786    5.140267
  14 C      8.917301    8.151583    4.950659
  15 C     11.048060    8.827978    4.617804
  16 C     10.284975    7.575192    4.804414
  17 C      7.743082   10.209563    4.987110
  18 C      9.020752    9.647616    4.845610
  19 C     10.502401    6.227793    4.872294
  20 C      9.227852    3.906791    5.175470
  21 C      9.419030    5.315235    5.066994
  22 C      8.176236    3.209649    5.332080
  23 C      8.104981    5.894490    5.177121

Unit cell:
           periodic     x           y           z      points  spacing
  1. axis:    yes   16.000000    0.000000    0.000000    80     0.2000
  2. axis:    yes    0.000000   16.000000    0.000000    80     0.2000
  3. axis:    yes    0.000000    0.000000   10.000000    48     0.2083

Effective grid spacing dv^(1/3) = 0.2027

                     log10-error:    total        iterations:
           time      wfs    density  energy       fermi  poisson
iter:   1  12:21:14          +inf  -183.241308    3      6      
iter:   2  12:21:14         -0.89  -182.192276    4      3      
iter:   3  12:21:15         -0.94  -180.689019    34     3      
iter:   4  12:21:16         -1.05  -179.896987    4      3      
iter:   5  12:21:16         -1.16  -179.838716    34     3      
iter:   6  12:21:17         -1.28  -179.491546    3      3      
iter:   7  12:21:18         -1.51  -179.412149    3      3      
iter:   8  12:21:18         -1.64  -179.353821    3      3      
iter:   9  12:21:19         -1.85  -179.337144    3      2      
iter:  10  12:21:19         -1.93  -179.312228    4      2      
iter:  11  12:21:20         -2.15  -179.292626    3      3      
iter:  12  12:21:21         -2.50  -179.294125    3      2      
iter:  13  12:21:21         -2.61  -179.293253    3      2      
iter:  14  12:21:22         -2.71  -179.293724    3      2      
iter:  15  12:21:23         -2.91  -179.291177    3      2      
iter:  16  12:21:23         -3.18  -179.292975    2      1      
iter:  17  12:21:24         -3.26  -179.298277    2      1      
iter:  18  12:21:24         -3.51  -179.294324    2      1      
iter:  19  12:21:25         -3.65  -179.288719    2      1      
iter:  20  12:21:25         -3.71  -179.288318    2      1      
iter:  21  12:21:26         -3.79  -179.287618    2      1      
iter:  22  12:21:27         -3.86  -179.289118    2      1      
iter:  23  12:21:27         -3.90  -179.290510    2      1      
iter:  24  12:21:28         -3.98  -179.290443    2      1      
iter:  25  12:21:28         -4.26  -179.290730    2      1      

Converged after 25 iterations.

Dipole moment: (-0.457069, -0.092974, -0.091443) |e|*Ang

Energy contributions relative to reference atoms: (reference = -24663.074771)

Kinetic:        +89.013308
Potential:     -100.766510
External:        +0.000000
XC:            -170.339411
Entropy (-ST):   -0.334819
Local:           +2.969293
--------------------------
Free energy:   -179.458140
Extrapolated:  -179.290730

Fermi level: -4.37531

 Band  Eigenvalues  Occupancy
    0    -23.21903    2.00000
    1    -22.75814    2.00000
    2    -21.73038    2.00000
    3    -20.83924    2.00000
    4    -20.54154    2.00000
    5    -20.09554    2.00000
    6    -19.04102    2.00000
    7    -18.85506    2.00000
    8    -18.31813    2.00000
    9    -17.89648    2.00000
   10    -17.47641    2.00000
   11    -16.91285    2.00000
   12    -16.29143    2.00000
   13    -15.73265    2.00000
   14    -15.23734    2.00000
   15    -14.63530    2.00000
   16    -14.13490    2.00000
   17    -13.56388    2.00000
   18    -12.73464    2.00000
   19    -12.70131    2.00000
   20    -12.53135    2.00000
   21    -11.82236    2.00000
   22    -11.46434    2.00000
   23    -11.38813    2.00000
   24    -10.92579    2.00000
   25    -10.80426    2.00000
   26    -10.67975    2.00000
   27    -10.17579    2.00000
   28    -10.06168    2.00000
   29     -9.58715    2.00000
   30     -9.45396    2.00000
   31     -9.15569    2.00000
   32     -8.96813    2.00000
   33     -8.52651    2.00000
   34     -8.18913    2.00000
   35     -7.90997    2.00000
   36     -7.76828    2.00000
   37     -6.99966    2.00000
   38     -6.84760    2.00000
   39     -6.61297    2.00000
   40     -6.52666    2.00000
   41     -6.25769    2.00000
   42     -6.19940    2.00000
   43     -6.07536    2.00000
   44     -5.88943    2.00000
   45     -5.28615    1.99978
   46     -4.59853    1.80620
   47     -4.43928    1.30936
   48     -4.35074    0.87776
   49     -3.79145    0.00581
   50     -3.62172    0.00107
   51     -3.25625    0.00003
   52     -2.88125    0.00000
   53     -2.80005    0.00000
   54     -2.56256    0.00000
   55     -2.03991    0.00000
   56     -1.96446    0.00000
   57     -1.75493    0.00000
   58     -0.84487    0.00000
   59     -0.04866    0.00000
   60      0.55047    0.00000
   61      0.69719    0.00000
   62      1.31336    0.00000
   63      1.94325    0.00000
   64      2.19030    0.00000
   65      3.17221    0.00000
   66      3.55147    0.00000
   67      3.69308    0.00000
   68      4.18809    0.00000
   69      4.70651    0.00000
   70      4.89235    0.00000
   71      4.98799    0.00000
   72      5.45455    0.00000
   73      5.71851    0.00000
   74      6.08204    0.00000
   75      6.56083    0.00000
   76      6.67524    0.00000
   77      7.31104    0.00000
   78      7.39954    0.00000
   79      7.82481    0.00000
   80      8.23213    0.00000
   81      8.55193    0.00000
   82      8.56995    0.00000
   83      8.91352    0.00000
   84      9.01032    0.00000
   85      9.19917    0.00000
   86      9.25949    0.00000
   87      9.41972    0.00000
   88      9.45824    0.00000
   89      9.64210    0.00000
   90      9.69552    0.00000
   91      9.75180    0.00000
   92      9.87950    0.00000
   93      9.97297    0.00000
   94     10.05980    0.00000
   95     10.26544    0.00000
   96     10.39176    0.00000
   97     10.45769    0.00000


Forces in eV/Ang:
  0 C     1.01826    0.84048    0.03702
  1 C     4.37564    0.70352   -2.84696
  2 C     1.49487   -0.69332    0.41354
  3 C    -0.10699   -0.06836    0.08719
  4 C     1.36305   -1.27018   -1.28154
  5 C     0.14802   -0.25533   -0.21548
  6 C     0.10211    0.20396   -0.05580
  7 C     1.51798   -0.46534    0.06806
  8 C     2.60819   -1.57683    0.37654
  9 C    -0.39100    0.75818    0.07468
 10 C    -2.20776   -4.29546   -0.06399
 11 C    -0.34802   -0.81871    0.05116
 12 C     0.08367    0.65881    0.32711
 13 C    -0.20943    2.00345    0.14583
 14 C     0.15089    1.24337    0.45933
 15 C    -1.61590   -0.78806    0.01685
 16 C    -0.27285    2.77075   -0.16948
 17 C    -1.92825   -1.01944    2.49838
 18 C    -3.10934   -0.79754    0.57573
 19 C    -0.22079   -2.02082    0.11862
 20 C    -0.87747   -0.45816    0.16095
 21 C     1.28205    0.68737   -0.04381
 22 C    -3.39329    1.61477   -0.49615
 23 C     0.56794    3.05252   -0.21911

System changes: positions 

Initializing position-dependent things.

Density initialized from wave functions
           .--------------------------------------.  
          /|                                      |  
         / |                                      |  
        /  |                                      |  
       /   |                                      |  
      /    |                                      |  
     /     |                                      |  
    /      |                                      |  
   /       |        C                             |  
  /        |     C     C                          |  
 *         |  C     C     C  C                    |  
 |         |  C      C   C  C  C C                |  
 |         .---C---C-C--C-----C-------------------.  
 |        /   C C   C     CC                     /   
 |       /             C                        /    
 |      /                                      /     
 |     /                                      /      
 |    /                                      /       
 |   /                                      /        
 |  /                                      /         
 | /                                      /          
 |/                                      /           
 *--------------------------------------*            

Positions:
   0 C      5.002736   10.189079    6.381081
   1 C      6.316881   10.058658    5.573099
   2 C      5.619691    8.824023    5.165974
   3 C      3.403453    8.101090    5.770453
   4 C      6.320313    7.589861    5.307177
   5 C      4.263743    9.208504    5.637357
   6 C      3.414274    6.860642    5.598719
   7 C      5.318255    3.580085    5.263044
   8 C      6.705296    3.876677    5.260268
   9 C      4.343706    4.411018    5.317804
  10 C      6.845517    5.319317    5.268335
  11 C      4.369127    5.812412    5.402028
  12 C      5.752869    6.255231    5.311268
  13 C      7.811447    7.322000    5.141374
  14 C      8.918447    8.161025    4.954147
  15 C     11.035789    8.821994    4.617932
  16 C     10.282903    7.596232    4.803127
  17 C      7.728440   10.201821    5.006082
  18 C      8.997140    9.641560    4.849982
  19 C     10.500724    6.212447    4.873194
  20 C      9.221189    3.903312    5.176692
  21 C      9.428765    5.320455    5.066661
  22 C      8.150468    3.221911    5.328312
  23 C      8.109294    5.917670    5.175457

Unit cell:
           periodic     x           y           z      points  spacing
  1. axis:    yes   16.000000    0.000000    0.000000    80     0.2000
  2. axis:    yes    0.000000   16.000000    0.000000    80     0.2000
  3. axis:    yes    0.000000    0.000000   10.000000    48     0.2083

Effective grid spacing dv^(1/3) = 0.2027

                     log10-error:    total        iterations:
           time      wfs    density  energy       fermi  poisson
iter:   1  12:21:30          +inf  -180.479159    3      5      
iter:   2  12:21:31         -1.73  -180.312903    3      2      
iter:   3  12:21:32         -1.93  -180.233112    3      2      
iter:   4  12:21:32         -2.20  -180.221691    3      2      
iter:   5  12:21:33         -2.32  -180.214234    3      2      
iter:   6  12:21:34         -2.50  -180.212968    2      2      
iter:   7  12:21:34         -2.61  -180.211839    2      2      
iter:   8  12:21:35         -2.83  -180.211332    2      1      
iter:   9  12:21:35         -2.88  -180.211741    2      2      
iter:  10  12:21:36         -3.23  -180.211526    2      1      
iter:  11  12:21:36         -3.35  -180.211723    2      1      
iter:  12  12:21:37         -3.55  -180.212081    2      1      
iter:  13  12:21:38         -3.69  -180.212307    2      1      
iter:  14  12:21:38         -3.80  -180.212510    2      1      
iter:  15  12:21:39         -3.90  -180.212338    2      1      
iter:  16  12:21:39         -3.96  -180.212116    2      1      
iter:  17  12:21:40         -4.06  -180.212098    2      1      

Converged after 17 iterations.

Dipole moment: (-0.461904, -0.113844, -0.087872) |e|*Ang

Energy contributions relative to reference atoms: (reference = -24663.074771)

Kinetic:        +86.552529
Potential:      -99.194749
External:        +0.000000
XC:            -170.347077
Entropy (-ST):   -0.325884
Local:           +2.940142
--------------------------
Free energy:   -180.375040
Extrapolated:  -180.212098

Fermi level: -4.38133

 Band  Eigenvalues  Occupancy
    0    -23.10957    2.00000
    1    -22.63601    2.00000
    2    -21.75349    2.00000
    3    -20.84552    2.00000
    4    -20.54766    2.00000
    5    -20.11534    2.00000
    6    -19.08648    2.00000
    7    -18.92209    2.00000
    8    -18.36219    2.00000
    9    -17.84375    2.00000
   10    -17.55440    2.00000
   11    -16.94682    2.00000
   12    -16.30660    2.00000
   13    -15.69701    2.00000
   14    -15.18686    2.00000
   15    -14.68796    2.00000
   16    -14.19067    2.00000
   17    -13.62972    2.00000
   18    -12.80511    2.00000
   19    -12.71361    2.00000
   20    -12.53712    2.00000
   21    -11.85886    2.00000
   22    -11.48874    2.00000
   23    -11.40261    2.00000
   24    -10.85660    2.00000
   25    -10.72217    2.00000
   26    -10.65601    2.00000
   27    -10.24255    2.00000
   28    -10.19395    2.00000
   29     -9.58857    2.00000
   30     -9.46919    2.00000
   31     -9.17145    2.00000
   32     -9.05191    2.00000
   33     -8.53191    2.00000
   34     -8.19275    2.00000
   35     -7.91053    2.00000
   36     -7.72127    2.00000
   37     -7.03046    2.00000
   38     -6.85788    2.00000
   39     -6.58456    2.00000
   40     -6.51423    2.00000
   41     -6.27784    2.00000
   42     -6.17690    2.00000
   43     -6.09184    2.00000
   44     -5.86907    2.00000
   45     -5.28130    1.99975
   46     -4.62336    1.83672
   47     -4.44320    1.29984
   48     -4.35313    0.85995
   49     -3.72957    0.00295
   50     -3.59184    0.00074
   51     -3.28961    0.00004
   52     -2.86456    0.00000
   53     -2.79498    0.00000
   54     -2.51583    0.00000
   55     -2.02763    0.00000
   56     -1.93053    0.00000
   57     -1.72259    0.00000
   58     -0.81211    0.00000
   59      0.00714    0.00000
   60      0.41721    0.00000
   61      0.69552    0.00000
   62      1.37245    0.00000
   63      2.07383    0.00000
   64      2.22122    0.00000
   65      3.24527    0.00000
   66      3.70845    0.00000
   67      3.92216    0.00000
   68      4.36496    0.00000
   69      4.70269    0.00000
   70      4.93669    0.00000
   71      5.06250    0.00000
   72      5.46338    0.00000
   73      5.80497    0.00000
   74      6.07746    0.00000
   75      6.57253    0.00000
   76      6.72238    0.00000
   77      7.36600    0.00000
   78      7.42493    0.00000
   79      7.90556    0.00000
   80      8.16118    0.00000
   81      8.56341    0.00000
   82      8.61264    0.00000
   83      8.91424    0.00000
   84      9.01134    0.00000
   85      9.15179    0.00000
   86      9.20559    0.00000
   87      9.41525    0.00000
   88      9.47787    0.00000
   89      9.63276    0.00000
   90      9.69374    0.00000
   91      9.74850    0.00000
   92      9.81515    0.00000
   93      9.98865    0.00000
   94     10.04025    0.00000
   95     10.22970    0.00000
   96     10.39085    0.00000
   97     10.44853    0.00000


Forces in eV/Ang:
  0 C     0.99943    0.43180   -0.34603
  1 C     3.50931    0.37106   -2.60344
  2 C     1.31173   -0.33909    0.53498
  3 C    -0.10572    0.01617    0.07056
  4 C     1.05345   -0.65939   -1.12506
  5 C     0.81610    0.07269   -0.06943
  6 C     0.11262    0.04624   -0.04974
  7 C     0.50675    0.27695    0.11341
  8 C     1.91400   -1.80746    0.34352
  9 C     0.53543   -0.50484    0.00991
 10 C    -0.42383   -1.80251   -0.19451
 11 C    -0.27631   -0.22518    0.09192
 12 C     0.10158   -0.28284    0.24110
 13 C    -0.17905    1.30724    0.10288
 14 C     0.21334    1.30929    0.45292
 15 C    -1.26412   -0.41398   -0.08293
 16 C    -0.23671    1.01306   -0.03994
 17 C    -1.85478   -0.99331    2.33842
 18 C    -2.88207   -0.49203    0.54284
 19 C     0.13740   -0.48850   -0.00533
 20 C    -1.22693   -0.44650    0.19498
 21 C     0.48526    0.34812    0.05047
 22 C    -2.45577    1.70829   -0.51742
 23 C    -0.67692    1.58599   -0.09357

System changes: positions 

Initializing position-dependent things.

Density initialized from wave functions
           .--------------------------------------.  
          /|                                      |  
         / |                                      |  
        /  |                                      |  
       /   |                                      |  
      /    |                                      |  
     /     |                                      |  
    /      |                                      |  
   /       |        C                             |  
  /        |     C     C                          |  
 *         |  C     C     C  C                    |  
 |         |  C      C   C  C  C C                |  
 |         .---C---C-C--C-----C-------------------.  
 |        /   C C   C     CC                     /   
 |       /             C                        /    
 |      /                                      /     
 |     /                                      /      
 |    /                                      /       
 |   /                                      /        
 |  /                                      /         
 | /                                      /          
 |/                                      /           
 *--------------------------------------*            

Positions:
   0 C      5.011906   10.192920    6.377789
   1 C      6.348838   10.061964    5.549270
   2 C      5.631678    8.821017    5.170923
   3 C      3.402483    8.101264    5.771096
   4 C      6.329891    7.583992    5.296895
   5 C      4.271437    9.209270    5.636764
   6 C      3.415311    6.861019    5.598264
   7 C      5.322602    3.582852    5.264099
   8 C      6.722659    3.860013    5.263412
   9 C      4.348901    4.406002    5.317876
  10 C      6.842165    5.303521    5.266510
  11 C      4.366612    5.810524    5.402884
  12 C      5.753807    6.252349    5.313456
  13 C      7.809813    7.333792    5.142306
  14 C      8.920425    8.173065    4.958303
  15 C     11.024289    8.818306    4.617141
  16 C     10.280741    7.605002    4.802799
  17 C      7.711433   10.192710    5.027503
  18 C      8.970749    9.637135    4.854956
  19 C     10.502094    6.208425    4.873108
  20 C      9.209819    3.899217    5.178493
  21 C      9.432980    5.323548    5.067153
  22 C      8.128205    3.237623    5.323556
  23 C      8.102703    5.931788    5.174636

Unit cell:
           periodic     x           y           z      points  spacing
  1. axis:    yes   16.000000    0.000000    0.000000    80     0.2000
  2. axis:    yes    0.000000   16.000000    0.000000    80     0.2000
  3. axis:    yes    0.000000    0.000000   10.000000    48     0.2083

Effective grid spacing dv^(1/3) = 0.2027

                     log10-error:    total        iterations:
           time      wfs    density  energy       fermi  poisson
iter:   1  12:21:42          +inf  -181.110249    3      5      
iter:   2  12:21:43         -1.75  -180.948200    3      2      
iter:   3  12:21:43         -1.97  -180.872419    3      2      
iter:   4  12:21:44         -2.23  -180.855043    3      2      
iter:   5  12:21:45         -2.41  -180.849931    3      2      
iter:   6  12:21:45         -2.58  -180.848819    2      2      
iter:   7  12:21:46         -2.70  -180.848090    3      2      
iter:   8  12:21:46         -2.91  -180.846882    2      1      
iter:   9  12:21:47         -2.97  -180.848086    2      2      
iter:  10  12:21:48         -3.32  -180.848630    2      1      
iter:  11  12:21:48         -3.41  -180.848131    2      1      
iter:  12  12:21:49         -3.69  -180.848884    2      1      
iter:  13  12:21:49         -3.75  -180.849369    2      1      
iter:  14  12:21:50         -3.86  -180.848451    2      1      
iter:  15  12:21:50         -3.92  -180.848900    2      1      
iter:  16  12:21:51         -4.22  -180.849111    2      1      

Converged after 16 iterations.

Dipole moment: (-0.454855, -0.134161, -0.084869) |e|*Ang

Energy contributions relative to reference atoms: (reference = -24663.074771)

Kinetic:        +88.454802
Potential:     -100.955741
External:        +0.000000
XC:            -171.149614
Entropy (-ST):   -0.310613
Local:           +2.956748
--------------------------
Free energy:   -181.004418
Extrapolated:  -180.849111

Fermi level: -4.36532

 Band  Eigenvalues  Occupancy
    0    -23.06405    2.00000
    1    -22.56794    2.00000
    2    -21.75750    2.00000
    3    -20.86108    2.00000
    4    -20.57134    2.00000
    5    -20.12892    2.00000
    6    -19.15932    2.00000
    7    -18.97066    2.00000
    8    -18.38540    2.00000
    9    -17.84914    2.00000
   10    -17.60487    2.00000
   11    -16.97912    2.00000
   12    -16.36004    2.00000
   13    -15.71165    2.00000
   14    -15.13760    2.00000
   15    -14.74645    2.00000
   16    -14.23636    2.00000
   17    -13.63145    2.00000
   18    -12.89415    2.00000
   19    -12.74186    2.00000
   20    -12.51668    2.00000
   21    -11.86470    2.00000
   22    -11.53329    2.00000
   23    -11.42478    2.00000
   24    -10.80619    2.00000
   25    -10.66469    2.00000
   26    -10.62664    2.00000
   27    -10.32090    2.00000
   28    -10.25863    2.00000
   29     -9.57739    2.00000
   30     -9.49518    2.00000
   31     -9.19666    2.00000
   32     -9.09713    2.00000
   33     -8.54318    2.00000
   34     -8.19739    2.00000
   35     -7.94971    2.00000
   36     -7.67276    2.00000
   37     -7.06810    2.00000
   38     -6.86403    2.00000
   39     -6.61867    2.00000
   40     -6.50228    2.00000
   41     -6.31952    2.00000
   42     -6.18778    2.00000
   43     -6.08299    2.00000
   44     -5.86289    2.00000
   45     -5.26926    1.99976
   46     -4.65596    1.89632
   47     -4.42006    1.26704
   48     -4.33181    0.83400
   49     -3.68811    0.00229
   50     -3.54777    0.00056
   51     -3.22506    0.00002
   52     -2.79838    0.00000
   53     -2.76861    0.00000
   54     -2.45417    0.00000
   55     -2.04802    0.00000
   56     -1.89305    0.00000
   57     -1.70758    0.00000
   58     -0.79650    0.00000
   59      0.11045    0.00000
   60      0.43118    0.00000
   61      0.72708    0.00000
   62      1.46392    0.00000
   63      2.18742    0.00000
   64      2.27706    0.00000
   65      3.35080    0.00000
   66      3.79060    0.00000
   67      4.10254    0.00000
   68      4.50932    0.00000
   69      4.72705    0.00000
   70      4.90387    0.00000
   71      5.08213    0.00000
   72      5.49066    0.00000
   73      5.88341    0.00000
   74      6.13433    0.00000
   75      6.58538    0.00000
   76      6.71250    0.00000
   77      7.44816    0.00000
   78      7.50047    0.00000
   79      8.00958    0.00000
   80      8.10548    0.00000
   81      8.56939    0.00000
   82      8.65146    0.00000
   83      8.93865    0.00000
   84      8.98919    0.00000
   85      9.11334    0.00000
   86      9.16889    0.00000
   87      9.41100    0.00000
   88      9.50392    0.00000
   89      9.61755    0.00000
   90      9.68070    0.00000
   91      9.73040    0.00000
   92      9.78314    0.00000
   93     10.00462    0.00000
   94     10.03806    0.00000
   95     10.22860    0.00000
   96     10.38907    0.00000
   97     10.44783    0.00000


Forces in eV/Ang:
  0 C     0.96607    0.22327   -0.51473
  1 C     2.44826    0.14948   -2.15246
  2 C     1.11274   -0.14616    0.54736
  3 C     0.01139    0.10406    0.01699
  4 C     0.76025   -0.39269   -0.96145
  5 C     1.04816    0.07788    0.00638
  6 C     0.08974    0.09173   -0.01537
  7 C     0.83043   -0.01175    0.10260
  8 C     1.16736   -1.44161    0.29221
  9 C     0.25324   -0.25292    0.02272
 10 C    -0.11691   -0.96015   -0.18313
 11 C    -0.06354   -0.24280    0.07991
 12 C     0.07451   -0.56584    0.16829
 13 C    -0.10550    0.92160    0.05274
 14 C     0.09937    1.14916    0.47907
 15 C    -1.03442   -0.19432   -0.17577
 16 C    -0.22058    0.38672    0.02995
 17 C    -1.44217   -0.85456    2.01980
 18 C    -2.49057   -0.31750    0.44913
 19 C     0.22833   -0.09041   -0.03637
 20 C    -0.98496   -0.02790    0.14449
 21 C    -0.06999    0.18746    0.09993
 22 C    -2.03721    1.31507   -0.46751
 23 C    -0.49104    0.90389   -0.09266

System changes: positions 

Initializing position-dependent things.

Density initialized from wave functions
           .--------------------------------------.  
          /|                                      |  
         / |                                      |  
        /  |                                      |  
       /   |                                      |  
      /    |                                      |  
     /     |                                      |  
    /      |                                      |  
   /       |        C                             |  
  /        |     C     C                          |  
 *         |  C     C     C  C                    |  
 |         |  C      C   C  C  C C                |  
 |         .---C---C-C--C-----C-------------------.  
 |        /   C C   C     CC                     /   
 |       /             C                        /    
 |      /                                      /     
 |     /                                      /      
 |    /                                      /       
 |   /                                      /        
 |  /                                      /         
 | /                                      /          
 |/                                      /           
 *--------------------------------------*            

Positions:
   0 C      5.024432   10.195517    6.370850
   1 C      6.378342   10.063508    5.522304
   2 C      5.645757    8.819419    5.178018
   3 C      3.402968    8.102817    5.771175
   4 C      6.339185    7.579211    5.284708
   5 C      4.285323    9.210075    5.636964
   6 C      3.416409    6.862456    5.598158
   7 C      5.335071    3.581354    5.265376
   8 C      6.736228    3.842408    5.267101
   9 C      4.350754    4.404299    5.318254
  10 C      6.840287    5.291686    5.264242
  11 C      4.366345    5.806893    5.403865
  12 C      5.754690    6.244802    5.315502
  13 C      7.808626    7.345193    5.142879
  14 C      8.921351    8.187558    4.964636
  15 C     11.011205    8.816142    4.614649
  16 C     10.277883    7.609465    4.803302
  17 C      7.693745   10.181937    5.053060
  18 C      8.939210    9.633281    4.860571
  19 C     10.505088    6.207329    4.872630
  20 C      9.197901    3.900048    5.180210
  21 C      9.431021    5.325768    5.068535
  22 C      8.102170    3.253592    5.317612
  23 C      8.097690    5.942639    5.173342

Unit cell:
           periodic     x           y           z      points  spacing
  1. axis:    yes   16.000000    0.000000    0.000000    80     0.2000
  2. axis:    yes    0.000000   16.000000    0.000000    80     0.2000
  3. axis:    yes    0.000000    0.000000   10.000000    48     0.2083

Effective grid spacing dv^(1/3) = 0.2027

                     log10-error:    total        iterations:
           time      wfs    density  energy       fermi  poisson
iter:   1  12:21:53          +inf  -181.650192    3      5      
iter:   2  12:21:54         -1.73  -181.463062    3      2      
iter:   3  12:21:54         -1.95  -181.381596    2      2      
iter:   4  12:21:55         -2.20  -181.355745    2      2      
iter:   5  12:21:56         -2.42  -181.350875    2      2      
iter:   6  12:21:56         -2.58  -181.350381    3      2      
iter:   7  12:21:57         -2.67  -181.349494    3      2      
iter:   8  12:21:57         -2.86  -181.346459    2      1      
iter:   9  12:21:58         -2.97  -181.348989    2      2      
iter:  10  12:21:59         -3.27  -181.349318    2      1      
iter:  11  12:21:59         -3.37  -181.347401    2      1      
iter:  12  12:22:00         -3.52  -181.350076    2      1      
iter:  13  12:22:00         -3.62  -181.350559    2      1      
iter:  14  12:22:01         -3.82  -181.349722    2      1      
iter:  15  12:22:02         -3.94  -181.350124    2      1      
iter:  16  12:22:02         -4.02  -181.349821    2      1      

Converged after 16 iterations.

Dipole moment: (-0.445542, -0.145972, -0.081681) |e|*Ang

Energy contributions relative to reference atoms: (reference = -24663.074771)

Kinetic:        +92.043356
Potential:     -103.949127
External:        +0.000000
XC:            -172.268884
Entropy (-ST):   -0.294219
Local:           +2.971943
--------------------------
Free energy:   -181.496931
Extrapolated:  -181.349821

Fermi level: -4.34053

 Band  Eigenvalues  Occupancy
    0    -23.05638    2.00000
    1    -22.54386    2.00000
    2    -21.76891    2.00000
    3    -20.89018    2.00000
    4    -20.59045    2.00000
    5    -20.16209    2.00000
    6    -19.24740    2.00000
    7    -19.03151    2.00000
    8    -18.37953    2.00000
    9    -17.86907    2.00000
   10    -17.65246    2.00000
   11    -17.01678    2.00000
   12    -16.40195    2.00000
   13    -15.73001    2.00000
   14    -15.10935    2.00000
   15    -14.81188    2.00000
   16    -14.28675    2.00000
   17    -13.62511    2.00000
   18    -13.01003    2.00000
   19    -12.76494    2.00000
   20    -12.49709    2.00000
   21    -11.86214    2.00000
   22    -11.57515    2.00000
   23    -11.45293    2.00000
   24    -10.79722    2.00000
   25    -10.64975    2.00000
   26    -10.57655    2.00000
   27    -10.39701    2.00000
   28    -10.31306    2.00000
   29     -9.56793    2.00000
   30     -9.53944    2.00000
   31     -9.22558    2.00000
   32     -9.13308    2.00000
   33     -8.56115    2.00000
   34     -8.19264    2.00000
   35     -8.01568    2.00000
   36     -7.62592    2.00000
   37     -7.10816    2.00000
   38     -6.86709    2.00000
   39     -6.66798    2.00000
   40     -6.46085    2.00000
   41     -6.32059    2.00000
   42     -6.17525    2.00000
   43     -6.06688    2.00000
   44     -5.85355    2.00000
   45     -5.25653    1.99979
   46     -4.70084    1.94696
   47     -4.39031    1.24387
   48     -4.30143    0.80693
   49     -3.64687    0.00194
   50     -3.50652    0.00048
   51     -3.21759    0.00003
   52     -2.74431    0.00000
   53     -2.73388    0.00000
   54     -2.41125    0.00000
   55     -2.08640    0.00000
   56     -1.86033    0.00000
   57     -1.66621    0.00000
   58     -0.77335    0.00000
   59      0.22817    0.00000
   60      0.44381    0.00000
   61      0.74469    0.00000
   62      1.56850    0.00000
   63      2.25965    0.00000
   64      2.39815    0.00000
   65      3.47782    0.00000
   66      3.84953    0.00000
   67      4.23896    0.00000
   68      4.63933    0.00000
   69      4.77750    0.00000
   70      4.90114    0.00000
   71      5.11732    0.00000
   72      5.53715    0.00000
   73      5.96186    0.00000
   74      6.22043    0.00000
   75      6.62954    0.00000
   76      6.75244    0.00000
   77      7.51187    0.00000
   78      7.63265    0.00000
   79      8.00139    0.00000
   80      8.24355    0.00000
   81      8.58333    0.00000
   82      8.67956    0.00000
   83      8.89610    0.00000
   84      9.00089    0.00000
   85      9.11787    0.00000
   86      9.16474    0.00000
   87      9.40186    0.00000
   88      9.54052    0.00000
   89      9.61902    0.00000
   90      9.68499    0.00000
   91      9.73008    0.00000
   92      9.76028    0.00000
   93      9.99846    0.00000
   94     10.07147    0.00000
   95     10.23953    0.00000
   96     10.38200    0.00000
   97     10.45760    0.00000


Forces in eV/Ang:
  0 C     0.89770    0.15908   -0.54842
  1 C     0.95128    0.02266   -1.45312
  2 C     0.90771   -0.13995    0.47664
  3 C     0.17018    0.19423   -0.04147
  4 C     0.47217   -0.27030   -0.74296
  5 C     1.05458   -0.05281    0.01886
  6 C     0.13398    0.12391    0.00870
  7 C     0.20073    0.24926    0.13469
  8 C     0.43883   -0.89550    0.24485
  9 C     0.62714   -0.71562   -0.00006
 10 C     0.09117   -0.35458   -0.16472
 11 C    -0.01650   -0.13123    0.08951
 12 C     0.17243   -0.52721    0.08431
 13 C    -0.01844    0.52805   -0.00711
 14 C    -0.02163    0.84590    0.49735
 15 C    -0.82715   -0.05307   -0.21337
 16 C    -0.20102    0.12239    0.09406
 17 C    -0.55489   -0.58454    1.45667
 18 C    -1.87263   -0.12249    0.34574
 19 C     0.13007    0.00281   -0.02905
 20 C    -1.03519   -0.00808    0.15172
 21 C    -0.23281    0.21870    0.10479
 22 C    -1.02712    0.99998   -0.44963
 23 C    -0.42028    0.46617   -0.10018

System changes: positions 

Initializing position-dependent things.

Density initialized from wave functions
           .--------------------------------------.  
          /|                                      |  
         / |                                      |  
        /  |                                      |  
       /   |                                      |  
      /    |                                      |  
     /     |                                      |  
    /      |                                      |  
   /       |        C                             |  
  /        |     C     C                          |  
 *         |  C     C     C  C                    |  
 |         |  C      C   C  C  C C                |  
 |         .---C---C-C--C-----C-------------------.  
 |        /   C C   C     CC                     /   
 |       /             C                        /    
 |      /                                      /     
 |     /                                      /      
 |    /                                      /       
 |   /                                      /        
 |  /                                      /         
 | /                                      /          
 |/                                      /           
 *--------------------------------------*            

Positions:
   0 C      5.043222   10.199311    6.359869
   1 C      6.398886   10.064296    5.491877
   2 C      5.664833    8.816167    5.187799
   3 C      3.406682    8.106826    5.770260
   4 C      6.349282    7.572714    5.269031
   5 C      4.306412    9.208338    5.637204
   6 C      3.419082    6.865508    5.598394
   7 C      5.343118    3.583798    5.268025
   8 C      6.745750    3.824677    5.272207
   9 C      4.360573    4.393427    5.318461
  10 C      6.838612    5.280066    5.261118
  11 C      4.366353    5.802598    5.405599
  12 C      5.758086    6.235204    5.317354
  13 C      7.808281    7.357224    5.142756
  14 C      8.920565    8.204955    4.975101
  15 C     10.993495    8.814601    4.610211
  16 C     10.273620    7.614747    4.805088
  17 C      7.682215   10.169763    5.083586
  18 C      8.899970    9.630278    4.867727
  19 C     10.507301    6.204752    4.872224
  20 C      9.177773    3.900948    5.183161
  21 C      9.426706    5.330681    5.070631
  22 C      8.078630    3.273536    5.308377
  23 C      8.092260    5.954442    5.170962

Unit cell:
           periodic     x           y           z      points  spacing
  1. axis:    yes   16.000000    0.000000    0.000000    80     0.2000
  2. axis:    yes    0.000000   16.000000    0.000000    80     0.2000
  3. axis:    yes    0.000000    0.000000   10.000000    48     0.2083

Effective grid spacing dv^(1/3) = 0.2027

                     log10-error:    total        iterations:
           time      wfs    density  energy       fermi  poisson
iter:   1  12:22:04          +inf  -181.998201    3      5      
iter:   2  12:22:05         -1.72  -181.807210    3      2      
iter:   3  12:22:06         -1.93  -181.716635    3      2      
iter:   4  12:22:06         -2.18  -181.689616    2      2      
iter:   5  12:22:07         -2.43  -181.685256    2      2      
iter:   6  12:22:07         -2.55  -181.684987    2      2      
iter:   7  12:22:08         -2.63  -181.682860    3      2      
iter:   8  12:22:09         -2.88  -181.679277    2      1      
iter:   9  12:22:09         -2.98  -181.683262    2      2      
iter:  10  12:22:10         -3.24  -181.682591    2      1      
iter:  11  12:22:10         -3.35  -181.682962    2      1      
iter:  12  12:22:11         -3.56  -181.684782    2      1      
iter:  13  12:22:11         -3.66  -181.684358    2      1      
iter:  14  12:22:12         -3.73  -181.683283    2      1      
iter:  15  12:22:13         -3.94  -181.684246    2      1      
iter:  16  12:22:13         -4.05  -181.684776    2      1      

Converged after 16 iterations.

Dipole moment: (-0.432337, -0.158465, -0.078094) |e|*Ang

Energy contributions relative to reference atoms: (reference = -24663.074771)

Kinetic:       +100.112178
Potential:     -110.346614
External:        +0.000000
XC:            -174.297597
Entropy (-ST):   -0.287594
Local:           +2.991054
--------------------------
Free energy:   -181.828573
Extrapolated:  -181.684776

Fermi level: -4.31364

 Band  Eigenvalues  Occupancy
    0    -23.07985    2.00000
    1    -22.55404    2.00000
    2    -21.80266    2.00000
    3    -20.93023    2.00000
    4    -20.63428    2.00000
    5    -20.22125    2.00000
    6    -19.35999    2.00000
    7    -19.08056    2.00000
    8    -18.39563    2.00000
    9    -17.92414    2.00000
   10    -17.68963    2.00000
   11    -17.06699    2.00000
   12    -16.47575    2.00000
   13    -15.74651    2.00000
   14    -15.07759    2.00000
   15    -14.87675    2.00000
   16    -14.32477    2.00000
   17    -13.61235    2.00000
   18    -13.14200    2.00000
   19    -12.78656    2.00000
   20    -12.48877    2.00000
   21    -11.87710    2.00000
   22    -11.60861    2.00000
   23    -11.46522    2.00000
   24    -10.80698    2.00000
   25    -10.65972    2.00000
   26    -10.54548    2.00000
   27    -10.43459    2.00000
   28    -10.35331    2.00000
   29     -9.60180    2.00000
   30     -9.56301    2.00000
   31     -9.27043    2.00000
   32     -9.16600    2.00000
   33     -8.58837    2.00000
   34     -8.20103    2.00000
   35     -8.10239    2.00000
   36     -7.59224    2.00000
   37     -7.14906    2.00000
   38     -6.87866    2.00000
   39     -6.70844    2.00000
   40     -6.48476    2.00000
   41     -6.32592    2.00000
   42     -6.18380    2.00000
   43     -6.06012    2.00000
   44     -5.85854    2.00000
   45     -5.23606    1.99980
   46     -4.72456    1.96769
   47     -4.35804    1.21841
   48     -4.27553    0.81171
   49     -3.61937    0.00193
   50     -3.47300    0.00045
   51     -3.13657    0.00002
   52     -2.68258    0.00000
   53     -2.62279    0.00000
   54     -2.35023    0.00000
   55     -2.11989    0.00000
   56     -1.80063    0.00000
   57     -1.60344    0.00000
   58     -0.72716    0.00000
   59      0.35957    0.00000
   60      0.51254    0.00000
   61      0.81290    0.00000
   62      1.71181    0.00000
   63      2.33038    0.00000
   64      2.62202    0.00000
   65      3.61896    0.00000
   66      3.93668    0.00000
   67      4.32892    0.00000
   68      4.70243    0.00000
   69      4.83560    0.00000
   70      4.97557    0.00000
   71      5.16214    0.00000
   72      5.56937    0.00000
   73      5.97238    0.00000
   74      6.27043    0.00000
   75      6.74204    0.00000
   76      6.80850    0.00000
   77      7.59810    0.00000
   78      7.74115    0.00000
   79      7.97236    0.00000
   80      8.49134    0.00000
   81      8.60152    0.00000
   82      8.73397    0.00000
   83      8.85925    0.00000
   84      9.01677    0.00000
   85      9.11084    0.00000
   86      9.17808    0.00000
   87      9.38089    0.00000
   88      9.54772    0.00000
   89      9.62224    0.00000
   90      9.69368    0.00000
   91      9.74391    0.00000
   92      9.79929    0.00000
   93      9.99368    0.00000
   94     10.12561    0.00000
   95     10.25337    0.00000
   96     10.38156    0.00000
   97     10.47756    0.00000


Forces in eV/Ang:
  0 C     0.82570    0.18541   -0.56442
  1 C    -0.80785   -0.02992   -0.56400
  2 C     0.64928   -0.22404    0.29149
  3 C     0.34272    0.25488   -0.07957
  4 C     0.17837   -0.16529   -0.48566
  5 C     0.82424   -0.17750    0.05459
  6 C     0.21627    0.04297    0.00626
  7 C     0.48526   -0.26886    0.12080
  8 C    -0.41649   -0.14545    0.13794
  9 C     0.04531   -0.09475    0.06558
 10 C     0.30209    0.10178   -0.12387
 11 C     0.06762   -0.19618    0.08585
 12 C     0.06530   -0.38895   -0.01372
 13 C     0.05380    0.08222   -0.06612
 14 C     0.02347    0.36404    0.41759
 15 C    -0.63005    0.05044   -0.25318
 16 C    -0.17273   -0.16672    0.17256
 17 C     0.36515   -0.07122    0.83059
 18 C    -0.98339    0.03848    0.21466
 19 C     0.05889    0.13104   -0.01384
 20 C    -0.40415    0.45846    0.05170
 21 C    -0.38450    0.10876    0.10665
 22 C    -0.41292    0.20406   -0.30459
 23 C    -0.34848    0.04682   -0.08247

System changes: positions 

Initializing position-dependent things.

Density initialized from wave functions
           .--------------------------------------.  
          /|                                      |  
         / |                                      |  
        /  |                                      |  
       /   |                                      |  
      /    |                                      |  
     /     |                                      |  
    /      |                                      |  
   /       |        C                             |  
  /        |     C     C                          |  
 *         |  C     C     C  C                    |  
 |         |  C      C   C  C  C C                |  
 |         .---C---C-C--C-----C-------------------.  
 |        /   C C   C     CC                     /   
 |       /             C                        /    
 |      /                                      /     
 |     /                                      /      
 |    /                                      /       
 |   /                                      /        
 |  /                                      /         
 | /                                      /          
 |/                                      /           
 *--------------------------------------*            

Positions:
   0 C      5.068613   10.205843    6.344323
   1 C      6.396340   10.065089    5.464900
   2 C      5.687422    8.809251    5.197946
   3 C      3.414915    8.113410    5.768439
   4 C      6.358730    7.565000    5.251381
   5 C      4.331190    9.203682    5.638088
   6 C      3.424696    6.867739    5.598506
   7 C      5.358354    3.578384    5.271578
   8 C      6.744639    3.812827    5.277464
   9 C      4.364397    4.388766    5.320018
  10 C      6.841001    5.271423    5.257324
  11 C      4.367169    5.795778    5.408082
  12 C      5.760743    6.224740    5.318242
  13 C      7.808929    7.366322    5.141576
  14 C      8.921087    8.220626    4.988163
  15 C     10.971602    8.813851    4.603424
  16 C     10.268100    7.617421    4.809039
  17 C      7.682611   10.162402    5.115589
  18 C      8.860788    9.628754    4.875633
  19 C     10.508988    6.203504    4.871973
  20 C      9.160909    3.910038    5.185527
  21 C      9.419259    5.335724    5.073516
  22 C      8.056361    3.287378    5.298019
  23 C      8.083759    5.964362    5.168088

Unit cell:
           periodic     x           y           z      points  spacing
  1. axis:    yes   16.000000    0.000000    0.000000    80     0.2000
  2. axis:    yes    0.000000   16.000000    0.000000    80     0.2000
  3. axis:    yes    0.000000    0.000000   10.000000    48     0.2083

Effective grid spacing dv^(1/3) = 0.2027

                     log10-error:    total        iterations:
           time      wfs    density  energy       fermi  poisson
iter:   1  12:22:15          +inf  -182.033652    3      5      
iter:   2  12:22:16         -1.82  -181.919465    3      2      
iter:   3  12:22:17         -2.02  -181.866235    2      2      
iter:   4  12:22:17         -2.27  -181.851290    2      2      
iter:   5  12:22:18         -2.49  -181.848189    2      2      
iter:   6  12:22:18         -2.61  -181.847953    2      2      
iter:   7  12:22:19         -2.69  -181.846308    3      2      
iter:   8  12:22:20         -2.99  -181.844776    2      1      
iter:   9  12:22:20         -3.08  -181.846950    2      2      
iter:  10  12:22:21         -3.34  -181.846571    2      1      
iter:  11  12:22:21         -3.44  -181.847067    2      1      
iter:  12  12:22:22         -3.65  -181.847592    2      1      
iter:  13  12:22:23         -3.74  -181.847057    2      1      
iter:  14  12:22:23         -3.89  -181.846617    2      1      
iter:  15  12:22:24         -4.10  -181.847312    2      1      

Converged after 15 iterations.

Dipole moment: (-0.399567, -0.154036, -0.078599) |e|*Ang

Energy contributions relative to reference atoms: (reference = -24663.074771)

Kinetic:       +107.393520
Potential:     -115.970921
External:        +0.000000
XC:            -176.122852
Entropy (-ST):   -0.290472
Local:           +2.998176
--------------------------
Free energy:   -181.992548
Extrapolated:  -181.847312

Fermi level: -4.30759

 Band  Eigenvalues  Occupancy
    0    -23.13433    2.00000
    1    -22.60061    2.00000
    2    -21.86398    2.00000
    3    -20.96642    2.00000
    4    -20.69658    2.00000
    5    -20.26449    2.00000
    6    -19.42926    2.00000
    7    -19.10897    2.00000
    8    -18.39452    2.00000
    9    -17.95607    2.00000
   10    -17.71993    2.00000
   11    -17.11143    2.00000
   12    -16.50386    2.00000
   13    -15.73346    2.00000
   14    -15.10166    2.00000
   15    -14.92454    2.00000
   16    -14.35610    2.00000
   17    -13.61032    2.00000
   18    -13.24360    2.00000
   19    -12.79353    2.00000
   20    -12.49745    2.00000
   21    -11.89093    2.00000
   22    -11.65016    2.00000
   23    -11.46830    2.00000
   24    -10.82532    2.00000
   25    -10.70322    2.00000
   26    -10.57216    2.00000
   27    -10.42602    2.00000
   28    -10.36337    2.00000
   29     -9.65917    2.00000
   30     -9.57755    2.00000
   31     -9.30476    2.00000
   32     -9.22431    2.00000
   33     -8.61569    2.00000
   34     -8.24945    2.00000
   35     -8.12911    2.00000
   36     -7.60448    2.00000
   37     -7.16813    2.00000
   38     -6.88296    2.00000
   39     -6.72014    2.00000
   40     -6.46730    2.00000
   41     -6.28114    2.00000
   42     -6.15884    2.00000
   43     -6.04581    2.00000
   44     -5.87282    2.00000
   45     -5.20903    1.99976
   46     -4.71509    1.96659
   47     -4.34534    1.18656
   48     -4.27630    0.84482
   49     -3.60652    0.00180
   50     -3.47081    0.00046
   51     -3.13922    0.00002
   52     -2.62201    0.00000
   53     -2.54404    0.00000
   54     -2.32752    0.00000
   55     -2.13819    0.00000
   56     -1.76353    0.00000
   57     -1.54443    0.00000
   58     -0.67507    0.00000
   59      0.41014    0.00000
   60      0.59164    0.00000
   61      0.89557    0.00000
   62      1.88757    0.00000
   63      2.38894    0.00000
   64      2.87222    0.00000
   65      3.72562    0.00000
   66      4.02411    0.00000
   67      4.40809    0.00000
   68      4.73651    0.00000
   69      4.92079    0.00000
   70      5.04461    0.00000
   71      5.29495    0.00000
   72      5.62436    0.00000
   73      6.03229    0.00000
   74      6.26068    0.00000
   75      6.85034    0.00000
   76      6.93056    0.00000
   77      7.69169    0.00000
   78      7.81825    0.00000
   79      8.01598    0.00000
   80      8.60725    0.00000
   81      8.67726    0.00000
   82      8.78695    0.00000
   83      8.85755    0.00000
   84      9.05544    0.00000
   85      9.12760    0.00000
   86      9.21528    0.00000
   87      9.38701    0.00000
   88      9.55455    0.00000
   89      9.63435    0.00000
   90      9.70322    0.00000
   91      9.74602    0.00000
   92      9.87346    0.00000
   93     10.00245    0.00000
   94     10.14737    0.00000
   95     10.28643    0.00000
   96     10.38421    0.00000
   97     10.48804    0.00000


Forces in eV/Ang:
  0 C     0.66166    0.20168   -0.52687
  1 C    -1.30130    0.18210   -0.01695
  2 C     0.29570   -0.35074    0.02990
  3 C     0.48285    0.03256   -0.10357
  4 C    -0.07405   -0.17374   -0.22425
  5 C     0.47076   -0.24294    0.08874
  6 C     0.27031    0.18849    0.01494
  7 C    -0.62685    0.01885    0.14427
  8 C    -0.61734    0.34806    0.03662
  9 C     0.44121   -0.54103    0.06842
 10 C     0.10345    0.53647   -0.05554
 11 C     0.03050   -0.04014    0.09454
 12 C     0.17028   -0.19977   -0.12340
 13 C     0.17562   -0.19436   -0.12213
 14 C     0.06154   -0.18765    0.30455
 15 C    -0.48350    0.07210   -0.28657
 16 C    -0.00784   -0.29355    0.19316
 17 C    -0.00973    0.58516    0.62165
 18 C     0.07447   -0.01865    0.08422
 19 C    -0.10737    0.09167    0.04703
 20 C    -0.38100    0.33952    0.04158
 21 C    -0.33887    0.20819    0.06857
 22 C     0.65203   -0.17708   -0.23522
 23 C    -0.03613   -0.26743   -0.09707

System changes: positions 

Initializing position-dependent things.

Density initialized from wave functions
           .--------------------------------------.  
          /|                                      |  
         / |                                      |  
        /  |                                      |  
       /   |                                      |  
      /    |                                      |  
     /     |                                      |  
    /      |                                      |  
   /       |        C                             |  
  /        |     C     C  C                       |  
 *         |  C     C        C                    |  
 |         |  C      C   C  C  C C                |  
 |         .---C---C-C--C-----C-------------------.  
 |        /   C C   C     CC                     /   
 |       /             C                        /    
 |      /                                      /     
 |     /                                      /      
 |    /                                      /       
 |   /                                      /        
 |  /                                      /         
 | /                                      /          
 |/                                      /           
 *--------------------------------------*            

Positions:
   0 C      5.097801   10.214934    6.325184
   1 C      6.378659   10.070535    5.443641
   2 C      5.708682    8.797287    5.205025
   3 C      3.428797    8.117433    5.765554
   4 C      6.365156    7.554921    5.234598
   5 C      4.354770    9.195968    5.639991
   6 C      3.433294    6.873231    5.598771
   7 C      5.357480    3.574770    5.276525
   8 C      6.737133    3.809758    5.281838
   9 C      4.374430    4.376992    5.322384
  10 C      6.840088    5.269290    5.253990
  11 C      4.367652    5.789630    5.411423
  12 C      5.765746    6.215900    5.316923
  13 C      7.812378    7.371467    5.138790
  14 C      8.922903    8.228132    5.002338
  15 C     10.946728    8.813388    4.593948
  16 C     10.264420    7.618089    4.814718
  17 C      7.677750   10.167890    5.150998
  18 C      8.834344    9.625871    4.882821
  19 C     10.507525    6.201011    4.872975
  20 C      9.142235    3.921017    5.187971
  21 C      9.410567    5.343888    5.076421
  22 C      8.050038    3.294835    5.286628
  23 C      8.079578    5.970226    5.164141

Unit cell:
           periodic     x           y           z      points  spacing
  1. axis:    yes   16.000000    0.000000    0.000000    80     0.2000
  2. axis:    yes    0.000000   16.000000    0.000000    80     0.2000
  3. axis:    yes    0.000000    0.000000   10.000000    48     0.2083

Effective grid spacing dv^(1/3) = 0.2027

                     log10-error:    total        iterations:
           time      wfs    density  energy       fermi  poisson
iter:   1  12:22:26          +inf  -182.004305    3      5      
iter:   2  12:22:27         -2.10  -181.977939    3      2      
iter:   3  12:22:27         -2.28  -181.968872    2      2      
iter:   4  12:22:28         -2.40  -181.962255    3      2      
iter:   5  12:22:28         -2.59  -181.960023    3      2      
iter:   6  12:22:29         -2.77  -181.959999    2      2      
iter:   7  12:22:30         -2.92  -181.955314    2      1      
iter:   8  12:22:30         -3.16  -181.958135    2      1      
iter:   9  12:22:31         -3.25  -181.958512    2      1      
iter:  10  12:22:31         -3.44  -181.957983    2      1      
iter:  11  12:22:32         -3.52  -181.961599    2      1      
iter:  12  12:22:33         -3.67  -181.962519    2      1      
iter:  13  12:22:33         -3.57  -181.959304    2      1      
iter:  14  12:22:34         -4.02  -181.960621    2      1      

Converged after 14 iterations.

Dipole moment: (-0.385571, -0.147207, -0.075980) |e|*Ang

Energy contributions relative to reference atoms: (reference = -24663.074771)

Kinetic:       +114.735232
Potential:     -121.649852
External:        +0.000000
XC:            -177.918118
Entropy (-ST):   -0.296278
Local:           +3.020256
--------------------------
Free energy:   -182.108761
Extrapolated:  -181.960621

Fermi level: -4.30361

 Band  Eigenvalues  Occupancy
    0    -23.20049    2.00000
    1    -22.66029    2.00000
    2    -21.92216    2.00000
    3    -20.98784    2.00000
    4    -20.75639    2.00000
    5    -20.27597    2.00000
    6    -19.46264    2.00000
    7    -19.12785    2.00000
    8    -18.42428    2.00000
    9    -18.01569    2.00000
   10    -17.72864    2.00000
   11    -17.12438    2.00000
   12    -16.54889    2.00000
   13    -15.74312    2.00000
   14    -15.12306    2.00000
   15    -14.94102    2.00000
   16    -14.36722    2.00000
   17    -13.61324    2.00000
   18    -13.26700    2.00000
   19    -12.78624    2.00000
   20    -12.51555    2.00000
   21    -11.91455    2.00000
   22    -11.67378    2.00000
   23    -11.47125    2.00000
   24    -10.82885    2.00000
   25    -10.74069    2.00000
   26    -10.60143    2.00000
   27    -10.43256    2.00000
   28    -10.35459    2.00000
   29     -9.71360    2.00000
   30     -9.60865    2.00000
   31     -9.34472    2.00000
   32     -9.23456    2.00000
   33     -8.63611    2.00000
   34     -8.30105    2.00000
   35     -8.13092    2.00000
   36     -7.61656    2.00000
   37     -7.17701    2.00000
   38     -6.89097    2.00000
   39     -6.72024    2.00000
   40     -6.50463    2.00000
   41     -6.29152    2.00000
   42     -6.17861    2.00000
   43     -6.04192    2.00000
   44     -5.88310    2.00000
   45     -5.19271    1.99972
   46     -4.68851    1.95829
   47     -4.33402    1.15088
   48     -4.28125    0.88867
   49     -3.61179    0.00198
   50     -3.46458    0.00045
   51     -3.06120    0.00001
   52     -2.56743    0.00000
   53     -2.46029    0.00000
   54     -2.27488    0.00000
   55     -2.13640    0.00000
   56     -1.71878    0.00000
   57     -1.51090    0.00000
   58     -0.63492    0.00000
   59      0.46010    0.00000
   60      0.67978    0.00000
   61      1.01726    0.00000
   62      2.08432    0.00000
   63      2.44709    0.00000
   64      3.08115    0.00000
   65      3.75861    0.00000
   66      4.09207    0.00000
   67      4.47901    0.00000
   68      4.78987    0.00000
   69      4.99732    0.00000
   70      5.12100    0.00000
   71      5.35328    0.00000
   72      5.67716    0.00000
   73      6.00416    0.00000
   74      6.22777    0.00000
   75      6.90075    0.00000
   76      7.05823    0.00000
   77      7.76654    0.00000
   78      7.90182    0.00000
   79      8.07817    0.00000
   80      8.63714    0.00000
   81      8.76179    0.00000
   82      8.86471    0.00000
   83      8.89187    0.00000
   84      9.08273    0.00000
   85      9.16383    0.00000
   86      9.21269    0.00000
   87      9.38017    0.00000
   88      9.55095    0.00000
   89      9.64704    0.00000
   90      9.72406    0.00000
   91      9.76924    0.00000
   92      9.92298    0.00000
   93     10.00595    0.00000
   94     10.15160    0.00000
   95     10.33214    0.00000
   96     10.39346    0.00000
   97     10.48128    0.00000


Forces in eV/Ang:
  0 C     0.29026    0.14102   -0.51146
  1 C    -0.97474    0.38762    0.22610
  2 C    -0.14472   -0.32389   -0.18937
  3 C     0.51754    0.21903   -0.03963
  4 C    -0.06115   -0.08572    0.01375
  5 C     0.25127   -0.20645    0.14462
  6 C     0.33249   -0.25032   -0.04425
  7 C    -0.13404   -0.59784    0.11296
  8 C    -0.37489    0.49566   -0.03717
  9 C    -0.38594    0.29840    0.16043
 10 C     0.16642    0.45406   -0.01535
 11 C     0.08275   -0.03098    0.05929
 12 C    -0.12652   -0.04391   -0.20062
 13 C     0.13835   -0.49988   -0.13686
 14 C     0.07246   -0.35750    0.20023
 15 C    -0.32396    0.14322   -0.31994
 16 C     0.11742   -0.45343    0.18581
 17 C     0.07460    0.73192    0.36783
 18 C     0.17822    0.17553    0.15632
 19 C    -0.10582    0.11314    0.10676
 20 C     0.29885    0.56082   -0.03564
 21 C    -0.22256    0.09309    0.00227
 22 C     0.19814   -0.58450   -0.12858
 23 C     0.01998   -0.32046   -0.09830

System changes: positions 

Initializing position-dependent things.

Density initialized from wave functions
           .--------------------------------------.  
          /|                                      |  
         / |                                      |  
        /  |                                      |  
       /   |                                      |  
      /    |                                      |  
     /     |                                      |  
    /      |                                      |  
   /       |        C                             |  
  /        |     C     C  C                       |  
 *         |  C     C       C                     |  
 |         |  C      C   C  C  C C                |  
 |         .---C---C-C--C-----C-------------------.  
 |        /   C C   C     CC                     /   
 |       /             C                        /    
 |      /                                      /     
 |     /                                      /      
 |    /                                      /       
 |   /                                      /        
 |  /                                      /         
 | /                                      /          
 |/                                      /           
 *--------------------------------------*            

Positions:
   0 C      5.126317   10.225035    6.301378
   1 C      6.355293   10.082132    5.426777
   2 C      5.724386    8.782056    5.207998
   3 C      3.448016    8.124793    5.762899
   4 C      6.371114    7.544589    5.220222
   5 C      4.378314    9.186621    5.643768
   6 C      3.445806    6.872489    5.598041
   7 C      5.356235    3.561703    5.282402
   8 C      6.728950    3.812669    5.285149
   9 C      4.375556    4.373109    5.327028
  10 C      6.841429    5.271311    5.250864
  11 C      4.368939    5.783963    5.415097
  12 C      5.767215    6.208321    5.312894
  13 C      7.816915    7.368991    5.134527
  14 C      8.925756    8.230214    5.017355
  15 C     10.920093    8.814776    4.581138
  16 C     10.263235    7.613016    4.822102
  17 C      7.673051   10.182464    5.187951
  18 C      8.811445    9.626182    4.892147
  19 C     10.504778    6.199778    4.875634
  20 C      9.131524    3.938178    5.189540
  21 C      9.401482    5.352302    5.078654
  22 C      8.043212    3.293449    5.274866
  23 C      8.075508    5.972541    5.159257

Unit cell:
           periodic     x           y           z      points  spacing
  1. axis:    yes   16.000000    0.000000    0.000000    80     0.2000
  2. axis:    yes    0.000000   16.000000    0.000000    80     0.2000
  3. axis:    yes    0.000000    0.000000   10.000000    48     0.2083

Effective grid spacing dv^(1/3) = 0.2027

                     log10-error:    total        iterations:
           time      wfs    density  energy       fermi  poisson
iter:   1  12:22:36          +inf  -182.084793    3      5      
iter:   2  12:22:36         -2.16  -182.065106    2      2      
iter:   3  12:22:37         -2.32  -182.058034    3      1      
iter:   4  12:22:38         -2.40  -182.052724    3      2      
iter:   5  12:22:38         -2.58  -182.051940    3      2      
iter:   6  12:22:39         -2.69  -182.055098    3      2      
iter:   7  12:22:39         -2.57  -182.053228    3      1      
iter:   8  12:22:40         -2.67  -182.050693    3      2      
iter:   9  12:22:41         -3.29  -182.050529    2      1      
iter:  10  12:22:41         -3.45  -182.050488    2      1      
iter:  11  12:22:42         -3.65  -182.050694    2      1      
iter:  12  12:22:42         -3.73  -182.050544    2      1      
iter:  13  12:22:43         -3.86  -182.050284    2      1      
iter:  14  12:22:44         -4.13  -182.050510    2      1      

Converged after 14 iterations.

Dipole moment: (-0.369464, -0.120430, -0.075705) |e|*Ang

Energy contributions relative to reference atoms: (reference = -24663.074771)

Kinetic:       +118.398919
Potential:     -124.391708
External:        +0.000000
XC:            -178.904777
Entropy (-ST):   -0.305527
Local:           +2.999820
--------------------------
Free energy:   -182.203273
Extrapolated:  -182.050510

Fermi level: -4.30483

 Band  Eigenvalues  Occupancy
    0    -23.27253    2.00000
    1    -22.72918    2.00000
    2    -21.95884    2.00000
    3    -21.00833    2.00000
    4    -20.79205    2.00000
    5    -20.27432    2.00000
    6    -19.46037    2.00000
    7    -19.14389    2.00000
    8    -18.43158    2.00000
    9    -18.05781    2.00000
   10    -17.72409    2.00000
   11    -17.13026    2.00000
   12    -16.55463    2.00000
   13    -15.75239    2.00000
   14    -15.16929    2.00000
   15    -14.95462    2.00000
   16    -14.36536    2.00000
   17    -13.62995    2.00000
   18    -13.24679    2.00000
   19    -12.78450    2.00000
   20    -12.53470    2.00000
   21    -11.91304    2.00000
   22    -11.71243    2.00000
   23    -11.48551    2.00000
   24    -10.83357    2.00000
   25    -10.77559    2.00000
   26    -10.63828    2.00000
   27    -10.43143    2.00000
   28    -10.36950    2.00000
   29     -9.76778    2.00000
   30     -9.64054    2.00000
   31     -9.36019    2.00000
   32     -9.25035    2.00000
   33     -8.65123    2.00000
   34     -8.32416    2.00000
   35     -8.13211    2.00000
   36     -7.64143    2.00000
   37     -7.16708    2.00000
   38     -6.88396    2.00000
   39     -6.71171    2.00000
   40     -6.49037    2.00000
   41     -6.26137    2.00000
   42     -6.16916    2.00000
   43     -6.02972    2.00000
   44     -5.88362    2.00000
   45     -5.17945    1.99968
   46     -4.65293    1.94028
   47     -4.32462    1.09862
   48     -4.29655    0.95860
   49     -3.63210    0.00239
   50     -3.45641    0.00041
   51     -3.07591    0.00001
   52     -2.55998    0.00000
   53     -2.44779    0.00000
   54     -2.28848    0.00000
   55     -2.14379    0.00000
   56     -1.71306    0.00000
   57     -1.48651    0.00000
   58     -0.60205    0.00000
   59      0.47206    0.00000
   60      0.71784    0.00000
   61      1.08828    0.00000
   62      2.24449    0.00000
   63      2.45950    0.00000
   64      3.23768    0.00000
   65      3.73433    0.00000
   66      4.12619    0.00000
   67      4.55155    0.00000
   68      4.83864    0.00000
   69      5.03763    0.00000
   70      5.18982    0.00000
   71      5.43188    0.00000
   72      5.78294    0.00000
   73      6.09871    0.00000
   74      6.18876    0.00000
   75      6.93858    0.00000
   76      7.19143    0.00000
   77      7.81336    0.00000
   78      7.96579    0.00000
   79      8.16987    0.00000
   80      8.67277    0.00000
   81      8.79863    0.00000
   82      8.89930    0.00000
   83      8.95228    0.00000
   84      9.09508    0.00000
   85      9.22044    0.00000
   86      9.25962    0.00000
   87      9.40054    0.00000
   88      9.55465    0.00000
   89      9.66292    0.00000
   90      9.74477    0.00000
   91      9.80667    0.00000
   92      9.94424    0.00000
   93     10.00721    0.00000
   94     10.14229    0.00000
   95     10.36151    0.00000
   96     10.40283    0.00000
   97     10.47824    0.00000


Forces in eV/Ang:
  0 C    -0.16387    0.20828   -0.29714
  1 C    -0.22042    0.34670    0.21080
  2 C    -0.25562   -0.06212   -0.34169
  3 C     0.43107   -0.44383   -0.03066
  4 C    -0.09447   -0.00227    0.19283
  5 C    -0.02238   -0.11274    0.19195
  6 C     0.23341    0.21667    0.00885
  7 C    -0.48927   -0.33133    0.11019
  8 C    -0.01693    0.40636   -0.09935
  9 C    -0.20060    0.08097    0.17451
 10 C    -0.01722    0.20911    0.01313
 11 C     0.07458    0.03457    0.02328
 12 C    -0.11361    0.14237   -0.24331
 13 C     0.12397   -0.47671   -0.12320
 14 C     0.00714   -0.27286    0.07101
 15 C    -0.24540    0.06847   -0.31569
 16 C     0.24098   -0.26434    0.13185
 17 C     0.18169    0.66790    0.09623
 18 C    -0.01237    0.17641    0.33436
 19 C    -0.12940    0.03126    0.17923
 20 C    -0.04955    0.07095   -0.01068
 21 C     0.02213    0.03785   -0.08654
 22 C     0.49923   -0.32888   -0.07721
 23 C     0.12404   -0.28822   -0.08306

System changes: positions 

Initializing position-dependent things.

Density initialized from wave functions
           .--------------------------------------.  
          /|                                      |  
         / |                                      |  
        /  |                                      |  
       /   |                                      |  
      /    |                                      |  
     /     |                                      |  
    /      |                                      |  
   /       |        C                             |  
  /        |     C     C  C                       |  
 *         |   C    C       C                     |  
 |         |  C      C   C  C  C C                |  
 |         .---C---C-C--C-----C-------------------.  
 |        /   C C   C     CC                     /   
 |       /             C                        /    
 |      /                                      /     
 |     /                                      /      
 |    /                                      /       
 |   /                                      /        
 |  /                                      /         
 | /                                      /          
 |/                                      /           
 *--------------------------------------*            

Positions:
   0 C      5.143369   10.236796    6.279141
   1 C      6.337050   10.096576    5.417223
   2 C      5.731872    8.770586    5.203812
   3 C      3.469619    8.119434    5.760367
   4 C      6.373968    7.536985    5.213197
   5 C      4.394674    9.177996    5.650143
   6 C      3.458867    6.878126    5.597915
   7 C      5.345663    3.547235    5.288766
   8 C      6.723984    3.821292    5.285715
   9 C      4.373785    4.370638    5.333636
  10 C      6.841349    5.275035    5.248795
  11 C      4.371133    5.780401    5.418145
  12 C      5.766491    6.205817    5.305506
  13 C      7.822407    7.359292    5.129250
  14 C      8.927840    8.227740    5.029460
  15 C     10.895724    8.816548    4.565987
  16 C     10.266932    7.605698    4.829756
  17 C      7.673357   10.204587    5.216669
  18 C      8.792500    9.629333    4.905893
  19 C     10.500401    6.198991    4.881047
  20 C      9.120681    3.950213    5.190675
  21 C      9.396103    5.359072    5.078487
  22 C      8.047805    3.288132    5.264783
  23 C      8.074777    5.969707    5.154203

Unit cell:
           periodic     x           y           z      points  spacing
  1. axis:    yes   16.000000    0.000000    0.000000    80     0.2000
  2. axis:    yes    0.000000   16.000000    0.000000    80     0.2000
  3. axis:    yes    0.000000    0.000000   10.000000    48     0.2083

Effective grid spacing dv^(1/3) = 0.2027

                     log10-error:    total        iterations:
           time      wfs    density  energy       fermi  poisson
iter:   1  12:22:46          +inf  -182.145844    3      5      
iter:   2  12:22:46         -2.12  -182.127120    3      2      
iter:   3  12:22:47         -2.23  -182.113842    3      2      
iter:   4  12:22:48         -2.39  -182.108770    3      2      
iter:   5  12:22:48         -2.53  -182.106886    3      2      
iter:   6  12:22:49         -2.73  -182.106193    3      2      
iter:   7  12:22:49         -3.02  -182.105053    2      1      
iter:   8  12:22:50         -3.14  -182.105571    2      1      
iter:   9  12:22:51         -3.24  -182.105206    2      1      
iter:  10  12:22:51         -3.56  -182.105762    2      1      
iter:  11  12:22:52         -3.64  -182.106550    2      1      
iter:  12  12:22:52         -3.70  -182.105829    2      1      
iter:  13  12:22:53         -3.89  -182.106029    2      1      
iter:  14  12:22:54         -3.93  -182.106819    2      1      
iter:  15  12:22:54         -3.87  -182.105936    2      1      
iter:  16  12:22:55         -4.18  -182.106262    2      1      

Converged after 16 iterations.

Dipole moment: (-0.353496, -0.093813, -0.078790) |e|*Ang

Energy contributions relative to reference atoms: (reference = -24663.074771)

Kinetic:       +121.589796
Potential:     -126.835883
External:        +0.000000
XC:            -179.706140
Entropy (-ST):   -0.312178
Local:           +3.002054
--------------------------
Free energy:   -182.262352
Extrapolated:  -182.106262

Fermi level: -4.30081

 Band  Eigenvalues  Occupancy
    0    -23.29807    2.00000
    1    -22.76783    2.00000
    2    -21.96963    2.00000
    3    -21.02963    2.00000
    4    -20.79354    2.00000
    5    -20.27805    2.00000
    6    -19.46900    2.00000
    7    -19.15394    2.00000
    8    -18.44549    2.00000
    9    -18.08608    2.00000
   10    -17.72355    2.00000
   11    -17.11306    2.00000
   12    -16.55729    2.00000
   13    -15.77159    2.00000
   14    -15.21863    2.00000
   15    -14.94048    2.00000
   16    -14.35481    2.00000
   17    -13.64296    2.00000
   18    -13.19503    2.00000
   19    -12.78471    2.00000
   20    -12.55286    2.00000
   21    -11.88506    2.00000
   22    -11.73376    2.00000
   23    -11.51108    2.00000
   24    -10.84537    2.00000
   25    -10.80128    2.00000
   26    -10.63693    2.00000
   27    -10.41151    2.00000
   28    -10.38340    2.00000
   29     -9.79158    2.00000
   30     -9.65556    2.00000
   31     -9.36437    2.00000
   32     -9.24460    2.00000
   33     -8.66230    2.00000
   34     -8.32055    2.00000
   35     -8.15359    2.00000
   36     -7.66862    2.00000
   37     -7.17159    2.00000
   38     -6.89392    2.00000
   39     -6.71997    2.00000
   40     -6.49015    2.00000
   41     -6.26370    2.00000
   42     -6.17915    2.00000
   43     -6.03996    2.00000
   44     -5.90012    2.00000
   45     -5.16981    1.99966
   46     -4.62409    1.92410
   47     -4.31264    1.05907
   48     -4.30354    1.01366
   49     -3.65608    0.00316
   50     -3.42852    0.00033
   51     -3.07351    0.00001
   52     -2.53138    0.00000
   53     -2.43459    0.00000
   54     -2.24113    0.00000
   55     -2.12643    0.00000
   56     -1.68978    0.00000
   57     -1.47244    0.00000
   58     -0.57599    0.00000
   59      0.48575    0.00000
   60      0.77671    0.00000
   61      1.13210    0.00000
   62      2.31998    0.00000
   63      2.50700    0.00000
   64      3.33023    0.00000
   65      3.67211    0.00000
   66      4.13581    0.00000
   67      4.59404    0.00000
   68      4.87279    0.00000
   69      5.05696    0.00000
   70      5.24582    0.00000
   71      5.47599    0.00000
   72      5.83424    0.00000
   73      6.08162    0.00000
   74      6.23502    0.00000
   75      6.94777    0.00000
   76      7.25171    0.00000
   77      7.80549    0.00000
   78      7.99883    0.00000
   79      8.24249    0.00000
   80      8.69154    0.00000
   81      8.80569    0.00000
   82      8.92685    0.00000
   83      8.97182    0.00000
   84      9.10082    0.00000
   85      9.22346    0.00000
   86      9.35699    0.00000
   87      9.39508    0.00000
   88      9.55080    0.00000
   89      9.67573    0.00000
   90      9.76073    0.00000
   91      9.85037    0.00000
   92      9.95024    0.00000
   93     10.01173    0.00000
   94     10.14632    0.00000
   95     10.37132    0.00000
   96     10.41226    0.00000
   97     10.47249    0.00000


Forces in eV/Ang:
  0 C    -0.62099    0.27164    0.02624
  1 C     0.53908    0.10653   -0.05196
  2 C    -0.15265    0.27834   -0.38201
  3 C     0.33112    0.39995    0.13638
  4 C    -0.02648    0.07939    0.22216
  5 C    -0.14311   -0.05716    0.15204
  6 C     0.14750   -0.79536   -0.10990
  7 C    -0.13115   -0.10718    0.10420
  8 C     0.08384    0.02952   -0.12277
  9 C    -0.11675    0.04999    0.17950
 10 C    -0.13808   -0.12874   -0.00645
 11 C    -0.01288    0.12077   -0.00648
 12 C    -0.08221    0.19535   -0.18708
 13 C     0.04770   -0.19480   -0.08101
 14 C     0.00576    0.02015   -0.05068
 15 C    -0.28874   -0.03378   -0.30099
 16 C     0.25048    0.05536    0.06748
 17 C    -0.05734    0.57170   -0.03700
 18 C    -0.09740   -0.16308    0.46042
 19 C     0.01077   -0.11450    0.23132
 20 C     0.26832    0.02275   -0.06126
 21 C     0.20045   -0.13937   -0.12870
 22 C    -0.18595   -0.31113    0.00038
 23 C     0.10919   -0.17210   -0.06959

System changes: positions 

Initializing position-dependent things.

Density initialized from wave functions
           .--------------------------------------.  
          /|                                      |  
         / |                                      |  
        /  |                                      |  
       /   |                                      |  
      /    |                                      |  
     /     |                                      |  
[...]
    7    -19.27820    2.00000
    8    -18.38309    2.00000
    9    -18.16649    2.00000
   10    -18.08499    2.00000
   11    -16.95065    2.00000
   12    -16.48509    2.00000
   13    -16.10546    2.00000
   14    -15.51094    2.00000
   15    -14.68052    2.00000
   16    -14.64253    2.00000
   17    -13.66727    2.00000
   18    -13.43091    2.00000
   19    -12.91920    2.00000
   20    -12.77222    2.00000
   21    -12.16227    2.00000
   22    -11.99722    2.00000
   23    -11.09786    2.00000
   24    -10.90100    2.00000
   25    -10.73987    2.00000
   26    -10.63478    2.00000
   27    -10.55294    2.00000
   28     -9.98135    2.00000
   29     -9.83936    2.00000
   30     -9.61367    2.00000
   31     -9.51772    2.00000
   32     -9.26553    2.00000
   33     -8.74551    2.00000
   34     -8.40708    2.00000
   35     -8.30460    2.00000
   36     -7.25195    2.00000
   37     -7.15580    2.00000
   38     -7.03194    2.00000
   39     -6.94678    2.00000
   40     -6.59670    2.00000
   41     -6.46575    2.00000
   42     -6.35387    2.00000
   43     -6.17578    2.00000
   44     -6.13420    2.00000
   45     -5.13726    1.99815
   46     -4.65223    1.78810
   47     -4.56849    1.57014
   48     -4.36439    0.64358
   49     -3.31504    0.00003
   50     -3.24096    0.00001
   51     -2.86514    0.00000
   52     -2.83913    0.00000
   53     -2.50175    0.00000
   54     -2.39628    0.00000
   55     -2.06887    0.00000
   56     -1.25225    0.00000
   57     -1.11615    0.00000
   58     -0.68762    0.00000
   59      0.51896    0.00000
   60      0.71422    0.00000
   61      2.21196    0.00000
   62      2.72865    0.00000
   63      3.09101    0.00000
   64      3.40849    0.00000
   65      3.55457    0.00000
   66      3.81855    0.00000
   67      4.41980    0.00000
   68      4.68386    0.00000
   69      4.69328    0.00000
   70      5.50197    0.00000
   71      5.73634    0.00000
   72      6.04397    0.00000
   73      6.24927    0.00000
   74      6.47689    0.00000
   75      6.69235    0.00000
   76      7.08022    0.00000
   77      7.76216    0.00000
   78      7.82609    0.00000
   79      7.95390    0.00000
   80      8.24366    0.00000
   81      8.39341    0.00000
   82      8.66294    0.00000
   83      8.90228    0.00000
   84      8.95281    0.00000
   85      9.14023    0.00000
   86      9.22491    0.00000
   87      9.41246    0.00000
   88      9.45024    0.00000
   89      9.53975    0.00000
   90      9.65079    0.00000
   91      9.67437    0.00000
   92      9.83298    0.00000
   93     10.05264    0.00000
   94     10.15853    0.00000
   95     10.38750    0.00000
   96     10.45922    0.00000
   97     10.58390    0.00000


Forces in eV/Ang:
  0 C    -0.24547    0.10252   -0.01782
  1 C     0.06025   -0.10478    0.05268
  2 C     0.02576    0.08916   -0.06728
  3 C     0.15078   -0.01536    0.01480
  4 C    -0.00482   -0.07035   -0.01840
  5 C     0.08445    0.04187    0.00955
  6 C    -0.02961   -0.03927   -0.02949
  7 C     0.06836    0.12818   -0.00326
  8 C    -0.01733   -0.05991    0.00293
  9 C     0.06727    0.01655    0.01473
 10 C    -0.05420   -0.09076   -0.02660
 11 C    -0.00917   -0.03258    0.07644
 12 C    -0.01785   -0.12951    0.11002
 13 C     0.02351    0.18485    0.00867
 14 C     0.15925    0.17706    0.12682
 15 C    -0.05903   -0.17316   -0.02149
 16 C    -0.05446   -0.07155   -0.01269
 17 C     0.07445   -0.03509   -0.07719
 18 C    -0.11496   -0.15931    0.01769
 19 C     0.01714    0.18600    0.07014
 20 C    -0.08259   -0.06966   -0.00359
 21 C     0.05010   -0.02533   -0.04115
 22 C    -0.06308    0.12895   -0.09094
 23 C    -0.01229    0.09423    0.01255

System changes: positions 

Initializing position-dependent things.

Density initialized from wave functions
           .--------------------------------------.  
          /|                                      |  
         / |                                      |  
        /  |                                      |  
       /   |                                      |  
      /    |                                      |  
     /     |                                      |  
    /      |                                      |  
   /       |       C                              |  
  /        |     C    C   C                       |  
 *         |   C     C      C                     |  
 |         |  C       C  C  C  C                  |  
 |         .----C--C-C---C------C-----------------.  
 |        /    CC   C     CC   C                 /   
 |       /             C                        /    
 |      /                                      /     
 |     /                                      /      
 |    /                                      /       
 |   /                                      /        
 |  /                                      /         
 | /                                      /          
 |/                                      /           
 *--------------------------------------*            

Positions:
   0 C      4.707650   10.600535    5.869519
   1 C      6.081327   10.248331    5.568934
   2 C      5.782399    8.806343    5.431310
   3 C      3.472545    8.118849    5.656492
   4 C      6.505653    7.629195    5.251109
   5 C      4.371224    9.180729    5.676400
   6 C      3.536318    6.866028    5.566120
   7 C      5.391077    3.585044    5.381151
   8 C      6.762874    3.874599    5.291146
   9 C      4.451343    4.431701    5.428650
  10 C      6.956726    5.332397    5.206142
  11 C      4.499455    5.839049    5.411627
  12 C      5.891989    6.277877    5.276089
  13 C      7.993224    7.446295    5.086318
  14 C      8.985591    8.528712    4.973393
  15 C     10.365431    8.301192    4.733438
  16 C     10.723787    7.044263    4.693568
  17 C      7.439027   10.557911    5.414535
  18 C      8.426267    9.828677    5.163386
  19 C     10.788937    5.732443    4.727627
  20 C      9.114096    3.825253    5.123621
  21 C      9.495254    5.186654    4.969204
  22 C      8.020317    3.215791    5.260738
  23 C      8.242587    5.997696    5.070558

Unit cell:
           periodic     x           y           z      points  spacing
  1. axis:    yes   16.000000    0.000000    0.000000    80     0.2000
  2. axis:    yes    0.000000   16.000000    0.000000    80     0.2000
  3. axis:    yes    0.000000    0.000000   10.000000    48     0.2083

Effective grid spacing dv^(1/3) = 0.2027

                     log10-error:    total        iterations:
           time      wfs    density  energy       fermi  poisson
iter:   1  12:30:45          +inf  -184.684405    3      5      
iter:   2  12:30:46         -2.38  -184.678101    3      2      
iter:   3  12:30:46         -2.72  -184.676743    3      1      
iter:   4  12:30:47         -2.93  -184.675959    2      1      
iter:   5  12:30:48         -3.05  -184.675515    3      1      
iter:   6  12:30:48         -3.22  -184.673280    2      1      
iter:   7  12:30:49         -3.19  -184.676150    2      1      
iter:   8  12:30:49         -3.28  -184.677783    2      1      
iter:   9  12:30:50         -3.35  -184.675613    2      1      
iter:  10  12:30:50         -3.79  -184.677160    2      1      
iter:  11  12:30:51         -3.99  -184.676954    2      1      
iter:  12  12:30:52         -4.14  -184.676558    2      1      

Converged after 12 iterations.

Dipole moment: (-0.329261, -0.345173, -0.019993) |e|*Ang

Energy contributions relative to reference atoms: (reference = -24663.074771)

Kinetic:       +115.835717
Potential:     -123.864092
External:        +0.000000
XC:            -179.493950
Entropy (-ST):   -0.297997
Local:           +2.994765
--------------------------
Free energy:   -184.825557
Extrapolated:  -184.676558

Fermi level: -4.44209

 Band  Eigenvalues  Occupancy
    0    -22.96798    2.00000
    1    -22.51363    2.00000
    2    -21.55299    2.00000
    3    -21.09936    2.00000
    4    -20.47013    2.00000
    5    -20.41783    2.00000
    6    -19.56515    2.00000
    7    -19.28817    2.00000
    8    -18.37358    2.00000
    9    -18.17278    2.00000
   10    -18.08225    2.00000
   11    -16.95621    2.00000
   12    -16.49399    2.00000
   13    -16.10628    2.00000
   14    -15.50998    2.00000
   15    -14.68087    2.00000
   16    -14.64731    2.00000
   17    -13.66929    2.00000
   18    -13.43585    2.00000
   19    -12.91661    2.00000
   20    -12.77610    2.00000
   21    -12.17692    2.00000
   22    -12.00786    2.00000
   23    -11.10168    2.00000
   24    -10.90029    2.00000
   25    -10.74138    2.00000
   26    -10.64527    2.00000
   27    -10.55117    2.00000
   28     -9.98291    2.00000
   29     -9.82137    2.00000
   30     -9.61268    2.00000
   31     -9.52235    2.00000
   32     -9.25908    2.00000
   33     -8.74915    2.00000
   34     -8.41141    2.00000
   35     -8.30907    2.00000
   36     -7.25679    2.00000
   37     -7.15624    2.00000
   38     -7.03748    2.00000
   39     -6.95562    2.00000
   40     -6.59335    2.00000
   41     -6.46752    2.00000
   42     -6.34937    2.00000
   43     -6.17286    2.00000
   44     -6.13861    2.00000
   45     -5.13662    1.99808
   46     -4.65064    1.77898
   47     -4.57673    1.58708
   48     -4.36575    0.63583
   49     -3.31848    0.00003
   50     -3.22986    0.00001
   51     -2.85624    0.00000
   52     -2.83697    0.00000
   53     -2.48942    0.00000
   54     -2.39499    0.00000
   55     -2.04927    0.00000
   56     -1.23783    0.00000
   57     -1.11641    0.00000
   58     -0.68713    0.00000
   59      0.52091    0.00000
   60      0.72004    0.00000
   61      2.22087    0.00000
   62      2.73551    0.00000
   63      3.08769    0.00000
   64      3.41195    0.00000
   65      3.57356    0.00000
   66      3.81576    0.00000
   67      4.43603    0.00000
   68      4.69823    0.00000
   69      4.70395    0.00000
   70      5.50382    0.00000
   71      5.71986    0.00000
   72      6.02982    0.00000
   73      6.24245    0.00000
   74      6.50752    0.00000
   75      6.70727    0.00000
   76      7.08154    0.00000
   77      7.76864    0.00000
   78      7.82294    0.00000
   79      7.96966    0.00000
   80      8.24090    0.00000
   81      8.40744    0.00000
   82      8.66770    0.00000
   83      8.90828    0.00000
   84      8.95184    0.00000
   85      9.14960    0.00000
   86      9.23270    0.00000
   87      9.41221    0.00000
   88      9.45629    0.00000
   89      9.53858    0.00000
   90      9.64322    0.00000
   91      9.67924    0.00000
   92      9.83719    0.00000
   93     10.05160    0.00000
   94     10.15658    0.00000
   95     10.38847    0.00000
   96     10.46067    0.00000
   97     10.58179    0.00000


Forces in eV/Ang:
  0 C    -0.06938   -0.03034   -0.05502
  1 C     0.01147   -0.04529    0.03450
  2 C     0.05843    0.00290   -0.03421
  3 C     0.12697   -0.01568    0.00844
  4 C    -0.01974   -0.02648    0.00927
  5 C     0.03643    0.02989    0.00140
  6 C    -0.04992    0.00506   -0.03759
  7 C     0.03457    0.06590   -0.00150
  8 C    -0.01823   -0.03004   -0.00309
  9 C     0.03313   -0.01082    0.00641
 10 C    -0.00793   -0.02955   -0.02166
 11 C    -0.00271   -0.03688    0.05992
 12 C    -0.00559   -0.06754    0.08335
 13 C    -0.01593    0.10301    0.01394
 14 C     0.05038    0.07657    0.09277
 15 C     0.05525   -0.04791   -0.01911
 16 C    -0.02962    0.00780   -0.01834
 17 C    -0.00678    0.02980   -0.06949
 18 C     0.01633   -0.08709   -0.02390
 19 C     0.05029    0.01232    0.07430
 20 C    -0.01340   -0.00608   -0.01957
 21 C     0.01231   -0.01111   -0.03142
 22 C    -0.05695    0.06458   -0.07523
 23 C    -0.01061    0.04456    0.00261

System changes: positions 

Initializing position-dependent things.

Density initialized from wave functions
           .--------------------------------------.  
          /|                                      |  
         / |                                      |  
        /  |                                      |  
       /   |                                      |  
      /    |                                      |  
     /     |                                      |  
    /      |                                      |  
   /       |       C                              |  
  /        |     C    C   C                       |  
 *         |   C     C      C                     |  
 |         |  C       C  C  C  C                  |  
 |         .----C--C-C---C------C-----------------.  
 |        /    CC   C     CC   C                 /   
 |       /             C                        /    
 |      /                                      /     
 |     /                                      /      
 |    /                                      /       
 |   /                                      /        
 |  /                                      /         
 | /                                      /          
 |/                                      /           
 *--------------------------------------*            

Positions:
   0 C      4.704683   10.601003    5.870746
   1 C      6.080618   10.248765    5.570421
   2 C      5.783639    8.807820    5.424515
   3 C      3.479216    8.116851    5.659547
   4 C      6.504764    7.629394    5.246806
   5 C      4.372421    9.181716    5.673990
   6 C      3.533941    6.864265    5.567013
   7 C      5.391563    3.585888    5.381206
   8 C      6.762112    3.874641    5.290743
   9 C      4.451326    4.431030    5.429813
  10 C      6.956002    5.332192    5.205589
  11 C      4.498781    5.837733    5.413771
  12 C      5.891009    6.276870    5.276282
  13 C      7.993182    7.447923    5.083716
  14 C      8.988307    8.529656    4.975523
  15 C     10.366536    8.300616    4.729366
  16 C     10.721895    7.043651    4.691045
  17 C      7.439242   10.560024    5.417401
  18 C      8.423670    9.825631    5.166587
  19 C     10.790147    5.732336    4.732860
  20 C      9.113993    3.824951    5.124901
  21 C      9.495801    5.186245    4.970725
  22 C      8.018584    3.217276    5.258503
  23 C      8.242185    5.998387    5.070391

Unit cell:
           periodic     x           y           z      points  spacing
  1. axis:    yes   16.000000    0.000000    0.000000    80     0.2000
  2. axis:    yes    0.000000   16.000000    0.000000    80     0.2000
  3. axis:    yes    0.000000    0.000000   10.000000    48     0.2083

Effective grid spacing dv^(1/3) = 0.2027

                     log10-error:    total        iterations:
           time      wfs    density  energy       fermi  poisson
iter:   1  12:30:54          +inf  -184.685067    2      4      
iter:   2  12:30:54         -2.54  -184.680592    3      1      
iter:   3  12:30:55         -3.00  -184.680684    3      1      
iter:   4  12:30:55         -3.10  -184.679460    3      1      
iter:   5  12:30:56         -3.04  -184.681692    3      1      
iter:   6  12:30:56         -2.72  -184.685589    3      1      
iter:   7  12:30:57         -2.61  -184.682966    3      1      
iter:   8  12:30:58         -2.82  -184.681722    3      1      
iter:   9  12:30:58         -3.35  -184.683183    3      1      
iter:  10  12:30:59         -2.97  -184.681258    3      1      
iter:  11  12:30:59         -3.42  -184.679030    2      1      
iter:  12  12:31:00         -3.53  -184.680152    3      1      
iter:  13  12:31:00         -3.21  -184.680107    3      1      
iter:  14  12:31:01         -4.11  -184.679799    2      1      

Converged after 14 iterations.

Dipole moment: (-0.325388, -0.347133, -0.022652) |e|*Ang

Energy contributions relative to reference atoms: (reference = -24663.074771)

Kinetic:       +116.003749
Potential:     -124.007878
External:        +0.000000
XC:            -179.520504
Entropy (-ST):   -0.296492
Local:           +2.993081
--------------------------
Free energy:   -184.828045
Extrapolated:  -184.679799

Fermi level: -4.44657

 Band  Eigenvalues  Occupancy
    0    -22.96740    2.00000
    1    -22.51356    2.00000
    2    -21.55839    2.00000
    3    -21.10048    2.00000
    4    -20.47386    2.00000
    5    -20.42221    2.00000
    6    -19.56828    2.00000
    7    -19.29330    2.00000
    8    -18.37031    2.00000
    9    -18.17599    2.00000
   10    -18.08690    2.00000
   11    -16.96107    2.00000
   12    -16.50444    2.00000
   13    -16.10574    2.00000
   14    -15.51105    2.00000
   15    -14.68252    2.00000
   16    -14.64988    2.00000
   17    -13.66999    2.00000
   18    -13.43834    2.00000
   19    -12.91367    2.00000
   20    -12.77794    2.00000
   21    -12.18398    2.00000
   22    -12.01611    2.00000
   23    -11.10006    2.00000
   24    -10.90186    2.00000
   25    -10.74262    2.00000
   26    -10.65021    2.00000
   27    -10.55173    2.00000
   28     -9.98425    2.00000
   29     -9.81311    2.00000
   30     -9.61332    2.00000
   31     -9.52568    2.00000
   32     -9.25263    2.00000
   33     -8.75096    2.00000
   34     -8.41409    2.00000
   35     -8.31279    2.00000
   36     -7.25983    2.00000
   37     -7.15605    2.00000
   38     -7.04047    2.00000
   39     -6.95986    2.00000
   40     -6.59482    2.00000
   41     -6.46713    2.00000
   42     -6.34815    2.00000
   43     -6.17429    2.00000
   44     -6.13929    2.00000
   45     -5.13740    1.99800
   46     -4.65784    1.78426
   47     -4.58127    1.58728
   48     -4.36899    0.63042
   49     -3.32183    0.00003
   50     -3.22493    0.00001
   51     -2.85562    0.00000
   52     -2.83531    0.00000
   53     -2.47654    0.00000
   54     -2.39497    0.00000
   55     -2.04362    0.00000
   56     -1.23205    0.00000
   57     -1.11715    0.00000
   58     -0.68930    0.00000
   59      0.51792    0.00000
   60      0.72262    0.00000
   61      2.22030    0.00000
   62      2.73248    0.00000
   63      3.08179    0.00000
   64      3.41158    0.00000
   65      3.57258    0.00000
   66      3.80833    0.00000
   67      4.41998    0.00000
   68      4.69713    0.00000
   69      4.71135    0.00000
   70      5.49916    0.00000
   71      5.70555    0.00000
   72      6.02185    0.00000
   73      6.23189    0.00000
   74      6.52494    0.00000
   75      6.70888    0.00000
   76      7.07523    0.00000
   77      7.76345    0.00000
   78      7.81924    0.00000
   79      7.96454    0.00000
   80      8.24225    0.00000
   81      8.41159    0.00000
   82      8.66662    0.00000
   83      8.90908    0.00000
   84      8.95065    0.00000
   85      9.14734    0.00000
   86      9.23391    0.00000
   87      9.41103    0.00000
   88      9.45908    0.00000
   89      9.53718    0.00000
   90      9.63534    0.00000
   91      9.68018    0.00000
   92      9.83778    0.00000
   93     10.04470    0.00000
   94     10.15401    0.00000
   95     10.38827    0.00000
   96     10.46094    0.00000
   97     10.58015    0.00000


Forces in eV/Ang:
  0 C    -0.06516    0.06051   -0.03726
  1 C     0.01552   -0.01035    0.00188
  2 C    -0.00056    0.01458    0.01086
  3 C     0.06738    0.00355    0.00565
  4 C     0.00327   -0.02136    0.01278
  5 C     0.02813    0.03607    0.01440
  6 C    -0.02094   -0.02051   -0.03243
  7 C     0.02469    0.01842    0.00281
  8 C    -0.01611   -0.00895   -0.01185
  9 C    -0.00654   -0.00349    0.01095
 10 C     0.01458    0.00454   -0.01740
 11 C    -0.00115   -0.01124    0.04533
 12 C     0.00337   -0.02748    0.06419
 13 C    -0.01768    0.04606    0.02481
 14 C    -0.02012    0.02514    0.04218
 15 C     0.00558   -0.02206    0.00679
 16 C     0.00359   -0.02882   -0.01798
 17 C     0.01163   -0.01061   -0.06936
 18 C     0.00789    0.00002    0.00017
 19 C    -0.00469    0.02423    0.05379
 20 C    -0.02897   -0.01490   -0.02461
 21 C    -0.01356    0.00579   -0.01324
 22 C     0.00895    0.04360   -0.06471
 23 C    -0.00448    0.02974   -0.00251

