
  ___ ___ ___ _ _ _  
 |   |   |_  | | | | 
 | | | | | . | | | | 
 |__ |  _|___|_____|  1.3.0b1
 |___|_|             

User:   esb@s66n11.grendel.cscaa.dk
Date:   Thu Nov  9 11:23:16 2017
Arch:   x86_64
Pid:    30370
Python: 2.7.13
gpaw:   /home/esb/DFT/gpaw_git/gpaw
_gpaw:  /home/esb/DFT/gpaw_git/build/bin.linux-x86_64-2.7/gpaw-python
ase:    /home/esb/DFT/ase_git/ase (version 3.15.0b1)
numpy:  /comm/swstack/core/python/2.7.13/lib/python2.7/site-packages/numpy (version 1.13.3)
scipy:  /comm/swstack/core/python/2.7.13/lib/python2.7/site-packages/scipy (version 0.19.1)
units:  Angstrom and eV
cores:  16
Extra parameters: {'blacs': True}

Input parameters:
  basis: dzp
  gpts: [80 80 48]
  kpts: [1 1 1]
  maxiter: 99
  mixer: {backend: pulay,
          beta: 0.05,
          method: separate,
          nmaxold: 5,
          weight: 75}
  mode: lcao
  nbands: -50
  occupations: {name: fermi-dirac,
                width: 0.1}
  poissonsolver: {eps: 1e-07,
                  name: fd,
                  nn: 3,
                  relax: GS}
  xc: PBE

System changes: positions, numbers, cell, pbc, initial_charges, initial_magmoms 

Initialize ...

C-setup:
  name: Carbon
  id: 4aa54d4b901d75f77cc0ea3eec22967b
  Z: 6
  valence: 4
  core: 2
  charge: 0.0
  file: /home/esb/DFT/gpaw-setups-0.8.7929/C.PBE.gz
  cutoffs: 0.64(comp), 1.14(filt), 1.14(core), lmax=2
  valence states:
                energy  radius
    2s(2.00)   -13.751   0.635
    2p(2.00)    -5.284   0.635
    *s          13.461   0.635
    *p          21.927   0.635
    *d           0.000   0.635

  LCAO basis set for C:
    Name: dzp
    File: /home/esb/DFT/gpaw-setups-0.8.7929/C.dzp.basis.gz
    Number of radial functions: 5
    Number of spherical harmonics: 13
      l=0, rc=5.5469 Bohr: 2s-sz confined orbital
      l=1, rc=6.6719 Bohr: 2p-sz confined orbital
      l=0, rc=3.0312 Bohr: 2s-dz split-valence wave
      l=1, rc=3.7500 Bohr: 2p-dz split-valence wave
      l=2, rc=6.6719 Bohr: d-type Gaussian polarization

Reference energy: -24663.074771

Spin-paired calculation

Occupation numbers:
  Fermi-Dirac: width=0.1000 eV

Convergence criteria:
  Maximum total energy change: 0.0005 eV / electron
  Maximum integral of absolute density change: 0.0001 electrons
  Maximum integral of absolute eigenstate change: 4e-08 eV^2
  Maximum number of iterations: 99

Symmetries present (total): 1

  ( 1  0  0)
  ( 0  1  0)
  ( 0  0  1)

1 k-point (Gamma)
1 k-point in the irreducible part of the Brillouin zone
       k-points in crystal coordinates                weights
   0:     0.00000000    0.00000000    0.00000000          1/1

Wave functions: LCAO
  Diagonalizer: Serial LAPACK
  Atomic Correction: dense with blas
  Datatype: float
  Eigensolver: None 

LCAO using direct dense diagonalizer 

Densities:
  Coarse grid: 80*80*48 grid
  Fine grid: 160*160*96 grid
  Total Charge: 0.000000 

Density mixing:
  Method: separate
  Backend: pulay
  Linear mixing parameter: 0.05
  Mixing with 5 old densities
  Damping of long wave oscillations: 75 

Hamiltonian:
  XC and Coulomb potentials evaluated on a 160*160*96 grid
  Using the PBE Exchange-Correlation functional
  Interpolation: tri-quintic (5. degree polynomial)
  Poisson solver: Gauss-Seidel solver with 6 multi-grid levels
    Coarsest grid: 5 x 5 x 3 points
    Stencil: 6*3+1=19 point O(h^6) finite-difference Laplacian
    Max iterations: 1000
    Tolerance: 1.000000e-07 

Memory estimate:
  Process memory now: 77.56 MiB
  Calculator: 15.59 MiB
    Density: 6.13 MiB
      Arrays: 3.81 MiB
      Localized functions: 0.86 MiB
      Mixer: 1.46 MiB
    Hamiltonian: 5.40 MiB
      Arrays: 2.49 MiB
      XC: 0.00 MiB
      Poisson: 2.85 MiB
      vbar: 0.07 MiB
    Wavefunctions: 4.05 MiB
      C [qnM]: 0.23 MiB
      S, T [2 x qmm]: 1.49 MiB
      P [aqMi]: 0.01 MiB
      TCI: 0.00 MiB
      BasisFunctions: 2.33 MiB
      Eigensolver: 0.00 MiB

Total number of cores used: 16
Domain decomposition: 2 x 4 x 2

Number of atoms: 24
Number of atomic orbitals: 312
Number of bands in calculation: 98
Bands to converge: occupied states only
Number of valence electrons: 96

... initialized

Initializing position-dependent things.

Density initialized from atomic densities
           .--------------------------------------.  
          /|                                      |  
         / |                                      |  
        /  |                                      |  
       /   |                                      |  
      /    |                                      |  
     /     |                                      |  
    /      |                                      |  
   /       |                                      |  
  /        |        C                             |  
 *         |        C  C  C  CC  C                |  
 |         |       C C   C  C    C                |  
 |         .---C---C-C--C-----CC------------------.  
 |        /    C    C     CC                     /   
 |       /             C                        /    
 |      /                                      /     
 |     /                                      /      
 |    /                                      /       
 |   /                                      /        
 |  /                                      /         
 | /                                      /          
 |/                                      /           
 *--------------------------------------*            

Positions:
   0 C      9.844170    7.819532    6.118883
   1 C      8.549781    7.066304    6.239489
   2 C      6.179866    6.917527    7.096930
   3 C      6.031018    5.618635    6.452140
   4 C      7.813038    7.306786    5.140267
   5 C      8.917301    8.151583    4.950659
   6 C      6.569235    9.809763    5.185886
   7 C     10.399175    9.946771    4.636948
   8 C     11.048060    8.827978    4.617804
   9 C     10.284975    7.575192    4.804414
  10 C      7.743082   10.209563    4.987110
  11 C      9.020752    9.647616    4.845610
  12 C      5.655173    8.735896    5.357004
  13 C      6.342271    7.456986    5.312254
  14 C     10.502401    6.227793    4.872294
  15 C      9.227852    3.906791    5.175470
  16 C      9.419030    5.315235    5.066994
  17 C      5.784994    6.082988    5.421513
  18 C      8.176236    3.209649    5.332080
  19 C      4.412389    5.559654    5.592941
  20 C      8.104981    5.894490    5.177121
  21 C      6.857864    3.720848    5.428126
  22 C      4.511724    4.129408    5.656085
  23 C      6.897319    5.168096    5.343998

Unit cell:
           periodic     x           y           z      points  spacing
  1. axis:    yes   16.000000    0.000000    0.000000    80     0.2000
  2. axis:    yes    0.000000   16.000000    0.000000    80     0.2000
  3. axis:    yes    0.000000    0.000000   10.000000    48     0.2083

Effective grid spacing dv^(1/3) = 0.2027

                     log10-error:    total        iterations:
           time      wfs    density  energy       fermi  poisson
iter:   1  11:23:18          +inf  -164.174430    3      6      
iter:   2  11:23:18         -0.89  -163.352999    3      3      
iter:   3  11:23:19         -0.93  -161.310745    34     4      
iter:   4  11:23:20         -1.10  -160.793261    3      3      
iter:   5  11:23:20         -1.20  -160.566730    34     4      
iter:   6  11:23:21         -1.50  -160.501678    3      3      
iter:   7  11:23:22         -1.60  -160.463362    3      3      
iter:   8  11:23:22         -1.81  -160.448033    3      2      
iter:   9  11:23:23         -1.90  -160.440196    3      2      
iter:  10  11:23:24         -1.98  -160.415466    3      3      
iter:  11  11:23:24         -2.30  -160.415903    3      2      
iter:  12  11:23:25         -2.49  -160.411691    2      2      
iter:  13  11:23:26         -2.57  -160.410241    2      2      
iter:  14  11:23:26         -2.74  -160.406926    2      1      
iter:  15  11:23:27         -2.83  -160.406014    2      2      
iter:  16  11:23:28         -3.18  -160.402012    2      1      
iter:  17  11:23:28         -3.30  -160.400178    2      1      
iter:  18  11:23:29         -3.54  -160.408507    2      1      
iter:  19  11:23:29         -3.57  -160.410329    2      1      
iter:  20  11:23:30         -3.67  -160.406743    2      1      
iter:  21  11:23:31         -3.82  -160.409878    2      1      
iter:  22  11:23:31         -4.00  -160.410266    2      1      

Converged after 22 iterations.

Dipole moment: (0.399245, 0.059603, -0.459068) |e|*Ang

Energy contributions relative to reference atoms: (reference = -24663.074771)

Kinetic:       +184.553933
Potential:     -160.955532
External:        +0.000000
XC:            -186.773874
Entropy (-ST):   -0.329924
Local:           +2.930169
--------------------------
Free energy:   -160.575228
Extrapolated:  -160.410266

Fermi level: -4.73989

 Band  Eigenvalues  Occupancy
    0    -27.99399    2.00000
    1    -27.25601    2.00000
    2    -24.02097    2.00000
    3    -22.33539    2.00000
    4    -21.57147    2.00000
    5    -20.78723    2.00000
    6    -20.43617    2.00000
    7    -19.82998    2.00000
    8    -19.61587    2.00000
    9    -18.77529    2.00000
   10    -17.56742    2.00000
   11    -17.36034    2.00000
   12    -17.09138    2.00000
   13    -16.83849    2.00000
   14    -16.20355    2.00000
   15    -15.34867    2.00000
   16    -15.24049    2.00000
   17    -14.34044    2.00000
   18    -14.07745    2.00000
   19    -13.33982    2.00000
   20    -13.10910    2.00000
   21    -12.90225    2.00000
   22    -12.53109    2.00000
   23    -12.19696    2.00000
   24    -11.67994    2.00000
   25    -11.33158    2.00000
   26    -11.28249    2.00000
   27    -11.07341    2.00000
   28    -10.68102    2.00000
   29    -10.39573    2.00000
   30    -10.05140    2.00000
   31     -9.19491    2.00000
   32     -8.73741    2.00000
   33     -8.49338    2.00000
   34     -8.25970    2.00000
   35     -7.89174    2.00000
   36     -7.80512    2.00000
   37     -7.39921    2.00000
   38     -7.10408    2.00000
   39     -6.92000    2.00000
   40     -6.47042    2.00000
   41     -6.00544    1.99999
   42     -5.79839    1.99995
   43     -5.76547    1.99993
   44     -5.49908    1.99899
   45     -5.17880    1.97548
   46     -4.99332    1.85303
   47     -4.87116    1.57593
   48     -4.61657    0.45125
   49     -4.48413    0.14384
   50     -4.02086    0.00151
   51     -3.72086    0.00008
   52     -3.57962    0.00002
   53     -3.21063    0.00000
   54     -2.56175    0.00000
   55     -2.19329    0.00000
   56     -2.00472    0.00000
   57     -1.72554    0.00000
   58     -0.77489    0.00000
   59     -0.52350    0.00000
   60     -0.30609    0.00000
   61      0.27807    0.00000
   62      0.57790    0.00000
   63      1.64008    0.00000
   64      1.75088    0.00000
   65      2.57132    0.00000
   66      3.00829    0.00000
   67      3.20167    0.00000
   68      3.53380    0.00000
   69      3.85656    0.00000
   70      4.11623    0.00000
   71      4.64945    0.00000
   72      4.88671    0.00000
   73      5.05933    0.00000
   74      5.45198    0.00000
   75      6.05458    0.00000
   76      6.16161    0.00000
   77      6.69122    0.00000
   78      6.73684    0.00000
   79      7.11378    0.00000
   80      7.47912    0.00000
   81      7.53986    0.00000
   82      7.69299    0.00000
   83      7.89796    0.00000
   84      8.19266    0.00000
   85      8.23719    0.00000
   86      8.44498    0.00000
   87      8.63260    0.00000
   88      8.69657    0.00000
   89      8.92206    0.00000
   90      8.99593    0.00000
   91      9.25152    0.00000
   92      9.30616    0.00000
   93      9.51876    0.00000
   94      9.66155    0.00000
   95      9.71537    0.00000
   96      9.76719    0.00000
   97      9.95201    0.00000


Forces in eV/Ang:
  0 C    -2.59151   -0.70394    6.17904
  1 C     1.84736   -1.13553    8.95901
  2 C     0.99337   -0.13217    0.98219
  3 C     2.61331   -8.54242   24.48254
  4 C    -6.10413    0.73743   -5.81043
  5 C     0.25676    4.23703   -2.14709
  6 C    -2.75189   -3.39202    0.48534
  7 C     0.02425   -0.68069   -0.38473
  8 C     1.26683    1.20163   -1.58499
  9 C     4.62767   -0.02003   -2.79062
 10 C     2.18806    1.05417   -0.28253
 11 C    -1.91990    1.51144   -0.03103
 12 C     1.69456    0.69981   -0.61696
 13 C    -1.09758    4.12927   -0.34237
 14 C     0.38289   -3.96633   -1.17167
 15 C     1.60635    1.09418   -0.01652
 16 C     2.12128   -1.41422   -1.48444
 17 C    -7.98769   10.56670  -23.33435
 18 C    -2.58227    0.86701    0.03027
 19 C     0.77646   -3.15666    0.21247
 20 C     1.51665   -0.31927   -0.37312
 21 C     0.44647   -0.99524   -0.82956
 22 C     0.00733    2.08810    0.27844
 23 C     2.64070   -3.76888   -0.37668

System changes: positions 

Initializing position-dependent things.

Density initialized from wave functions
           .--------------------------------------.  
          /|                                      |  
         / |                                      |  
        /  |                                      |  
       /   |                                      |  
      /    |                                      |  
     /     |                                      |  
    /      |                                      |  
   /       |                                      |  
  /        |        C                             |  
 *         |        C  C  C  CC  C                |  
 |         |       C C   C  C    C                |  
 |         .---C---C-C--C-----CC------------------.  
 |        /    C    C     CC                     /   
 |       /             C                        /    
 |      /                                      /     
 |     /                                      /      
 |    /                                      /       
 |   /                                      /        
 |  /                                      /         
 | /                                      /          
 |/                                      /           
 *--------------------------------------*            

Positions:
   0 C      9.840307    7.818483    6.128095
   1 C      8.552535    7.064611    6.252844
   2 C      6.181347    6.917330    7.098395
   3 C      6.034914    5.605900    6.488638
   4 C      7.803938    7.307886    5.131605
   5 C      8.917684    8.157899    4.947458
   6 C      6.565132    9.804706    5.186610
   7 C     10.399211    9.945756    4.636374
   8 C     11.049948    8.829769    4.615442
   9 C     10.291874    7.575162    4.800254
  10 C      7.746344   10.211134    4.986689
  11 C      9.017890    9.649869    4.845564
  12 C      5.657699    8.736940    5.356084
  13 C      6.340635    7.463142    5.311743
  14 C     10.502972    6.221880    4.870547
  15 C      9.230247    3.908423    5.175445
  16 C      9.422192    5.313127    5.064781
  17 C      5.773086    6.098740    5.386727
  18 C      8.172386    3.210942    5.332125
  19 C      4.413546    5.554948    5.593258
  20 C      8.107242    5.894014    5.176565
  21 C      6.858529    3.719364    5.426889
  22 C      4.511735    4.132520    5.656500
  23 C      6.901256    5.162477    5.343437

Unit cell:
           periodic     x           y           z      points  spacing
  1. axis:    yes   16.000000    0.000000    0.000000    80     0.2000
  2. axis:    yes    0.000000   16.000000    0.000000    80     0.2000
  3. axis:    yes    0.000000    0.000000   10.000000    48     0.2083

Effective grid spacing dv^(1/3) = 0.2027

                     log10-error:    total        iterations:
           time      wfs    density  energy       fermi  poisson
iter:   1  11:23:34          +inf  -162.668975    3      5      
iter:   2  11:23:34         -2.08  -162.652219    2      2      
iter:   3  11:23:35         -2.29  -162.647479    2      2      
iter:   4  11:23:36         -2.37  -162.640093    3      2      
iter:   5  11:23:36         -2.52  -162.636882    2      2      
iter:   6  11:23:37         -2.68  -162.635871    2      2      
iter:   7  11:23:38         -2.83  -162.634939    2      2      
iter:   8  11:23:38         -3.07  -162.634306    2      2      
iter:   9  11:23:39         -3.26  -162.635999    2      1      
iter:  10  11:23:39         -3.49  -162.634285    2      1      
iter:  11  11:23:40         -3.58  -162.633779    2      1      
iter:  12  11:23:41         -3.73  -162.635434    2      1      
iter:  13  11:23:41         -3.79  -162.633297    1      1      
iter:  14  11:23:42         -4.13  -162.633366    2      1      

Converged after 14 iterations.

Dipole moment: (0.376901, 0.056543, -0.466390) |e|*Ang

Energy contributions relative to reference atoms: (reference = -24663.074771)

Kinetic:       +170.517907
Potential:     -151.379307
External:        +0.000000
XC:            -184.472399
Entropy (-ST):   -0.326346
Local:           +2.863607
--------------------------
Free energy:   -162.796539
Extrapolated:  -162.633366

Fermi level: -4.73179

 Band  Eigenvalues  Occupancy
    0    -27.63091    2.00000
    1    -26.84341    2.00000
    2    -23.83152    2.00000
    3    -22.29913    2.00000
    4    -21.53174    2.00000
    5    -20.69229    2.00000
    6    -20.36628    2.00000
    7    -19.78906    2.00000
    8    -19.46656    2.00000
    9    -18.72022    2.00000
   10    -17.55529    2.00000
   11    -17.31021    2.00000
   12    -17.04981    2.00000
   13    -16.67367    2.00000
   14    -16.19504    2.00000
   15    -15.30848    2.00000
   16    -15.24082    2.00000
   17    -14.28044    2.00000
   18    -13.99551    2.00000
   19    -13.28417    2.00000
   20    -13.04714    2.00000
   21    -12.85192    2.00000
   22    -12.50642    2.00000
   23    -12.15285    2.00000
   24    -11.67154    2.00000
   25    -11.29495    2.00000
   26    -11.27013    2.00000
   27    -11.07363    2.00000
   28    -10.68153    2.00000
   29    -10.36434    2.00000
   30    -10.03955    2.00000
   31     -9.18253    2.00000
   32     -8.74769    2.00000
   33     -8.47588    2.00000
   34     -8.24660    2.00000
   35     -7.88763    2.00000
   36     -7.78049    2.00000
   37     -7.39689    2.00000
   38     -7.13975    2.00000
   39     -6.87831    2.00000
   40     -6.44853    2.00000
   41     -5.99084    1.99999
   42     -5.80287    1.99996
   43     -5.75505    1.99993
   44     -5.52788    1.99930
   45     -5.18196    1.97806
   46     -4.98834    1.85722
   47     -4.86267    1.57460
   48     -4.60809    0.44991
   49     -4.47268    0.13942
   50     -4.01210    0.00150
   51     -3.72413    0.00008
   52     -3.59749    0.00002
   53     -3.23869    0.00000
   54     -2.53290    0.00000
   55     -2.16968    0.00000
   56     -2.04106    0.00000
   57     -1.71546    0.00000
   58     -0.73071    0.00000
   59     -0.55822    0.00000
   60     -0.31308    0.00000
   61      0.21410    0.00000
   62      0.59824    0.00000
   63      1.58411    0.00000
   64      1.67811    0.00000
   65      2.58457    0.00000
   66      2.95991    0.00000
   67      3.35810    0.00000
   68      3.46263    0.00000
   69      3.78065    0.00000
   70      4.08298    0.00000
   71      4.59672    0.00000
   72      4.79487    0.00000
   73      4.90520    0.00000
   74      5.42316    0.00000
   75      6.04514    0.00000
   76      6.18292    0.00000
   77      6.64138    0.00000
   78      6.75399    0.00000
   79      7.10593    0.00000
   80      7.38321    0.00000
   81      7.57953    0.00000
   82      7.73158    0.00000
   83      7.94065    0.00000
   84      8.19127    0.00000
   85      8.23053    0.00000
   86      8.44086    0.00000
   87      8.65757    0.00000
   88      8.68922    0.00000
   89      8.92649    0.00000
   90      8.98891    0.00000
   91      9.24216    0.00000
   92      9.29614    0.00000
   93      9.51950    0.00000
   94      9.62051    0.00000
   95      9.71219    0.00000
   96      9.80347    0.00000
   97      9.92902    0.00000


Forces in eV/Ang:
  0 C    -2.42271   -0.75753    5.46540
  1 C     1.21262   -0.87055    7.77241
  2 C     0.88000   -0.29231    0.79883
  3 C     0.91477   -4.98156   15.77227
  4 C    -4.87570    0.58940   -4.93856
  5 C     0.12567    3.68145   -1.76804
  6 C    -2.10721   -3.08694    0.39846
  7 C     0.00648   -0.60252   -0.37427
  8 C     1.23466    1.08849   -1.54783
  9 C     4.24416   -0.07860   -2.20745
 10 C     1.50455    0.95914   -0.19758
 11 C    -1.72820    1.52477   -0.08077
 12 C     1.53510    0.92032   -0.60756
 13 C    -1.08768    3.71371   -0.40209
 14 C     0.45803   -3.53242   -1.21074
 15 C     1.38234    0.80286    0.03582
 16 C     1.98106   -1.42004   -1.45062
 17 C    -5.63476    6.12345  -14.79208
 18 C    -2.31444    1.04480   -0.00643
 19 C     1.08360   -2.67430    0.19042
 20 C     1.40369   -0.10966   -0.32586
 21 C     0.48617   -1.10009   -0.84296
 22 C    -0.01701    1.80634    0.33039
 23 C     1.68994   -2.82146    0.00848

System changes: positions 

Initializing position-dependent things.

Density initialized from wave functions
           .--------------------------------------.  
          /|                                      |  
         / |                                      |  
        /  |                                      |  
       /   |                                      |  
      /    |                                      |  
     /     |                                      |  
    /      |                                      |  
   /       |                                      |  
  /        |        C                             |  
 *         |        C  C  C  CC  C                |  
 |         |       C C   C  C    C                |  
 |         .---C---C-C--C-----CC------------------.  
 |        /    C    C     CC                     /   
 |       /             C                        /    
 |      /                                      /     
 |     /                                      /      
 |    /                                      /       
 |   /                                      /        
 |  /                                      /         
 | /                                      /          
 |/                                      /           
 *--------------------------------------*            

Positions:
   0 C      9.826124    7.813109    6.157149
   1 C      8.554773    7.061320    6.292646
   2 C      6.186039    6.914025    7.101943
   3 C      6.025827    5.605129    6.513731
   4 C      7.783246    7.310391    5.107356
   5 C      8.917339    8.176809    4.939368
   6 C      6.557195    9.787430    5.188420
   7 C     10.399096    9.942549    4.634045
   8 C     11.057652    8.835812    4.605756
   9 C     10.315944    7.574136    4.791124
  10 C      7.750040   10.216500    4.986161
  11 C      9.008402    9.659852    4.844602
  12 C      5.666222    8.744842    5.352237
  13 C      6.333685    7.483497    5.308614
  14 C     10.506599    6.202860    4.862369
  15 C      9.237211    3.911043    5.176140
  16 C      9.433770    5.303888    5.055695
  17 C      5.757418    6.099104    5.366491
  18 C      8.159779    3.219272    5.331759
  19 C      4.423270    5.541907    5.594295
  20 C      8.115325    5.895156    5.174874
  21 C      6.862025    3.711321    5.421317
  22 C      4.511410    4.141718    5.659096
  23 C      6.903790    5.152593    5.346894

Unit cell:
           periodic     x           y           z      points  spacing
  1. axis:    yes   16.000000    0.000000    0.000000    80     0.2000
  2. axis:    yes    0.000000   16.000000    0.000000    80     0.2000
  3. axis:    yes    0.000000    0.000000   10.000000    48     0.2083

Effective grid spacing dv^(1/3) = 0.2027

                     log10-error:    total        iterations:
           time      wfs    density  energy       fermi  poisson
iter:   1  11:23:44          +inf  -164.846851    3      5      
iter:   2  11:23:45         -1.63  -164.634384    3      2      
iter:   3  11:23:46         -1.97  -164.607599    3      2      
iter:   4  11:23:46         -2.09  -164.594079    3      2      
iter:   5  11:23:47         -2.20  -164.584755    3      2      
iter:   6  11:23:48         -2.35  -164.580856    2      2      
iter:   7  11:23:48         -2.55  -164.580579    2      2      
iter:   8  11:23:49         -2.67  -164.579799    2      2      
iter:   9  11:23:50         -2.94  -164.578648    2      2      
iter:  10  11:23:50         -3.06  -164.582984    2      1      
iter:  11  11:23:51         -3.24  -164.582233    2      1      
iter:  12  11:23:51         -3.45  -164.578561    2      1      
iter:  13  11:23:52         -3.59  -164.580238    2      1      
iter:  14  11:23:53         -3.79  -164.579271    2      1      
iter:  15  11:23:53         -3.95  -164.578011    2      1      
iter:  16  11:23:54         -4.08  -164.577742    1      1      

Converged after 16 iterations.

Dipole moment: (0.321572, 0.028596, -0.465781) |e|*Ang

Energy contributions relative to reference atoms: (reference = -24663.074771)

Kinetic:       +156.796542
Potential:     -142.065259
External:        +0.000000
XC:            -182.025339
Entropy (-ST):   -0.315788
Local:           +2.874208
--------------------------
Free energy:   -164.735636
Extrapolated:  -164.577742

Fermi level: -4.71878

 Band  Eigenvalues  Occupancy
    0    -27.12636    2.00000
    1    -26.32964    2.00000
    2    -23.43409    2.00000
    3    -22.22965    2.00000
    4    -21.47350    2.00000
    5    -20.57368    2.00000
    6    -20.28170    2.00000
    7    -19.74543    2.00000
    8    -19.30440    2.00000
    9    -18.78164    2.00000
   10    -17.53914    2.00000
   11    -17.23222    2.00000
   12    -16.94887    2.00000
   13    -16.50375    2.00000
   14    -16.16092    2.00000
   15    -15.24522    2.00000
   16    -15.22446    2.00000
   17    -14.21474    2.00000
   18    -13.77705    2.00000
   19    -13.21600    2.00000
   20    -12.97792    2.00000
   21    -12.76710    2.00000
   22    -12.50671    2.00000
   23    -12.11792    2.00000
   24    -11.67597    2.00000
   25    -11.23628    2.00000
   26    -11.21166    2.00000
   27    -11.00153    2.00000
   28    -10.66591    2.00000
   29    -10.38917    2.00000
   30     -9.99592    2.00000
   31     -9.14728    2.00000
   32     -8.73832    2.00000
   33     -8.45340    2.00000
   34     -8.22942    2.00000
   35     -7.90611    2.00000
   36     -7.73429    2.00000
   37     -7.37909    2.00000
   38     -7.16094    2.00000
   39     -6.79115    2.00000
   40     -6.38874    2.00000
   41     -6.02168    2.00000
   42     -5.84167    1.99997
   43     -5.77364    1.99995
   44     -5.57630    1.99962
   45     -5.19895    1.98370
   46     -4.98272    1.86671
   47     -4.85498    1.59216
   48     -4.58134    0.40381
   49     -4.46950    0.15273
   50     -3.97968    0.00123
   51     -3.71426    0.00009
   52     -3.59950    0.00003
   53     -3.25977    0.00000
   54     -2.50938    0.00000
   55     -2.13743    0.00000
   56     -2.00724    0.00000
   57     -1.68171    0.00000
   58     -0.67505    0.00000
   59     -0.62951    0.00000
   60     -0.30545    0.00000
   61      0.19746    0.00000
   62      0.69880    0.00000
   63      1.40556    0.00000
   64      1.67785    0.00000
   65      2.63949    0.00000
   66      2.90963    0.00000
   67      3.29278    0.00000
   68      3.41656    0.00000
   69      3.72868    0.00000
   70      3.97092    0.00000
   71      4.46142    0.00000
   72      4.63503    0.00000
   73      4.79683    0.00000
   74      5.36428    0.00000
   75      5.99012    0.00000
   76      6.24959    0.00000
   77      6.53078    0.00000
   78      6.85085    0.00000
   79      7.14636    0.00000
   80      7.32838    0.00000
   81      7.70841    0.00000
   82      7.84449    0.00000
   83      7.88861    0.00000
   84      8.19272    0.00000
   85      8.27750    0.00000
   86      8.44444    0.00000
   87      8.64995    0.00000
   88      8.70127    0.00000
   89      8.95276    0.00000
   90      9.02824    0.00000
   91      9.23484    0.00000
   92      9.30372    0.00000
   93      9.51922    0.00000
   94      9.52953    0.00000
   95      9.70603    0.00000
   96      9.82742    0.00000
   97      9.90933    0.00000


Forces in eV/Ang:
  0 C    -1.94857   -0.86260    3.65988
  1 C     0.00046   -0.38512    5.20301
  2 C     0.86966   -0.07318    0.70563
  3 C     0.48615   -3.76342   11.93755
  4 C    -2.41205    0.33246   -3.28007
  5 C    -0.17826    2.27671   -0.76763
  6 C    -0.73908   -2.15615    0.19589
  7 C    -0.07525   -0.43272   -0.35790
  8 C     1.08297    0.74297   -1.47823
  9 C     3.19940   -0.25146   -0.66376
 10 C     0.23147    0.90840   -0.03920
 11 C    -1.20220    1.41904   -0.16073
 12 C     0.92544    1.02762   -0.54287
 13 C    -1.08289    2.21553   -0.39331
 14 C     0.66681   -2.27654   -1.32179
 15 C     0.89943    0.02616    0.09890
 16 C     1.44677   -1.30608   -1.31582
 17 C    -3.90464    4.71307  -11.45193
 18 C    -1.48084    1.34799   -0.10713
 19 C     0.85823   -2.00940    0.24338
 20 C     0.94380    0.25185   -0.04307
 21 C     0.33535   -0.98188   -0.78299
 22 C    -0.08043    1.11550    0.42765
 23 C     1.08530   -2.00093    0.21425

System changes: positions 

Initializing position-dependent things.

Density initialized from wave functions
           .--------------------------------------.  
          /|                                      |  
         / |                                      |  
        /  |                                      |  
       /   |                                      |  
      /    |                                      |  
     /     |                                      |  
    /      |                                      |  
   /       |                                      |  
  /        |        C                             |  
 *         |        C  C  C  CC  C                |  
 |         |       C C   C  C     C               |  
 |         .---C---C-C--C------C------------------.  
 |        /    C    C     CC                     /   
 |       /             C                        /    
 |      /                                      /     
 |     /                                      /      
 |    /                                      /       
 |   /                                      /        
 |  /                                      /         
 | /                                      /          
 |/                                      /           
 *--------------------------------------*            

Positions:
   0 C      9.806484    7.801395    6.185017
   1 C      8.541674    7.061952    6.330435
   2 C      6.195467    6.912594    7.108180
   3 C      6.011608    5.602929    6.548138
   4 C      7.779611    7.311554    5.085045
   5 C      8.912160    8.191478    4.939229
   6 C      6.562153    9.769093    5.188838
   7 C     10.397552    9.938957    4.629847
   8 C     11.069809    8.841915    4.588364
   9 C     10.345663    7.569516    4.797287
  10 C      7.738941   10.226384    4.987413
  11 C      8.998443    9.676859    4.841681
  12 C      5.672681    8.760354    5.346012
  13 C      6.320518    7.498399    5.303201
  14 C     10.516683    6.186121    4.845138
  15 C      9.243339    3.904185    5.178240
  16 C      9.447232    5.288391    5.040607
  17 C      5.743444    6.102638    5.333661
  18 C      8.148827    3.239303    5.329524
  19 C      4.435858    5.525837    5.597331
  20 C      8.123292    5.902372    5.176339
  21 C      6.865765    3.698782    5.411878
  22 C      4.509830    4.148791    5.665410
  23 C      6.903889    5.142357    5.354677

Unit cell:
           periodic     x           y           z      points  spacing
  1. axis:    yes   16.000000    0.000000    0.000000    80     0.2000
  2. axis:    yes    0.000000   16.000000    0.000000    80     0.2000
  3. axis:    yes    0.000000    0.000000   10.000000    48     0.2083

Effective grid spacing dv^(1/3) = 0.2027

                     log10-error:    total        iterations:
           time      wfs    density  energy       fermi  poisson
iter:   1  11:23:56          +inf  -166.436797    3      5      
iter:   2  11:23:57         -1.66  -166.269293    2      2      
iter:   3  11:23:58         -1.94  -166.236649    2      2      
iter:   4  11:23:58         -2.07  -166.218983    3      2      
iter:   5  11:23:59         -2.19  -166.207714    3      2      
iter:   6  11:24:00         -2.37  -166.204570    2      2      
iter:   7  11:24:00         -2.53  -166.203926    2      2      
iter:   8  11:24:01         -2.65  -166.203186    2      2      
iter:   9  11:24:01         -2.97  -166.204720    2      1      
iter:  10  11:24:02         -3.05  -166.201624    2      2      
iter:  11  11:24:03         -3.28  -166.202574    2      1      
iter:  12  11:24:03         -3.38  -166.206811    2      1      
iter:  13  11:24:04         -3.65  -166.201947    2      1      
iter:  14  11:24:05         -3.78  -166.201567    2      1      
iter:  15  11:24:05         -3.91  -166.202634    2      1      
iter:  16  11:24:06         -4.03  -166.201567    2      1      

Converged after 16 iterations.

Dipole moment: (0.279706, 0.012166, -0.464401) |e|*Ang

Energy contributions relative to reference atoms: (reference = -24663.074771)

Kinetic:       +146.042847
Potential:     -134.969965
External:        +0.000000
XC:            -180.001197
Entropy (-ST):   -0.294035
Local:           +2.873766
--------------------------
Free energy:   -166.348585
Extrapolated:  -166.201567

Fermi level: -4.69979

 Band  Eigenvalues  Occupancy
    0    -26.68274    2.00000
    1    -25.84368    2.00000
    2    -23.09854    2.00000
    3    -22.15644    2.00000
    4    -21.43173    2.00000
    5    -20.47782    2.00000
    6    -20.21047    2.00000
    7    -19.69426    2.00000
    8    -19.16496    2.00000
    9    -18.79773    2.00000
   10    -17.53922    2.00000
   11    -17.16431    2.00000
   12    -16.90170    2.00000
   13    -16.37821    2.00000
   14    -16.08829    2.00000
   15    -15.25210    2.00000
   16    -15.21452    2.00000
   17    -14.14600    2.00000
   18    -13.59830    2.00000
   19    -13.12329    2.00000
   20    -12.88881    2.00000
   21    -12.67139    2.00000
   22    -12.48206    2.00000
   23    -12.05751    2.00000
   24    -11.66070    2.00000
   25    -11.22482    2.00000
   26    -11.15234    2.00000
   27    -10.84842    2.00000
   28    -10.65259    2.00000
   29    -10.44166    2.00000
   30     -9.94879    2.00000
   31     -9.16203    2.00000
   32     -8.73256    2.00000
   33     -8.43649    2.00000
   34     -8.26580    2.00000
   35     -7.94597    2.00000
   36     -7.71368    2.00000
   37     -7.40539    2.00000
   38     -7.18202    2.00000
   39     -6.72907    2.00000
   40     -6.35108    2.00000
   41     -6.04587    2.00000
   42     -5.90368    1.99999
   43     -5.79435    1.99996
   44     -5.60639    1.99977
   45     -5.22103    1.98916
   46     -4.98064    1.88627
   47     -4.84859    1.63158
   48     -4.53338    0.31843
   49     -4.46441    0.17353
   50     -3.95518    0.00117
   51     -3.70578    0.00010
   52     -3.62001    0.00004
   53     -3.18360    0.00000
   54     -2.53020    0.00000
   55     -2.02025    0.00000
   56     -1.92084    0.00000
   57     -1.62060    0.00000
   58     -0.69575    0.00000
   59     -0.64569    0.00000
   60     -0.32982    0.00000
   61      0.30289    0.00000
   62      0.77283    0.00000
   63      1.24049    0.00000
   64      1.65550    0.00000
   65      2.59992    0.00000
   66      2.87085    0.00000
   67      3.19458    0.00000
   68      3.41479    0.00000
   69      3.70584    0.00000
   70      3.88188    0.00000
   71      4.30195    0.00000
   72      4.49415    0.00000
   73      4.69547    0.00000
   74      5.24548    0.00000
   75      5.87640    0.00000
   76      6.20403    0.00000
   77      6.45811    0.00000
   78      6.83291    0.00000
   79      7.10185    0.00000
   80      7.34011    0.00000
   81      7.75057    0.00000
   82      7.80654    0.00000
   83      7.93369    0.00000
   84      8.17699    0.00000
   85      8.30636    0.00000
   86      8.41614    0.00000
   87      8.60617    0.00000
   88      8.72134    0.00000
   89      8.96267    0.00000
   90      9.07835    0.00000
   91      9.24099    0.00000
   92      9.30338    0.00000
   93      9.35887    0.00000
   94      9.53845    0.00000
   95      9.70592    0.00000
   96      9.87659    0.00000
   97      9.89056    0.00000


Forces in eV/Ang:
  0 C    -1.54757   -0.76114    2.44427
  1 C    -0.37204   -0.31033    3.73215
  2 C     0.82269    0.18642    0.55524
  3 C    -0.01575   -2.54670    7.59124
  4 C    -1.92527    0.32874   -2.45401
  5 C    -0.01112    1.70525   -0.12493
  6 C    -0.74432   -1.47582    0.21141
  7 C    -0.16540   -0.39748   -0.34580
  8 C     0.81175    0.44435   -1.28993
  9 C     2.35595   -0.16372    0.36372
 10 C     0.85271    1.16460   -0.14858
 11 C    -0.93206    1.08640   -0.18108
 12 C     0.25361    0.51650   -0.41823
 13 C    -0.68623    1.30395   -0.48650
 14 C     0.60493   -1.59427   -1.35160
 15 C     1.19035   -0.11160   -0.02346
 16 C     0.96666   -0.89133   -1.10414
 17 C    -2.29725    2.96686   -7.57972
 18 C    -1.08991    1.10294   -0.09695
 19 C     0.75670   -1.11466    0.29893
 20 C     0.76474   -0.02467    0.25377
 21 C    -0.08803   -0.63042   -0.65920
 22 C    -0.18753    0.24575    0.53285
 23 C     0.57146   -1.11398    0.32693

System changes: positions 

Initializing position-dependent things.

Density initialized from wave functions
           .--------------------------------------.  
          /|                                      |  
         / |                                      |  
        /  |                                      |  
       /   |                                      |  
      /    |                                      |  
     /     |                                      |  
    /      |                                      |  
   /       |                                      |  
  /        |        C                             |  
 *         |        C  C  C  CC  C                |  
 |         |       C C   C  C  C  C               |  
 |         .---C---C-C---C-----C------------------.  
 |        /    C    C     CC                     /   
 |       /             C                        /    
 |      /                                      /     
 |     /                                      /      
 |    /                                      /       
 |   /                                      /        
 |  /                                      /         
 | /                                      /          
 |/                                      /           
 *--------------------------------------*            

Positions:
   0 C      9.786000    7.788652    6.208826
   1 C      8.525078    7.061540    6.366827
   2 C      6.207236    6.915114    7.114814
   3 C      5.994857    5.599359    6.574122
   4 C      7.771089    7.314267    5.061748
   5 C      8.909549    8.206990    4.945009
   6 C      6.562116    9.752932    5.190493
   7 C     10.394458    9.934198    4.624634
   8 C     11.081456    8.846300    4.568955
   9 C     10.374315    7.565720    4.814847
  10 C      7.740822   10.243485    4.986514
  11 C      8.987937    9.693360    4.838085
  12 C      5.672498    8.770686    5.339889
  13 C      6.310001    7.508420    5.295152
  14 C     10.527643    6.170652    4.823297
  15 C      9.257841    3.896524    5.178586
  16 C      9.458655    5.275033    5.024347
  17 C      5.735692    6.104267    5.304185
  18 C      8.137886    3.259279    5.327261
  19 C      4.449255    5.515670    5.602029
  20 C      8.132173    5.905340    5.181968
  21 C      6.864023    3.688642    5.401792
  22 C      4.506414    4.147057    5.674580
  23 C      6.901904    5.136870    5.363980

Unit cell:
           periodic     x           y           z      points  spacing
  1. axis:    yes   16.000000    0.000000    0.000000    80     0.2000
  2. axis:    yes    0.000000   16.000000    0.000000    80     0.2000
  3. axis:    yes    0.000000    0.000000   10.000000    48     0.2083

Effective grid spacing dv^(1/3) = 0.2027

                     log10-error:    total        iterations:
           time      wfs    density  energy       fermi  poisson
iter:   1  11:24:08          +inf  -167.377675    3      5      
iter:   2  11:24:09         -1.86  -167.321902    2      2      
iter:   3  11:24:10         -2.03  -167.302911    2      2      
iter:   4  11:24:10         -2.14  -167.289198    3      2      
iter:   5  11:24:11         -2.30  -167.285195    2      2      
iter:   6  11:24:11         -2.45  -167.283851    2      2      
iter:   7  11:24:12         -2.65  -167.282786    2      2      
iter:   8  11:24:13         -2.84  -167.282074    2      2      
iter:   9  11:24:13         -3.04  -167.285429    2      1      
iter:  10  11:24:14         -3.16  -167.281115    2      2      
iter:  11  11:24:15         -3.42  -167.280498    2      1      
iter:  12  11:24:15         -3.51  -167.283895    2      1      
iter:  13  11:24:16         -3.73  -167.281336    1      1      
iter:  14  11:24:17         -3.82  -167.281069    2      1      
iter:  15  11:24:17         -3.97  -167.282025    2      1      
iter:  16  11:24:18         -4.13  -167.280720    2      1      

Converged after 16 iterations.

Dipole moment: (0.233512, 0.000649, -0.454678) |e|*Ang

Energy contributions relative to reference atoms: (reference = -24663.074771)

Kinetic:       +135.513980
Potential:     -127.721560
External:        +0.000000
XC:            -177.801018
Entropy (-ST):   -0.269640
Local:           +2.862698
--------------------------
Free energy:   -167.415539
Extrapolated:  -167.280720

Fermi level: -4.69977

 Band  Eigenvalues  Occupancy
    0    -26.33845    2.00000
    1    -25.46508    2.00000
    2    -22.83624    2.00000
    3    -22.08612    2.00000
    4    -21.39423    2.00000
    5    -20.40738    2.00000
    6    -20.12476    2.00000
    7    -19.64899    2.00000
    8    -19.03076    2.00000
    9    -18.78569    2.00000
   10    -17.54197    2.00000
   11    -17.08926    2.00000
   12    -16.84778    2.00000
   13    -16.32992    2.00000
   14    -15.98539    2.00000
   15    -15.24537    2.00000
   16    -15.16901    2.00000
   17    -14.09662    2.00000
   18    -13.44317    2.00000
   19    -13.03731    2.00000
   20    -12.83206    2.00000
   21    -12.60986    2.00000
   22    -12.44674    2.00000
   23    -11.99591    2.00000
   24    -11.64137    2.00000
   25    -11.21645    2.00000
   26    -11.10896    2.00000
   27    -10.72013    2.00000
   28    -10.62501    2.00000
   29    -10.47977    2.00000
   30     -9.90852    2.00000
   31     -9.13844    2.00000
   32     -8.72809    2.00000
   33     -8.41360    2.00000
   34     -8.27759    2.00000
   35     -7.95424    2.00000
   36     -7.68715    2.00000
   37     -7.41927    2.00000
   38     -7.17838    2.00000
   39     -6.67195    2.00000
   40     -6.31586    2.00000
   41     -6.08480    2.00000
   42     -5.97821    1.99999
   43     -5.82740    1.99997
   44     -5.63153    1.99982
   45     -5.23405    1.99048
   46     -4.99086    1.89676
   47     -4.86433    1.67658
   48     -4.52962    0.30852
   49     -4.43049    0.12680
   50     -3.93282    0.00093
   51     -3.71702    0.00011
   52     -3.61443    0.00004
   53     -3.11457    0.00000
   54     -2.56000    0.00000
   55     -2.01293    0.00000
   56     -1.88232    0.00000
   57     -1.60147    0.00000
   58     -0.81233    0.00000
   59     -0.65465    0.00000
   60     -0.40607    0.00000
   61      0.38445    0.00000
   62      0.82248    0.00000
   63      1.12130    0.00000
   64      1.61261    0.00000
   65      2.48599    0.00000
   66      2.81355    0.00000
   67      3.11991    0.00000
   68      3.29297    0.00000
   69      3.67101    0.00000
   70      3.79876    0.00000
   71      4.16698    0.00000
   72      4.35913    0.00000
   73      4.61228    0.00000
   74      5.16642    0.00000
   75      5.72380    0.00000
   76      6.13356    0.00000
   77      6.47180    0.00000
   78      6.74137    0.00000
   79      7.05130    0.00000
   80      7.38669    0.00000
   81      7.69721    0.00000
   82      7.79762    0.00000
   83      7.96503    0.00000
   84      8.13017    0.00000
   85      8.30311    0.00000
   86      8.37063    0.00000
   87      8.54904    0.00000
   88      8.73014    0.00000
   89      8.94732    0.00000
   90      9.08728    0.00000
   91      9.17127    0.00000
   92      9.28307    0.00000
   93      9.31155    0.00000
   94      9.54464    0.00000
   95      9.69247    0.00000
   96      9.84915    0.00000
   97      9.86311    0.00000


Forces in eV/Ang:
  0 C    -1.22171   -0.58841    1.67194
  1 C    -0.59872   -0.40029    2.47279
  2 C     0.79159    0.32755    0.36694
  3 C    -0.27487   -1.89207    4.92522
  4 C    -1.23041    0.28525   -1.81161
  5 C    -0.19991    1.09711    0.43448
  6 C     0.24645   -0.62154    0.02435
  7 C    -0.11325   -0.44715   -0.36565
  8 C     0.50355    0.24722   -1.07046
  9 C     1.83214   -0.15791    0.84584
 10 C    -0.03921    1.07047   -0.00252
 11 C    -0.42202    0.73592   -0.24205
 12 C    -0.16926    0.27958   -0.34833
 13 C    -0.42020    0.62387   -0.55998
 14 C     0.47801   -0.99330   -1.25808
 15 C     0.95998   -0.47348   -0.09465
 16 C     0.66588   -0.51228   -0.90618
 17 C    -1.35120    1.98674   -5.23449
 18 C    -0.40449    1.09995   -0.10512
 19 C     0.68985   -0.58076    0.39630
 20 C     0.48150    0.06066    0.52337
 21 C    -0.38730   -0.33342   -0.59680
 22 C    -0.22070   -0.14396    0.63114
 23 C     0.34977   -0.64576    0.32916

System changes: positions 

Initializing position-dependent things.

Density initialized from wave functions
           .--------------------------------------.  
          /|                                      |  
         / |                                      |  
        /  |                                      |  
       /   |                                      |  
      /    |                                      |  
     /     |                                      |  
    /      |                                      |  
   /       |                                      |  
  /        |        C                             |  
 *         |        C  C  C  CC  C                |  
 |         |       C C  C   C  C  C               |  
 |         .---C---C-C---C-----C------------------.  
 |        /    C    C     CC                     /   
 |       /             C                        /    
 |      /                                      /     
 |     /                                      /      
 |    /                                      /       
 |   /                                      /        
 |  /                                      /         
 | /                                      /          
 |/                                      /           
 *--------------------------------------*            

Positions:
   0 C      9.764126    7.776026    6.232657
   1 C      8.505678    7.057650    6.401591
   2 C      6.221646    6.920284    7.120756
   3 C      5.975659    5.592653    6.597359
   4 C      7.762274    7.317946    5.036565
   5 C      8.904280    8.221522    4.957476
   6 C      6.573043    9.743358    5.190234
   7 C     10.391759    9.926862    4.617784
   8 C     11.091464    8.849818    4.548125
   9 C     10.405261    7.561655    4.838606
  10 C      7.733377   10.263397    4.987198
  11 C      8.981268    9.708489    4.832983
  12 C      5.667642    8.779021    5.333201
  13 C      6.301076    7.515001    5.284173
  14 C     10.538473    6.156694    4.798158
  15 C      9.273718    3.883921    5.177623
  16 C      9.469824    5.264182    5.006906
  17 C      5.730263    6.106324    5.273302
  18 C      8.132504    3.282854    5.324667
  19 C      4.464553    5.508427    5.609325
  20 C      8.140091    5.909075    5.192349
  21 C      6.857475    3.680726    5.390148
  22 C      4.501915    4.141424    5.687102
  23 C      6.900070    5.132759    5.373967

Unit cell:
           periodic     x           y           z      points  spacing
  1. axis:    yes   16.000000    0.000000    0.000000    80     0.2000
  2. axis:    yes    0.000000   16.000000    0.000000    80     0.2000
  3. axis:    yes    0.000000    0.000000   10.000000    48     0.2083

Effective grid spacing dv^(1/3) = 0.2027

                     log10-error:    total        iterations:
           time      wfs    density  energy       fermi  poisson
iter:   1  11:24:20          +inf  -168.167462    3      5      
iter:   2  11:24:21         -1.98  -168.139292    3      2      
iter:   3  11:24:21         -2.08  -168.115461    3      2      
iter:   4  11:24:22         -2.22  -168.105715    3      2      
iter:   5  11:24:23         -2.41  -168.103996    2      2      
iter:   6  11:24:23         -2.55  -168.103281    2      2      
iter:   7  11:24:24         -2.75  -168.102083    2      2      
iter:   8  11:24:25         -2.95  -168.101565    2      2      
iter:   9  11:24:25         -3.14  -168.104830    2      1      
iter:  10  11:24:26         -3.27  -168.104274    2      1      
iter:  11  11:24:27         -3.43  -168.101455    2      1      
iter:  12  11:24:27         -3.51  -168.102949    2      1      
iter:  13  11:24:28         -3.82  -168.101944    2      1      
iter:  14  11:24:28         -4.00  -168.100868    2      1      
iter:  15  11:24:29         -4.07  -168.100935    2      1      

Converged after 15 iterations.

Dipole moment: (0.216539, 0.017989, -0.442866) |e|*Ang

Energy contributions relative to reference atoms: (reference = -24663.074771)

Kinetic:       +125.943753
Potential:     -121.137154
External:        +0.000000
XC:            -175.638145
Entropy (-ST):   -0.241034
Local:           +2.851128
--------------------------
Free energy:   -168.221452
Extrapolated:  -168.100935

Fermi level: -4.70319

 Band  Eigenvalues  Occupancy
    0    -26.03997    2.00000
    1    -25.12643    2.00000
    2    -22.62246    2.00000
    3    -22.00881    2.00000
    4    -21.35966    2.00000
    5    -20.32292    2.00000
    6    -20.06499    2.00000
    7    -19.58339    2.00000
    8    -18.93145    2.00000
    9    -18.73047    2.00000
   10    -17.54464    2.00000
   11    -17.00879    2.00000
   12    -16.83687    2.00000
   13    -16.30904    2.00000
   14    -15.88140    2.00000
   15    -15.22177    2.00000
   16    -15.12358    2.00000
   17    -14.04566    2.00000
   18    -13.30781    2.00000
   19    -12.94505    2.00000
   20    -12.77855    2.00000
   21    -12.56134    2.00000
   22    -12.37996    2.00000
   23    -11.92040    2.00000
   24    -11.60168    2.00000
   25    -11.20334    2.00000
   26    -11.07002    2.00000
   27    -10.65078    2.00000
   28    -10.61491    2.00000
   29    -10.42190    2.00000
   30     -9.86674    2.00000
   31     -9.10803    2.00000
   32     -8.71630    2.00000
   33     -8.40915    2.00000
   34     -8.28303    2.00000
   35     -7.96034    2.00000
   36     -7.67681    2.00000
   37     -7.46082    2.00000
   38     -7.16057    2.00000
   39     -6.64018    2.00000
   40     -6.32551    2.00000
   41     -6.14535    2.00000
   42     -6.02183    2.00000
   43     -5.85365    1.99998
   44     -5.65415    1.99985
   45     -5.24716    1.99136
   46     -5.00810    1.90949
   47     -4.88315    1.71622
   48     -4.53694    0.31886
   49     -4.36094    0.06320
   50     -3.93090    0.00088
   51     -3.73736    0.00013
   52     -3.60217    0.00003
   53     -2.99594    0.00000
   54     -2.62858    0.00000
   55     -2.03772    0.00000
   56     -1.78717    0.00000
   57     -1.57142    0.00000
   58     -0.95846    0.00000
   59     -0.69223    0.00000
   60     -0.48098    0.00000
   61      0.41164    0.00000
   62      0.84870    0.00000
   63      1.06468    0.00000
   64      1.55724    0.00000
   65      2.32422    0.00000
   66      2.75165    0.00000
   67      3.01497    0.00000
   68      3.16891    0.00000
   69      3.58788    0.00000
   70      3.73378    0.00000
   71      4.07645    0.00000
   72      4.25582    0.00000
   73      4.51972    0.00000
   74      5.10657    0.00000
   75      5.52379    0.00000
   76      6.05406    0.00000
   77      6.44772    0.00000
   78      6.64647    0.00000
   79      6.99629    0.00000
   80      7.38929    0.00000
   81      7.61512    0.00000
   82      7.75529    0.00000
   83      7.94585    0.00000
   84      8.06468    0.00000
   85      8.22341    0.00000
   86      8.32112    0.00000
   87      8.49177    0.00000
   88      8.73789    0.00000
   89      8.91523    0.00000
   90      8.93919    0.00000
   91      9.14484    0.00000
   92      9.26135    0.00000
   93      9.32318    0.00000
   94      9.51672    0.00000
   95      9.66664    0.00000
   96      9.78511    0.00000
   97      9.80488    0.00000


Forces in eV/Ang:
  0 C    -0.91567   -0.37727    0.97737
  1 C    -0.74151   -0.61088    1.36436
  2 C     0.72474    0.33559    0.11961
  3 C    -0.36932   -1.36964    2.87566
  4 C    -0.67587    0.28335   -1.25262
  5 C    -0.37348    0.66608    0.85081
  6 C    -0.14916   -0.53770    0.04612
  7 C    -0.19443   -0.36027   -0.36134
  8 C     0.30307   -0.10898   -0.81741
  9 C     1.31612   -0.20939    1.18326
 10 C     0.50101    1.13812   -0.08847
 11 C    -0.28402    0.51700   -0.22590
 12 C    -0.25258    0.21287   -0.29201
 13 C    -0.22853    0.33821   -0.68818
 14 C     0.30070   -0.47403   -1.09705
 15 C     0.95829   -0.45262   -0.21902
 16 C     0.44940   -0.28601   -0.67049
 17 C    -0.66292    1.17759   -3.43951
 18 C    -0.17381    0.96700   -0.03580
 19 C     0.67142   -0.30949    0.49586
 20 C     0.34795    0.17759    0.79827
 21 C    -0.51400   -0.14242   -0.53479
 22 C    -0.25258   -0.27654    0.73389
 23 C     0.15632   -0.24437    0.31258

System changes: positions 

Initializing position-dependent things.

Density initialized from wave functions
           .--------------------------------------.  
          /|                                      |  
         / |                                      |  
        /  |                                      |  
       /   |                                      |  
      /    |                                      |  
     /     |                                      |  
    /      |                                      |  
   /       |                                      |  
  /        |         C                            |  
 *         |        C  C  C  CC  C                |  
 |         |       C C  C   C  C  C               |  
 |         .---C---C-C---C-----C------------------.  
 |        /    C    C     CC                     /   
 |       /             C                        /    
 |      /                                      /     
 |     /                                      /      
 |    /                                      /       
 |   /                                      /        
 |  /                                      /         
 | /                                      /          
 |/                                      /           
 *--------------------------------------*            

Positions:
   0 C      9.743749    7.765569    6.252293
   1 C      8.485034    7.049120    6.428749
   2 C      6.236670    6.925991    7.124057
   3 C      5.957258    5.584276    6.615350
   4 C      7.755794    7.322492    5.013519
   5 C      8.896305    8.233768    4.975262
   6 C      6.576705    9.732331    5.190587
   7 C     10.387796    9.919759    4.610300
   8 C     11.099737    8.849078    4.528907
   9 C     10.433712    7.556670    4.866278
  10 C      7.735238   10.286215    4.986458
  11 C      8.975073    9.721984    4.827818
  12 C      5.662400    8.786906    5.326568
  13 C      6.293949    7.520782    5.270389
  14 C     10.547304    6.146706    4.773306
  15 C      9.291722    3.871816    5.174606
  16 C      9.479905    5.255404    4.991048
  17 C      5.727357    6.107512    5.244230
  18 C      8.128599    3.306178    5.323034
  19 C      4.480720    5.502434    5.618777
  20 C      8.147506    5.914357    5.207303
  21 C      6.848712    3.674837    5.378224
  22 C      4.496698    4.135076    5.702095
  23 C      6.897957    5.131060    5.383600

Unit cell:
           periodic     x           y           z      points  spacing
  1. axis:    yes   16.000000    0.000000    0.000000    80     0.2000
  2. axis:    yes    0.000000   16.000000    0.000000    80     0.2000
  3. axis:    yes    0.000000    0.000000   10.000000    48     0.2083

Effective grid spacing dv^(1/3) = 0.2027

                     log10-error:    total        iterations:
           time      wfs    density  energy       fermi  poisson
iter:   1  11:24:31          +inf  -168.738651    3      5      
iter:   2  11:24:32         -2.05  -168.721353    3      2      
iter:   3  11:24:33         -2.12  -168.698203    3      2      
iter:   4  11:24:33         -2.32  -168.694222    3      2      
iter:   5  11:24:34         -2.47  -168.693999    2      2      
iter:   6  11:24:35         -2.69  -168.693438    2      2      
iter:   7  11:24:35         -2.90  -168.691674    2      2      
iter:   8  11:24:36         -3.10  -168.694960    2      1      
iter:   9  11:24:37         -3.24  -168.694986    2      1      
iter:  10  11:24:37         -3.40  -168.692236    2      1      
iter:  11  11:24:38         -3.52  -168.692403    2      1      
iter:  12  11:24:38         -3.70  -168.691375    2      1      
iter:  13  11:24:39         -3.84  -168.691075    2      1      
iter:  14  11:24:40         -3.95  -168.691196    1      1      
iter:  15  11:24:40         -4.07  -168.690999    2      1      

Converged after 15 iterations.

Dipole moment: (0.190691, 0.033559, -0.425152) |e|*Ang

Energy contributions relative to reference atoms: (reference = -24663.074771)

Kinetic:       +117.208267
Potential:     -114.992196
External:        +0.000000
XC:            -173.624675
Entropy (-ST):   -0.220081
Local:           +2.827645
--------------------------
Free energy:   -168.801040
Extrapolated:  -168.690999

Fermi level: -4.72004

 Band  Eigenvalues  Occupancy
    0    -25.82712    2.00000
    1    -24.87507    2.00000
    2    -22.46289    2.00000
    3    -21.94241    2.00000
    4    -21.32170    2.00000
    5    -20.26811    2.00000
    6    -20.00081    2.00000
    7    -19.52783    2.00000
    8    -18.84373    2.00000
    9    -18.66420    2.00000
   10    -17.55724    2.00000
   11    -16.93996    2.00000
   12    -16.80993    2.00000
   13    -16.30785    2.00000
   14    -15.79801    2.00000
   15    -15.18146    2.00000
   16    -15.07021    2.00000
   17    -14.00665    2.00000
   18    -13.19987    2.00000
   19    -12.89482    2.00000
   20    -12.72048    2.00000
   21    -12.51146    2.00000
   22    -12.33917    2.00000
   23    -11.85585    2.00000
   24    -11.55331    2.00000
   25    -11.17728    2.00000
   26    -11.04247    2.00000
   27    -10.67949    2.00000
   28    -10.59376    2.00000
   29    -10.29296    2.00000
   30     -9.83296    2.00000
   31     -9.07143    2.00000
   32     -8.70308    2.00000
   33     -8.40400    2.00000
   34     -8.29022    2.00000
   35     -7.96702    2.00000
   36     -7.66975    2.00000
   37     -7.47793    2.00000
   38     -7.13034    2.00000
   39     -6.61573    2.00000
   40     -6.34134    2.00000
   41     -6.19725    2.00000
   42     -6.03872    2.00000
   43     -5.87585    1.99998
   44     -5.69970    1.99989
   45     -5.25230    1.99029
   46     -5.02616    1.91053
   47     -4.91609    1.75317
   48     -4.55393    0.31922
   49     -4.28731    0.02606
   50     -3.92946    0.00074
   51     -3.74184    0.00011
   52     -3.57271    0.00002
   53     -2.88982    0.00000
   54     -2.68995    0.00000
   55     -2.07465    0.00000
   56     -1.76734    0.00000
   57     -1.55764    0.00000
   58     -1.14146    0.00000
   59     -0.76026    0.00000
   60     -0.52033    0.00000
   61      0.35048    0.00000
   62      0.87300    0.00000
   63      1.10549    0.00000
   64      1.49823    0.00000
   65      2.17382    0.00000
   66      2.68723    0.00000
   67      2.86067    0.00000
   68      3.08098    0.00000
   69      3.46809    0.00000
   70      3.68481    0.00000
   71      4.03441    0.00000
   72      4.20422    0.00000
   73      4.44554    0.00000
   74      5.05928    0.00000
   75      5.33194    0.00000
   76      5.95563    0.00000
   77      6.44285    0.00000
   78      6.60565    0.00000
   79      6.97246    0.00000
   80      7.30583    0.00000
   81      7.55954    0.00000
   82      7.69680    0.00000
   83      7.90526    0.00000
   84      7.98514    0.00000
   85      8.11841    0.00000
   86      8.29622    0.00000
   87      8.44327    0.00000
   88      8.71978    0.00000
   89      8.79532    0.00000
   90      8.90056    0.00000
   91      9.13561    0.00000
   92      9.22755    0.00000
   93      9.34599    0.00000
   94      9.47631    0.00000
   95      9.63689    0.00000
   96      9.71487    0.00000
   97      9.76442    0.00000


Forces in eV/Ang:
  0 C    -0.71037   -0.19639    0.44874
  1 C    -0.77202   -0.89472    0.60736
  2 C     0.70155    0.26912   -0.08380
  3 C    -0.33642   -0.97901    1.55973
  4 C    -0.43199    0.29778   -0.86584
  5 C    -0.43893    0.44009    1.14223
  6 C     0.44414    0.01890   -0.11050
  7 C    -0.11619   -0.44352   -0.38104
  8 C     0.00675   -0.25821   -0.53548
  9 C     1.02787   -0.26421    1.22784
 10 C    -0.07816    0.88430    0.01097
 11 C    -0.10769    0.29086   -0.22103
 12 C    -0.32701    0.04190   -0.24029
 13 C    -0.09513    0.05575   -0.74379
 14 C     0.10616   -0.09013   -0.83167
 15 C     0.78172   -0.41124   -0.33805
 16 C     0.29502   -0.10792   -0.49574
 17 C    -0.25895    0.67917   -2.20340
 18 C    -0.00892    0.88519   -0.01259
 19 C     0.62989   -0.16653    0.56079
 20 C     0.27172    0.18972    0.97514
 21 C    -0.42054   -0.00914   -0.50590
 22 C    -0.24926   -0.27078    0.77342
 23 C     0.04344   -0.02113    0.27685

System changes: positions 

Initializing position-dependent things.

Density initialized from wave functions
           .--------------------------------------.  
          /|                                      |  
         / |                                      |  
        /  |                                      |  
       /   |                                      |  
      /    |                                      |  
     /     |                                      |  
    /      |                                      |  
   /       |                                      |  
  /        |         C                            |  
 *         |        C  C  C  CC  C                |  
 |         |       C C  C   C  C  C               |  
 |         .---C---C-C---C-----C------------------.  
 |        /    C    C     CC                     /   
 |       /             C                        /    
 |      /                                      /     
 |     /                                      /      
 |    /                                      /       
 |   /                                      /        
 |  /                                      /         
 | /                                      /          
 |/                                      /           
 *--------------------------------------*            

Positions:
   0 C      9.724230    7.757250    6.268198
   1 C      8.464423    7.034762    6.450686
   2 C      6.252629    6.931087    7.124832
   3 C      5.940690    5.575138    6.630421
   4 C      7.748395    7.328080    4.991726
   5 C      8.887187    8.245720    4.997278
   6 C      6.586407    9.727020    5.189074
   7 C     10.384705    9.910691    4.601931
   8 C     11.104438    8.846382    4.512365
   9 C     10.461484    7.550701    4.894439
  10 C      7.731723   10.307307    4.986721
  11 C      8.970093    9.733246    4.822517
  12 C      5.656610    8.792512    5.320127
  13 C      6.288261    7.524986    5.254726
  14 C     10.553540    6.139915    4.750724
  15 C      9.309396    3.860759    5.169393
  16 C      9.489170    5.248485    4.976472
  17 C      5.725409    6.108616    5.216716
  18 C      8.125492    3.329430    5.321830
  19 C      4.497346    5.496746    5.629926
  20 C      8.155006    5.919625    5.225768
  21 C      6.840798    3.670504    5.365789
  22 C      4.491215    4.129474    5.718693
  23 C      6.895845    5.130537    5.392707

Unit cell:
           periodic     x           y           z      points  spacing
  1. axis:    yes   16.000000    0.000000    0.000000    80     0.2000
  2. axis:    yes    0.000000   16.000000    0.000000    80     0.2000
  3. axis:    yes    0.000000    0.000000   10.000000    48     0.2083

Effective grid spacing dv^(1/3) = 0.2027

                     log10-error:    total        iterations:
           time      wfs    density  energy       fermi  poisson
iter:   1  11:24:43          +inf  -169.185984    3      5      
iter:   2  11:24:43         -2.09  -169.170809    3      2      
iter:   3  11:24:44         -2.16  -169.146580    3      2      
iter:   4  11:24:45         -2.40  -169.145805    2      2      
iter:   5  11:24:45         -2.55  -169.144241    2      2      
iter:   6  11:24:46         -2.72  -169.144529    2      2      
iter:   7  11:24:46         -2.90  -169.143569    2      2      
iter:   8  11:24:47         -3.19  -169.144043    2      1      
iter:   9  11:24:48         -3.25  -169.145914    2      1      
iter:  10  11:24:48         -3.49  -169.144427    2      1      
iter:  11  11:24:49         -3.65  -169.143394    2      1      
iter:  12  11:24:50         -3.87  -169.142850    2      1      
iter:  13  11:24:50         -4.05  -169.142316    2      1      

Converged after 13 iterations.

Dipole moment: (0.186012, 0.063934, -0.407496) |e|*Ang

Energy contributions relative to reference atoms: (reference = -24663.074771)

Kinetic:       +110.251534
Potential:     -110.134797
External:        +0.000000
XC:            -171.982382
Entropy (-ST):   -0.201941
Local:           +2.824299
--------------------------
Free energy:   -169.243287
Extrapolated:  -169.142316

Fermi level: -4.73036

 Band  Eigenvalues  Occupancy
    0    -25.65341    2.00000
    1    -24.66511    2.00000
    2    -22.34247    2.00000
    3    -21.88499    2.00000
    4    -21.28932    2.00000
    5    -20.21583    2.00000
    6    -19.95766    2.00000
    7    -19.47438    2.00000
    8    -18.78383    2.00000
    9    -18.58219    2.00000
   10    -17.57351    2.00000
   11    -16.88828    2.00000
   12    -16.80384    2.00000
   13    -16.29015    2.00000
   14    -15.74599    2.00000
   15    -15.12692    2.00000
   16    -15.01302    2.00000
   17    -13.97480    2.00000
   18    -13.11181    2.00000
   19    -12.86615    2.00000
   20    -12.65837    2.00000
   21    -12.46613    2.00000
   22    -12.30103    2.00000
   23    -11.80568    2.00000
   24    -11.49245    2.00000
   25    -11.15440    2.00000
   26    -11.02019    2.00000
   27    -10.71025    2.00000
   28    -10.57420    2.00000
   29    -10.15878    2.00000
   30     -9.80122    2.00000
   31     -9.03291    2.00000
   32     -8.68636    2.00000
   33     -8.41718    2.00000
   34     -8.29987    2.00000
   35     -7.96999    2.00000
   36     -7.66471    2.00000
   37     -7.49834    2.00000
   38     -7.08827    2.00000
   39     -6.61641    2.00000
   40     -6.39190    2.00000
   41     -6.22844    2.00000
   42     -6.03689    2.00000
   43     -5.89719    1.99998
   44     -5.74806    1.99992
   45     -5.25933    1.98996
   46     -5.04417    1.91688
   47     -4.94020    1.78149
   48     -4.55707    0.30045
   49     -4.20513    0.01042
   50     -3.94705    0.00079
   51     -3.72577    0.00009
   52     -3.54135    0.00001
   53     -2.81963    0.00000
   54     -2.72623    0.00000
   55     -2.11089    0.00000
   56     -1.72743    0.00000
   57     -1.52950    0.00000
   58     -1.31905    0.00000
   59     -0.83899    0.00000
   60     -0.54547    0.00000
   61      0.22930    0.00000
   62      0.90075    0.00000
   63      1.16316    0.00000
   64      1.47838    0.00000
   65      2.08159    0.00000
   66      2.63851    0.00000
   67      2.71872    0.00000
   68      3.01044    0.00000
   69      3.34630    0.00000
   70      3.64771    0.00000
   71      3.99009    0.00000
   72      4.22915    0.00000
   73      4.38730    0.00000
   74      5.01656    0.00000
   75      5.18553    0.00000
   76      5.83001    0.00000
   77      6.41564    0.00000
   78      6.58903    0.00000
   79      6.93739    0.00000
   80      7.18274    0.00000
   81      7.51472    0.00000
   82      7.60862    0.00000
   83      7.86422    0.00000
   84      7.91843    0.00000
   85      8.03887    0.00000
   86      8.26852    0.00000
   87      8.40893    0.00000
   88      8.66360    0.00000
   89      8.72122    0.00000
   90      8.88045    0.00000
   91      9.11220    0.00000
   92      9.19010    0.00000
   93      9.35850    0.00000
   94      9.41429    0.00000
   95      9.60470    0.00000
   96      9.64203    0.00000
   97      9.73767    0.00000


Forces in eV/Ang:
  0 C    -0.59677   -0.02275    0.00883
  1 C    -0.80015   -1.16499   -0.01188
  2 C     0.66974    0.15630   -0.28062
  3 C    -0.13962   -0.63584    0.59311
  4 C    -0.14314    0.32300   -0.55672
  5 C    -0.54651    0.29844    1.37032
  6 C     0.11050   -0.00046   -0.12465
  7 C    -0.17474   -0.39680   -0.35992
  8 C    -0.14204   -0.52563   -0.29204
  9 C     0.84442   -0.32607    1.13844
 10 C     0.14988    0.81247   -0.01187
 11 C    -0.03690    0.15979   -0.17918
 12 C    -0.15670    0.11348   -0.22836
 13 C    -0.04924   -0.03852   -0.80658
 14 C    -0.03384    0.24804   -0.54426
 15 C     0.56124   -0.38360   -0.42648
 16 C     0.13435   -0.00326   -0.30467
 17 C     0.01489    0.28661   -1.26359
 18 C     0.19707    0.80757    0.00593
 19 C     0.54650   -0.07799    0.59310
 20 C     0.20765    0.31007    1.12159
 21 C    -0.34592    0.11342   -0.48955
 22 C    -0.27214   -0.20283    0.82217
 23 C    -0.08059    0.12606    0.25911

System changes: positions 

Initializing position-dependent things.

Density initialized from wave functions
           .--------------------------------------.  
          /|                                      |  
         / |                                      |  
        /  |                                      |  
       /   |                                      |  
      /    |                                      |  
     /     |                                      |  
    /      |                                      |  
   /       |                                      |  
  /        |         C                            |  
 *         |        C  C  C  C  C                 |  
 |         |       C C  C   C  C  C               |  
 |         .---C---C-C---C-----C------------------.  
 |        /    C    C     CC                     /   
 |       /             C                        /    
 |      /                                      /     
 |     /                                      /      
 |    /                                      /       
 |   /                                      /        
 |  /                                      /         
 | /                                      /          
 |/                                      /           
 *--------------------------------------*            

Positions:
   0 C      9.704579    7.751024    6.280323
   1 C      8.443090    7.014734    6.467407
   2 C      6.269459    6.934984    7.122953
   3 C      5.927721    5.566085    6.643054
   4 C      7.742291    7.334735    4.971229
   5 C      8.876029    8.257632    5.023560
   6 C      6.591394    9.720742    5.187281
   7 C     10.380679    9.901362    4.593193
   8 C     11.107258    8.839863    4.498170
   9 C     10.489492    7.543507    4.922075
  10 C      7.731812   10.328877    4.986636
  11 C      8.965505    9.743343    4.817492
  12 C      5.653217    8.799184    5.313355
  13 C      6.282876    7.529100    5.237005
  14 C     10.557934    6.136649    4.730823
  15 C      9.325502    3.849871    5.162368
  16 C      9.497138    5.242639    4.963542
  17 C      5.724151    6.109285    5.190679
  18 C      8.124660    3.352991    5.320887
  19 C      4.513785    5.491174    5.642429
  20 C      8.162406    5.926671    5.247662
  21 C      6.833413    3.667764    5.352644
  22 C      4.485051    4.125060    5.737175
  23 C      6.893047    5.130798    5.401709

Unit cell:
           periodic     x           y           z      points  spacing
  1. axis:    yes   16.000000    0.000000    0.000000    80     0.2000
  2. axis:    yes    0.000000   16.000000    0.000000    80     0.2000
  3. axis:    yes    0.000000    0.000000   10.000000    48     0.2083

Effective grid spacing dv^(1/3) = 0.2027

                     log10-error:    total        iterations:
           time      wfs    density  energy       fermi  poisson
iter:   1  11:24:52          +inf  -169.557332    3      5      
iter:   2  11:24:53         -2.11  -169.543998    2      2      
iter:   3  11:24:54         -2.18  -169.520519    3      2      
iter:   4  11:24:54         -2.43  -169.521709    2      2      
iter:   5  11:24:55         -2.60  -169.518491    2      2      
iter:   6  11:24:56         -2.70  -169.520039    2      2      
iter:   7  11:24:56         -2.94  -169.518390    2      2      
iter:   8  11:24:57         -3.23  -169.518545    2      1      
iter:   9  11:24:57         -3.28  -169.519630    2      1      
iter:  10  11:24:58         -3.48  -169.520162    2      1      
iter:  11  11:24:59         -3.87  -169.518254    2      1      
iter:  12  11:24:59         -3.95  -169.517841    2      1      
iter:  13  11:25:00         -4.01  -169.518065    2      1      

Converged after 13 iterations.

Dipole moment: (0.184242, 0.093309, -0.389265) |e|*Ang

Energy contributions relative to reference atoms: (reference = -24663.074771)

Kinetic:       +104.513064
Potential:     -106.144629
External:        +0.000000
XC:            -170.629701
Entropy (-ST):   -0.185288
Local:           +2.835845
--------------------------
Free energy:   -169.610709
Extrapolated:  -169.518065

Fermi level: -4.74088

 Band  Eigenvalues  Occupancy
    0    -25.51952    2.00000
    1    -24.49545    2.00000
    2    -22.24560    2.00000
    3    -21.83877    2.00000
    4    -21.25796    2.00000
    5    -20.18445    2.00000
    6    -19.91071    2.00000
    7    -19.42638    2.00000
    8    -18.73350    2.00000
    9    -18.50383    2.00000
   10    -17.60395    2.00000
   11    -16.84918    2.00000
   12    -16.78931    2.00000
   13    -16.27161    2.00000
   14    -15.70320    2.00000
   15    -15.06865    2.00000
   16    -14.95580    2.00000
   17    -13.95096    2.00000
   18    -13.04263    2.00000
   19    -12.85715    2.00000
   20    -12.59801    2.00000
   21    -12.41167    2.00000
   22    -12.28133    2.00000
   23    -11.76827    2.00000
   24    -11.43118    2.00000
   25    -11.13859    2.00000
   26    -10.99800    2.00000
   27    -10.73502    2.00000
   28    -10.55997    2.00000
   29    -10.03111    2.00000
   30     -9.77301    2.00000
   31     -9.00067    2.00000
   32     -8.66655    2.00000
   33     -8.43545    2.00000
   34     -8.32365    2.00000
   35     -7.96192    2.00000
   36     -7.66425    2.00000
   37     -7.49971    2.00000
   38     -7.04546    2.00000
   39     -6.62862    2.00000
   40     -6.44026    2.00000
   41     -6.24545    2.00000
   42     -6.02487    1.99999
   43     -5.91353    1.99998
   44     -5.80739    1.99995
   45     -5.26263    1.98922
   46     -5.06133    1.92201
   47     -4.96762    1.81227
   48     -4.55576    0.27144
   49     -4.12400    0.00418
   50     -3.96855    0.00088
   51     -3.69913    0.00006
   52     -3.49533    0.00001
   53     -2.86584    0.00000
   54     -2.63752    0.00000
   55     -2.13282    0.00000
   56     -1.71952    0.00000
   57     -1.50481    0.00000
   58     -1.48812    0.00000
   59     -0.93611    0.00000
   60     -0.56525    0.00000
   61      0.07830    0.00000
   62      0.94830    0.00000
   63      1.10877    0.00000
   64      1.55779    0.00000
   65      2.05337    0.00000
   66      2.60813    0.00000
   67      2.61118    0.00000
   68      2.95186    0.00000
   69      3.23295    0.00000
   70      3.59932    0.00000
   71      3.96888    0.00000
   72      4.30678    0.00000
   73      4.34136    0.00000
   74      4.97833    0.00000
   75      5.08374    0.00000
   76      5.70680    0.00000
   77      6.39636    0.00000
   78      6.58931    0.00000
   79      6.85346    0.00000
   80      7.11076    0.00000
   81      7.45556    0.00000
   82      7.51778    0.00000
   83      7.83953    0.00000
   84      7.85382    0.00000
   85      7.99349    0.00000
   86      8.23539    0.00000
   87      8.38758    0.00000
   88      8.59573    0.00000
   89      8.67213    0.00000
   90      8.86184    0.00000
   91      9.07733    0.00000
   92      9.15976    0.00000
   93      9.34800    0.00000
   94      9.36284    0.00000
   95      9.56522    0.00000
   96      9.58358    0.00000
   97      9.72244    0.00000


Forces in eV/Ang:
  0 C    -0.55661    0.11269   -0.35683
  1 C    -0.74134   -1.38067   -0.44196
  2 C     0.65785    0.09091   -0.38553
  3 C     0.04017   -0.35073   -0.09148
  4 C     0.02897    0.32869   -0.26201
  5 C    -0.69987    0.26872    1.53987
  6 C     0.35088    0.34912   -0.22176
  7 C    -0.12204   -0.48637   -0.35742
  8 C    -0.30757   -0.64319   -0.09241
  9 C     0.78024   -0.39477    0.97787
 10 C    -0.08555    0.58676    0.03593
 11 C     0.00606    0.05313   -0.16212
 12 C    -0.13766   -0.02592   -0.19432
 13 C    -0.03169   -0.12434   -0.85530
 14 C    -0.18831    0.45065   -0.27038
 15 C     0.45151   -0.22980   -0.49915
 16 C     0.08846    0.07741   -0.16429
 17 C     0.15517    0.01396   -0.54342
 18 C     0.21451    0.66061    0.04328
 19 C     0.47345    0.00699    0.55483
 20 C     0.14307    0.32831    1.17847
 21 C    -0.14589    0.15640   -0.46448
 22 C    -0.29285   -0.14294    0.83337
 23 C    -0.14604    0.22760    0.26337

System changes: positions 

Initializing position-dependent things.

Density initialized from wave functions
           .--------------------------------------.  
          /|                                      |  
         / |                                      |  
        /  |                                      |  
       /   |                                      |  
      /    |                                      |  
     /     |                                      |  
    /      |                                      |  
   /       |                                      |  
  /        |         C                            |  
 *         |        C  C  C  C  C                 |  
 |         |       C C  C   C  C  C               |  
 |         .---C---C-C---C------------------------.  
 |        /   C     C     CC   C                 /   
 |       /             C                        /    
 |      /                                      /     
 |     /                                      /      
 |    /                                      /       
[...]

Dipole moment: (0.281145, 0.078170, 0.242960) |e|*Ang

Energy contributions relative to reference atoms: (reference = -24663.074771)

Kinetic:       +111.812640
Potential:     -115.791039
External:        +0.000000
XC:            -178.170620
Entropy (-ST):   -0.122088
Local:           +2.985120
--------------------------
Free energy:   -179.285987
Extrapolated:  -179.224943

Fermi level: -4.46841

 Band  Eigenvalues  Occupancy
    0    -24.34431    2.00000
    1    -22.76520    2.00000
    2    -21.74007    2.00000
    3    -21.39327    2.00000
    4    -21.05069    2.00000
    5    -20.68256    2.00000
    6    -20.03414    2.00000
    7    -19.37913    2.00000
    8    -18.89138    2.00000
    9    -18.64515    2.00000
   10    -17.81354    2.00000
   11    -17.43076    2.00000
   12    -16.90496    2.00000
   13    -16.01765    2.00000
   14    -15.57591    2.00000
   15    -14.90145    2.00000
   16    -14.44623    2.00000
   17    -14.16540    2.00000
   18    -13.23853    2.00000
   19    -13.06851    2.00000
   20    -12.67514    2.00000
   21    -12.18888    2.00000
   22    -12.04583    2.00000
   23    -11.72034    2.00000
   24    -11.55420    2.00000
   25    -11.31330    2.00000
   26    -10.74153    2.00000
   27    -10.51468    2.00000
   28    -10.21686    2.00000
   29    -10.07492    2.00000
   30     -9.61103    2.00000
   31     -9.33315    2.00000
   32     -8.78238    2.00000
   33     -8.72307    2.00000
   34     -8.52150    2.00000
   35     -7.79921    2.00000
   36     -7.60376    2.00000
   37     -7.39822    2.00000
   38     -7.25025    2.00000
   39     -7.07459    2.00000
   40     -7.01014    2.00000
   41     -6.54689    2.00000
   42     -6.19800    2.00000
   43     -5.98072    2.00000
   44     -5.56313    1.99996
   45     -5.14613    1.99772
   46     -4.91664    1.97764
   47     -4.72694    1.85982
   48     -4.22715    0.16444
   49     -3.61916    0.00041
   50     -3.11488    0.00000
   51     -3.03732    0.00000
   52     -2.90631    0.00000
   53     -2.36332    0.00000
   54     -2.16524    0.00000
   55     -1.94590    0.00000
   56     -1.60291    0.00000
   57     -1.22437    0.00000
   58     -0.65229    0.00000
   59     -0.50673    0.00000
   60     -0.06997    0.00000
   61      0.01838    0.00000
   62      1.51291    0.00000
   63      2.08695    0.00000
   64      2.42868    0.00000
   65      3.02750    0.00000
   66      3.10735    0.00000
   67      3.70002    0.00000
   68      4.24853    0.00000
   69      4.70440    0.00000
   70      5.12652    0.00000
   71      5.29391    0.00000
   72      5.60086    0.00000
   73      5.88613    0.00000
   74      6.13532    0.00000
   75      6.50342    0.00000
   76      6.55262    0.00000
   77      6.71381    0.00000
   78      7.01311    0.00000
   79      7.26540    0.00000
   80      7.61207    0.00000
   81      7.91524    0.00000
   82      8.06767    0.00000
   83      8.28732    0.00000
   84      8.33576    0.00000
   85      8.52405    0.00000
   86      8.72881    0.00000
   87      8.80543    0.00000
   88      8.82432    0.00000
   89      8.95716    0.00000
   90      9.09457    0.00000
   91      9.31787    0.00000
   92      9.42283    0.00000
   93      9.53577    0.00000
   94      9.71594    0.00000
   95      9.98094    0.00000
   96     10.07395    0.00000
   97     10.22191    0.00000


Forces in eV/Ang:
  0 C     0.02305    0.00656    0.03590
  1 C     0.01318   -0.01574    0.03472
  2 C     0.00293   -0.02239    0.03448
  3 C     0.00729   -0.03207    0.06693
  4 C     0.00472    0.06050    0.04327
  5 C     0.04016    0.02629   -0.04041
  6 C    -0.01514   -0.02975    0.02365
  7 C    -0.00834    0.00759    0.00183
  8 C    -0.00323   -0.02787   -0.05640
  9 C    -0.00849    0.01300   -0.01123
 10 C    -0.01193    0.02308    0.04328
 11 C     0.01278    0.01249   -0.03220
 12 C    -0.01493    0.02656   -0.04037
 13 C     0.01941    0.01676   -0.07531
 14 C    -0.03946   -0.00051    0.01024
 15 C     0.00067    0.03217   -0.01758
 16 C    -0.05874   -0.03207    0.08046
 17 C    -0.03128    0.07145   -0.11546
 18 C     0.02007   -0.03297    0.00012
 19 C    -0.06279    0.02332   -0.02641
 20 C     0.03341    0.02346   -0.02777
 21 C    -0.01736   -0.01017   -0.00080
 22 C     0.04912   -0.09011    0.01785
 23 C     0.01707   -0.04324    0.09630

System changes: positions 

Initializing position-dependent things.

Density initialized from wave functions
           .--------------------------------------.  
          /|                                      |  
         / |                                      |  
        /  |                                      |  
       /   |                                      |  
      /    |                                      |  
     /     |                                      |  
    /      |                                      |  
   /       |                                      |  
  /        |     C  C  C                          |  
 *         |             CC C   CC                |  
 |         |     C  C  C   C                      |  
 |         .------C-C---C-----C-------------------.  
 |        /          C     C                     /   
 |       /          C      C                    /    
 |      /              C                       /     
 |     /                                      /      
 |    /                                      /       
 |   /                                      /        
 |  /                                      /         
 | /                                      /          
 |/                                      /           
 *--------------------------------------*            

Positions:
   0 C      9.338544    7.321949    6.209895
   1 C      8.303603    6.281202    6.724898
   2 C      7.534884    6.097171    7.834008
   3 C      6.248075    5.854810    7.784094
   4 C      7.480872    7.270335    4.912360
   5 C      8.472210    8.162585    5.328417
   6 C      6.545569    9.565883    4.244313
   7 C     10.188358    9.721356    5.170557
   8 C     11.030097    8.827056    5.510294
   9 C     10.789302    7.480454    5.914391
  10 C      7.656852   10.251374    4.413339
  11 C      8.764950    9.521790    4.915942
  12 C      5.573235    8.662568    4.301765
  13 C      6.085218    7.372075    4.600718
  14 C     10.278393    6.378068    5.252593
  15 C      9.453892    4.162486    4.088588
  16 C      9.377369    5.424201    4.724568
  17 C      5.548764    5.992543    4.904625
  18 C      8.226002    3.674966    4.123595
  19 C      4.990626    5.823856    6.127396
  20 C      7.932248    5.848086    5.278256
  21 C      6.915911    3.745354    4.364815
  22 C      4.947438    5.685760    7.459994
  23 C      6.732137    5.029008    4.869496

Unit cell:
           periodic     x           y           z      points  spacing
  1. axis:    yes   16.000000    0.000000    0.000000    80     0.2000
  2. axis:    yes    0.000000   16.000000    0.000000    80     0.2000
  3. axis:    yes    0.000000    0.000000   10.000000    48     0.2083

Effective grid spacing dv^(1/3) = 0.2027

                     log10-error:    total        iterations:
           time      wfs    density  energy       fermi  poisson
iter:   1  11:42:44          +inf  -179.225435    2      5      
iter:   2  11:42:45         -2.80  -179.224929    2      1      
iter:   3  11:42:46         -2.87  -179.225324    2      1      
iter:   4  11:42:46         -3.10  -179.225423    2      1      
iter:   5  11:42:47         -3.29  -179.224823    2      1      
iter:   6  11:42:48         -3.70  -179.225208    2      1      
iter:   7  11:42:48         -3.81  -179.225345    2      1      
iter:   8  11:42:49         -3.94  -179.225313    2      1      
iter:   9  11:42:49         -4.11  -179.225345    2      1      

Converged after 9 iterations.

Dipole moment: (0.280905, 0.085684, 0.235596) |e|*Ang

Energy contributions relative to reference atoms: (reference = -24663.074771)

Kinetic:       +111.988529
Potential:     -115.913439
External:        +0.000000
XC:            -178.226036
Entropy (-ST):   -0.125320
Local:           +2.988260
--------------------------
Free energy:   -179.288004
Extrapolated:  -179.225345

Fermi level: -4.47384

 Band  Eigenvalues  Occupancy
    0    -24.34211    2.00000
    1    -22.77232    2.00000
    2    -21.74298    2.00000
    3    -21.40563    2.00000
    4    -21.05252    2.00000
    5    -20.68591    2.00000
    6    -20.03727    2.00000
    7    -19.38252    2.00000
    8    -18.89262    2.00000
    9    -18.64813    2.00000
   10    -17.81167    2.00000
   11    -17.42399    2.00000
   12    -16.91069    2.00000
   13    -16.02031    2.00000
   14    -15.57251    2.00000
   15    -14.90692    2.00000
   16    -14.44060    2.00000
   17    -14.17494    2.00000
   18    -13.23616    2.00000
   19    -13.06546    2.00000
   20    -12.67487    2.00000
   21    -12.18202    2.00000
   22    -12.05061    2.00000
   23    -11.72306    2.00000
   24    -11.56201    2.00000
   25    -11.31074    2.00000
   26    -10.73234    2.00000
   27    -10.51049    2.00000
   28    -10.22015    2.00000
   29    -10.06996    2.00000
   30     -9.61402    2.00000
   31     -9.34232    2.00000
   32     -8.78497    2.00000
   33     -8.72203    2.00000
   34     -8.52300    2.00000
   35     -7.80169    2.00000
   36     -7.60169    2.00000
   37     -7.40182    2.00000
   38     -7.25604    2.00000
   39     -7.06850    2.00000
   40     -7.01234    2.00000
   41     -6.54869    2.00000
   42     -6.19566    2.00000
   43     -5.97689    2.00000
   44     -5.56505    1.99996
   45     -5.14269    1.99751
   46     -4.92159    1.97753
   47     -4.72783    1.85379
   48     -4.23674    0.17082
   49     -3.61574    0.00038
   50     -3.11529    0.00000
   51     -3.02674    0.00000
   52     -2.88788    0.00000
   53     -2.36218    0.00000
   54     -2.16596    0.00000
   55     -1.93573    0.00000
   56     -1.61153    0.00000
   57     -1.23368    0.00000
   58     -0.62693    0.00000
   59     -0.50421    0.00000
   60     -0.06822    0.00000
   61      0.03386    0.00000
   62      1.52606    0.00000
   63      2.08685    0.00000
   64      2.42981    0.00000
   65      3.01590    0.00000
   66      3.07219    0.00000
   67      3.69263    0.00000
   68      4.25918    0.00000
   69      4.70358    0.00000
   70      5.15170    0.00000
   71      5.30678    0.00000
   72      5.58990    0.00000
   73      5.89021    0.00000
   74      6.13670    0.00000
   75      6.50650    0.00000
   76      6.55100    0.00000
   77      6.71487    0.00000
   78      7.02363    0.00000
   79      7.26836    0.00000
   80      7.61264    0.00000
   81      7.91289    0.00000
   82      8.06453    0.00000
   83      8.29021    0.00000
   84      8.33970    0.00000
   85      8.52767    0.00000
   86      8.73100    0.00000
   87      8.80935    0.00000
   88      8.81676    0.00000
   89      8.96294    0.00000
   90      9.08557    0.00000
   91      9.31420    0.00000
   92      9.42290    0.00000
   93      9.52766    0.00000
   94      9.71178    0.00000
   95      9.96294    0.00000
   96     10.07513    0.00000
   97     10.22891    0.00000


Forces in eV/Ang:
  0 C    -0.02068    0.00416    0.04925
  1 C     0.05091    0.04191    0.06355
  2 C     0.08036   -0.01250    0.00818
  3 C     0.00982   -0.05364    0.06212
  4 C    -0.04787    0.02956    0.00655
  5 C     0.05648    0.01546   -0.03442
  6 C    -0.01096   -0.02208    0.04430
  7 C     0.01811   -0.00161    0.02100
  8 C     0.02214   -0.00595   -0.03825
  9 C    -0.05728    0.00113   -0.01822
 10 C    -0.00247    0.03490   -0.02206
 11 C    -0.01749   -0.04160   -0.02134
 12 C     0.00787    0.02630   -0.01997
 13 C     0.04983    0.05132   -0.04300
 14 C    -0.05399    0.02038    0.01562
 15 C    -0.01927    0.00172   -0.00681
 16 C    -0.04304   -0.03057    0.05027
 17 C    -0.04086    0.07343   -0.14472
 18 C     0.03636   -0.06920   -0.03047
 19 C    -0.05432    0.01733   -0.01169
 20 C    -0.02373    0.02963    0.00995
 21 C     0.01304   -0.02722   -0.03174
 22 C     0.02395   -0.06241    0.01073
 23 C     0.02573   -0.07155    0.05986

System changes: positions 

Initializing position-dependent things.

Density initialized from wave functions
           .--------------------------------------.  
          /|                                      |  
         / |                                      |  
        /  |                                      |  
       /   |                                      |  
      /    |                                      |  
     /     |                                      |  
    /      |                                      |  
   /       |                                      |  
  /        |     C  C  C                          |  
 *         |             CC C   CC                |  
 |         |     C  C  C   C                      |  
 |         .------C-C---C-----C-------------------.  
 |        /          C     C                     /   
 |       /          C      C                    /    
 |      /              C                       /     
 |     /                                      /      
 |    /                                      /       
 |   /                                      /        
 |  /                                      /         
 | /                                      /          
 |/                                      /           
 *--------------------------------------*            

Positions:
   0 C      9.339698    7.321023    6.209787
   1 C      8.304254    6.280843    6.726028
   2 C      7.536248    6.096218    7.835347
   3 C      6.248431    5.855117    7.784483
   4 C      7.480437    7.271127    4.913464
   5 C      8.473762    8.162380    5.327488
   6 C      6.545192    9.565622    4.245093
   7 C     10.188677    9.721784    5.169677
   8 C     11.030440    8.826839    5.508113
   9 C     10.790776    7.481000    5.914696
  10 C      7.655868   10.251474    4.414804
  11 C      8.765232    9.521505    4.915586
  12 C      5.572613    8.662514    4.300049
  13 C      6.085696    7.372467    4.599448
  14 C     10.275692    6.379063    5.255225
  15 C      9.453443    4.163345    4.088555
  16 C      9.375063    5.424146    4.726237
  17 C      5.548125    5.992554    4.902173
  18 C      8.226293    3.674488    4.122029
  19 C      4.990419    5.823376    6.126763
  20 C      7.932064    5.848300    5.278717
  21 C      6.915884    3.744850    4.363684
  22 C      4.947770    5.685615    7.460356
  23 C      6.732191    5.027920    4.870697

Unit cell:
           periodic     x           y           z      points  spacing
  1. axis:    yes   16.000000    0.000000    0.000000    80     0.2000
  2. axis:    yes    0.000000   16.000000    0.000000    80     0.2000
  3. axis:    yes    0.000000    0.000000   10.000000    48     0.2083

Effective grid spacing dv^(1/3) = 0.2027

                     log10-error:    total        iterations:
           time      wfs    density  energy       fermi  poisson
iter:   1  11:42:51          +inf  -179.226504    2      4      
iter:   2  11:42:52         -3.21  -179.226927    2      1      
iter:   3  11:42:53         -3.31  -179.227933    2      1      
iter:   4  11:42:53         -3.59  -179.227759    2      1      
iter:   5  11:42:54         -3.81  -179.227911    2      1      
iter:   6  11:42:55         -3.97  -179.226777    1      1      
iter:   7  11:42:55         -4.09  -179.226602    2      1      

Converged after 7 iterations.

Dipole moment: (0.280307, 0.084811, 0.235866) |e|*Ang

Energy contributions relative to reference atoms: (reference = -24663.074771)

Kinetic:       +111.722481
Potential:     -115.695125
External:        +0.000000
XC:            -178.167735
Entropy (-ST):   -0.124945
Local:           +2.976250
--------------------------
Free energy:   -179.289075
Extrapolated:  -179.226602

Fermi level: -4.47496

 Band  Eigenvalues  Occupancy
    0    -24.34614    2.00000
    1    -22.77133    2.00000
    2    -21.74418    2.00000
    3    -21.40181    2.00000
    4    -21.04931    2.00000
    5    -20.68606    2.00000
    6    -20.03647    2.00000
    7    -19.38138    2.00000
    8    -18.89282    2.00000
    9    -18.64509    2.00000
   10    -17.81085    2.00000
   11    -17.41869    2.00000
   12    -16.91054    2.00000
   13    -16.01787    2.00000
   14    -15.57096    2.00000
   15    -14.90731    2.00000
   16    -14.43572    2.00000
   17    -14.17474    2.00000
   18    -13.23386    2.00000
   19    -13.06342    2.00000
   20    -12.67381    2.00000
   21    -12.18153    2.00000
   22    -12.04934    2.00000
   23    -11.72228    2.00000
   24    -11.56067    2.00000
   25    -11.30615    2.00000
   26    -10.72665    2.00000
   27    -10.50789    2.00000
   28    -10.21706    2.00000
   29    -10.06666    2.00000
   30     -9.61401    2.00000
   31     -9.33909    2.00000
   32     -8.78288    2.00000
   33     -8.72122    2.00000
   34     -8.52114    2.00000
   35     -7.80265    2.00000
   36     -7.59932    2.00000
   37     -7.39989    2.00000
   38     -7.25652    2.00000
   39     -7.06989    2.00000
   40     -7.01797    2.00000
   41     -6.54882    2.00000
   42     -6.19431    2.00000
   43     -5.97586    2.00000
   44     -5.56518    1.99996
   45     -5.14494    1.99754
   46     -4.92374    1.97776
   47     -4.72925    1.85418
   48     -4.23746    0.17019
   49     -3.61531    0.00037
   50     -3.11616    0.00000
   51     -3.02523    0.00000
   52     -2.88775    0.00000
   53     -2.36576    0.00000
   54     -2.17248    0.00000
   55     -1.93854    0.00000
   56     -1.60991    0.00000
   57     -1.23589    0.00000
   58     -0.63807    0.00000
   59     -0.50263    0.00000
   60     -0.07399    0.00000
   61      0.05465    0.00000
   62      1.52951    0.00000
   63      2.08700    0.00000
   64      2.43210    0.00000
   65      3.01401    0.00000
   66      3.06640    0.00000
   67      3.69288    0.00000
   68      4.26095    0.00000
   69      4.70454    0.00000
   70      5.15897    0.00000
   71      5.31073    0.00000
   72      5.58443    0.00000
   73      5.87429    0.00000
   74      6.13062    0.00000
   75      6.49920    0.00000
   76      6.54406    0.00000
   77      6.70827    0.00000
   78      7.01922    0.00000
   79      7.26411    0.00000
   80      7.60813    0.00000
   81      7.91082    0.00000
   82      8.06437    0.00000
   83      8.28909    0.00000
   84      8.33944    0.00000
   85      8.52783    0.00000
   86      8.73072    0.00000
   87      8.81071    0.00000
   88      8.81655    0.00000
   89      8.96303    0.00000
   90      9.08338    0.00000
   91      9.31348    0.00000
   92      9.42260    0.00000
   93      9.52432    0.00000
   94      9.71144    0.00000
   95      9.96208    0.00000
   96     10.07483    0.00000
   97     10.23594    0.00000


Forces in eV/Ang:
  0 C    -0.03307    0.01881    0.04853
  1 C     0.03965    0.05092    0.06452
  2 C     0.03858   -0.01247    0.01262
  3 C     0.03459   -0.05893    0.05947
  4 C    -0.02973    0.01421   -0.00067
  5 C     0.01908    0.00464   -0.01468
  6 C    -0.01701   -0.01316    0.03984
  7 C     0.02100   -0.01262    0.02353
  8 C     0.01577   -0.00231   -0.02550
  9 C    -0.04516    0.00252   -0.02475
 10 C     0.02302    0.03002   -0.03112
 11 C    -0.01931   -0.02963   -0.02126
 12 C     0.01740    0.02231   -0.00911
 13 C     0.03434    0.03699   -0.03897
 14 C    -0.04487   -0.01165   -0.00332
 15 C    -0.01160    0.00916   -0.01116
 16 C    -0.00810   -0.01489    0.04616
 17 C    -0.04745    0.05462   -0.05739
 18 C    -0.00003   -0.06451   -0.01717
 19 C    -0.02437    0.02160   -0.03187
 20 C    -0.03776    0.01237    0.02951
 21 C     0.03563   -0.01517   -0.02760
 22 C     0.03633   -0.03157   -0.03051
 23 C     0.01418   -0.05656    0.03914

