
  ___ ___ ___ _ _ _  
 |   |   |_  | | | | 
 | | | | | . | | | | 
 |__ |  _|___|_____|  1.3.0b1
 |___|_|             

User:   esb@s65n74.grendel.cscaa.dk
Date:   Thu Nov  9 10:43:01 2017
Arch:   x86_64
Pid:    99845
Python: 2.7.13
gpaw:   /home/esb/DFT/gpaw_git/gpaw
_gpaw:  /home/esb/DFT/gpaw_git/build/bin.linux-x86_64-2.7/gpaw-python
ase:    /home/esb/DFT/ase_git/ase (version 3.15.0b1)
numpy:  /comm/swstack/core/python/2.7.13/lib/python2.7/site-packages/numpy (version 1.13.3)
scipy:  /comm/swstack/core/python/2.7.13/lib/python2.7/site-packages/scipy (version 0.19.1)
units:  Angstrom and eV
cores:  16
Extra parameters: {'blacs': True}

Input parameters:
  basis: dzp
  gpts: [80 80 48]
  kpts: [1 1 1]
  maxiter: 99
  mixer: {backend: pulay,
          beta: 0.05,
          method: separate,
          nmaxold: 5,
          weight: 75}
  mode: lcao
  nbands: -50
  occupations: {name: fermi-dirac,
                width: 0.1}
  poissonsolver: {eps: 1e-07,
                  name: fd,
                  nn: 3,
                  relax: GS}
  xc: PBE

System changes: positions, numbers, cell, pbc, initial_charges, initial_magmoms 

Initialize ...

C-setup:
  name: Carbon
  id: 4aa54d4b901d75f77cc0ea3eec22967b
  Z: 6
  valence: 4
  core: 2
  charge: 0.0
  file: /home/esb/DFT/gpaw-setups-0.8.7929/C.PBE.gz
  cutoffs: 0.64(comp), 1.14(filt), 1.14(core), lmax=2
  valence states:
                energy  radius
    2s(2.00)   -13.751   0.635
    2p(2.00)    -5.284   0.635
    *s          13.461   0.635
    *p          21.927   0.635
    *d           0.000   0.635

  LCAO basis set for C:
    Name: dzp
    File: /home/esb/DFT/gpaw-setups-0.8.7929/C.dzp.basis.gz
    Number of radial functions: 5
    Number of spherical harmonics: 13
      l=0, rc=5.5469 Bohr: 2s-sz confined orbital
      l=1, rc=6.6719 Bohr: 2p-sz confined orbital
      l=0, rc=3.0312 Bohr: 2s-dz split-valence wave
      l=1, rc=3.7500 Bohr: 2p-dz split-valence wave
      l=2, rc=6.6719 Bohr: d-type Gaussian polarization

Reference energy: -24663.074771

Spin-paired calculation

Occupation numbers:
  Fermi-Dirac: width=0.1000 eV

Convergence criteria:
  Maximum total energy change: 0.0005 eV / electron
  Maximum integral of absolute density change: 0.0001 electrons
  Maximum integral of absolute eigenstate change: 4e-08 eV^2
  Maximum number of iterations: 99

Symmetries present (total): 1

  ( 1  0  0)
  ( 0  1  0)
  ( 0  0  1)

1 k-point (Gamma)
1 k-point in the irreducible part of the Brillouin zone
       k-points in crystal coordinates                weights
   0:     0.00000000    0.00000000    0.00000000          1/1

Wave functions: LCAO
  Diagonalizer: Serial LAPACK
  Atomic Correction: dense with blas
  Datatype: float
  Eigensolver: None 

LCAO using direct dense diagonalizer 

Densities:
  Coarse grid: 80*80*48 grid
  Fine grid: 160*160*96 grid
  Total Charge: 0.000000 

Density mixing:
  Method: separate
  Backend: pulay
  Linear mixing parameter: 0.05
  Mixing with 5 old densities
  Damping of long wave oscillations: 75 

Hamiltonian:
  XC and Coulomb potentials evaluated on a 160*160*96 grid
  Using the PBE Exchange-Correlation functional
  Interpolation: tri-quintic (5. degree polynomial)
  Poisson solver: Gauss-Seidel solver with 6 multi-grid levels
    Coarsest grid: 5 x 5 x 3 points
    Stencil: 6*3+1=19 point O(h^6) finite-difference Laplacian
    Max iterations: 1000
    Tolerance: 1.000000e-07 

Memory estimate:
  Process memory now: 77.59 MiB
  Calculator: 15.59 MiB
    Density: 6.13 MiB
      Arrays: 3.81 MiB
      Localized functions: 0.86 MiB
      Mixer: 1.46 MiB
    Hamiltonian: 5.40 MiB
      Arrays: 2.49 MiB
      XC: 0.00 MiB
      Poisson: 2.85 MiB
      vbar: 0.07 MiB
    Wavefunctions: 4.05 MiB
      C [qnM]: 0.23 MiB
      S, T [2 x qmm]: 1.49 MiB
      P [aqMi]: 0.01 MiB
      TCI: 0.00 MiB
      BasisFunctions: 2.33 MiB
      Eigensolver: 0.00 MiB

Total number of cores used: 16
Domain decomposition: 2 x 4 x 2

Number of atoms: 24
Number of atomic orbitals: 312
Number of bands in calculation: 98
Bands to converge: occupied states only
Number of valence electrons: 96

... initialized

Initializing position-dependent things.

Density initialized from atomic densities
           .--------------------------------------.  
          /|                                      |  
         / |                                      |  
        /  |                                      |  
       /   |                                      |  
      /    |                                      |  
     /     |                                      |  
    /      |                                      |  
   /       |            C                         |  
  /        |      C  C   C                        |  
 *         |     C   C    C                       |  
 |         |      C        C  C  C                |  
 |         .---C--------C-------------------------.  
 |        /      C C   CC      C  C              /   
 |       /         C        C                   /    
 |      /             C                        /     
 |     /                                      /      
 |    /                                      /       
 |   /                                      /        
 |  /                                      /         
 | /                                      /          
 |/                                      /           
 *--------------------------------------*            

Positions:
   0 C      6.274730    4.533318    4.862656
   1 C      7.567119    5.330725    4.779731
   2 C     11.052407    5.231061    4.462846
   3 C      5.116442    5.281668    4.997692
   4 C      8.285735    4.361563    5.353533
   5 C      7.930644    3.455116    4.434086
   6 C     10.005737    4.489879    4.508034
   7 C      6.640152    3.162008    4.770322
   8 C     12.041217    6.180850    4.463145
   9 C      4.220653    6.613146    4.896734
  10 C      7.625917    6.738184    4.833321
  11 C      3.868716   11.542594    4.966501
  12 C      5.996421    8.104954    5.524137
  13 C     11.415293    6.792048    5.326339
  14 C      5.073051    7.388500    5.707019
  15 C      9.845627    8.358918    4.571024
  16 C      4.040120   10.184405    5.011006
  17 C      7.656935   10.241733    4.775335
  18 C      7.824475    8.788242    5.128907
  19 C      6.312542   12.498341    4.745992
  20 C      5.041381   12.134258    4.838565
  21 C      8.701647    7.859182    4.774697
  22 C      4.376271    8.969702    5.047763
  23 C      7.079111   11.370885    4.744714

Unit cell:
           periodic     x           y           z      points  spacing
  1. axis:    yes   16.000000    0.000000    0.000000    80     0.2000
  2. axis:    yes    0.000000   16.000000    0.000000    80     0.2000
  3. axis:    yes    0.000000    0.000000   10.000000    48     0.2083

Effective grid spacing dv^(1/3) = 0.2027

                     log10-error:    total        iterations:
           time      wfs    density  energy       fermi  poisson
iter:   1  10:43:03          +inf  -162.552579    3      6      
iter:   2  10:43:04         -0.87  -161.159850    3      3      
iter:   3  10:43:04         -0.91  -159.611292    32     3      
iter:   4  10:43:05         -1.01  -158.907960    4      2      
iter:   5  10:43:06         -1.06  -158.060961    32     4      
iter:   6  10:43:06         -1.30  -157.689785    4      3      
iter:   7  10:43:07         -1.49  -157.703643    4      3      
iter:   8  10:43:07         -1.67  -157.651449    3      3      
iter:   9  10:43:08         -1.83  -157.622523    3      2      
iter:  10  10:43:08         -1.92  -157.611012    3      2      
iter:  11  10:43:09         -2.01  -157.587218    4      3      
iter:  12  10:43:09         -2.32  -157.586036    3      2      
iter:  13  10:43:10         -2.41  -157.582929    3      2      
iter:  14  10:43:10         -2.51  -157.586304    3      2      
iter:  15  10:43:11         -2.65  -157.585230    3      2      
iter:  16  10:43:11         -2.82  -157.584338    3      2      
iter:  17  10:43:12         -3.17  -157.581714    2      1      
iter:  18  10:43:12         -3.26  -157.579377    2      1      
iter:  19  10:43:13         -3.39  -157.578904    2      1      
iter:  20  10:43:13         -3.51  -157.577904    2      1      
iter:  21  10:43:13         -3.69  -157.577368    2      1      
iter:  22  10:43:14         -3.90  -157.580122    2      1      
iter:  23  10:43:14         -3.96  -157.582186    2      1      
iter:  24  10:43:15         -4.02  -157.581018    2      1      

Converged after 24 iterations.

Dipole moment: (-0.513380, 0.127235, 0.058735) |e|*Ang

Energy contributions relative to reference atoms: (reference = -24663.074771)

Kinetic:       +132.817610
Potential:     -129.063079
External:        +0.000000
XC:            -164.063829
Entropy (-ST):   -0.367406
Local:           +2.911983
--------------------------
Free energy:   -157.764721
Extrapolated:  -157.581018

Fermi level: -4.93531

 Band  Eigenvalues  Occupancy
    0    -24.58255    2.00000
    1    -22.69983    2.00000
    2    -22.32203    2.00000
    3    -21.70599    2.00000
    4    -21.41993    2.00000
    5    -20.07354    2.00000
    6    -19.64097    2.00000
    7    -19.30177    2.00000
    8    -18.70633    2.00000
    9    -18.05431    2.00000
   10    -17.84805    2.00000
   11    -17.46816    2.00000
   12    -17.12364    2.00000
   13    -16.31635    2.00000
   14    -15.23919    2.00000
   15    -14.46089    2.00000
   16    -13.99933    2.00000
   17    -12.93920    2.00000
   18    -12.78051    2.00000
   19    -12.47229    2.00000
   20    -12.28806    2.00000
   21    -11.84974    2.00000
   22    -11.39094    2.00000
   23    -11.27069    2.00000
   24    -10.65771    2.00000
   25    -10.41870    2.00000
   26    -10.17461    2.00000
   27     -9.64065    2.00000
   28     -9.44298    2.00000
   29     -9.41643    2.00000
   30     -9.16151    2.00000
   31     -8.94637    2.00000
   32     -8.65885    2.00000
   33     -8.14049    2.00000
   34     -8.10489    2.00000
   35     -7.66227    2.00000
   36     -7.49381    2.00000
   37     -7.16260    2.00000
   38     -6.79704    2.00000
   39     -6.60066    2.00000
   40     -6.33785    2.00000
   41     -5.90976    1.99988
   42     -5.85476    1.99980
   43     -5.63545    1.99818
   44     -5.48477    1.99182
   45     -5.44916    1.98833
   46     -5.12763    1.74500
   47     -5.04526    1.50032
   48     -4.87151    0.69140
   49     -4.62385    0.08502
   50     -4.02897    0.00023
   51     -3.79028    0.00002
   52     -3.58745    0.00000
   53     -3.18075    0.00000
   54     -2.92077    0.00000
   55     -2.33142    0.00000
   56     -2.03825    0.00000
   57     -1.85697    0.00000
   58     -1.77164    0.00000
   59     -1.41979    0.00000
   60     -0.97856    0.00000
   61     -0.66662    0.00000
   62     -0.25691    0.00000
   63      0.08550    0.00000
   64      0.17118    0.00000
   65      0.84347    0.00000
   66      1.03878    0.00000
   67      1.42399    0.00000
   68      2.20010    0.00000
   69      2.48190    0.00000
   70      2.65576    0.00000
   71      3.12329    0.00000
   72      3.28524    0.00000
   73      3.52497    0.00000
   74      3.73044    0.00000
   75      4.46654    0.00000
   76      5.60472    0.00000
   77      6.35363    0.00000
   78      6.60194    0.00000
   79      6.78185    0.00000
   80      7.14853    0.00000
   81      7.24669    0.00000
   82      7.66984    0.00000
   83      7.77542    0.00000
   84      8.01420    0.00000
   85      8.17640    0.00000
   86      8.42361    0.00000
   87      8.57892    0.00000
   88      8.67808    0.00000
   89      8.90663    0.00000
   90      8.96660    0.00000
   91      9.04810    0.00000
   92      9.20974    0.00000
   93      9.27306    0.00000
   94      9.35114    0.00000
   95      9.84649    0.00000
   96      9.92291    0.00000
   97      9.96800    0.00000


Forces in eV/Ang:
  0 C    -4.35102    1.66947   -1.59864
  1 C    -3.03791    7.42602    0.96250
  2 C    -1.15251   -1.15813    0.19292
  3 C    -2.65834    3.70499   -0.21198
  4 C    11.36198   -0.57133   -0.00820
  5 C    -2.01678   -5.65069   -0.56614
  6 C    -1.65788    0.17757    1.74986
  7 C    -0.90814   -1.12006   -0.84553
  8 C     4.17688   -3.11010   -5.04996
  9 C     3.02839   -8.03034    0.66944
 10 C     1.24386   -1.84399   -0.25990
 11 C     0.27255   -0.26007   -0.23587
 12 C    13.36395    9.38025   -3.27844
 13 C    -4.36198    5.50749    4.50356
 14 C   -12.67876   -5.66794    0.04962
 15 C     8.54642    1.62641   -0.73900
 16 C    -0.00417    1.55324    0.11727
 17 C     1.54028   -4.78190    1.36852
 18 C    -6.19870   10.81666    0.11978
 19 C     0.26878   -0.48981   -0.07993
 20 C    -0.49334    0.19934    0.01584
 21 C    -6.58788   -7.83310    0.98402
 22 C     2.61329   -2.30482    2.13782
 23 C    -0.33727    0.66195    0.09955

System changes: positions 

Initializing position-dependent things.

Density initialized from wave functions
           .--------------------------------------.  
          /|                                      |  
         / |                                      |  
        /  |                                      |  
       /   |                                      |  
      /    |                                      |  
     /     |                                      |  
    /      |                                      |  
   /       |            C                         |  
  /        |      C  C   C                        |  
 *         |     C   C    C                       |  
 |         |      C        C  C  C                |  
 |         .---C--------C-------------------------.  
 |        /      C C   CC      C  C              /   
 |       /         C        C                   /    
 |      /             C                        /     
 |     /                                      /      
 |    /                                      /       
 |   /                                      /        
 |  /                                      /         
 | /                                      /          
 |/                                      /           
 *--------------------------------------*            

Positions:
   0 C      6.264280    4.537328    4.858816
   1 C      7.559822    5.348562    4.782043
   2 C     11.049639    5.228279    4.463309
   3 C      5.110057    5.290567    4.997183
   4 C      8.313026    4.360191    5.353513
   5 C      7.925800    3.441543    4.432726
   6 C     10.001755    4.490306    4.512237
   7 C      6.637971    3.159318    4.768291
   8 C     12.051249    6.173380    4.451015
   9 C      4.227927    6.593857    4.898342
  10 C      7.628904    6.733755    4.832697
  11 C      3.869371   11.541969    4.965934
  12 C      6.028521    8.127485    5.516262
  13 C     11.404816    6.805277    5.337156
  14 C      5.042598    7.374886    5.707138
  15 C      9.866155    8.362824    4.569249
  16 C      4.040110   10.188136    5.011287
  17 C      7.660634   10.230248    4.778623
  18 C      7.809586    8.814223    5.129194
  19 C      6.313188   12.497164    4.745800
  20 C      5.040196   12.134737    4.838603
  21 C      8.685824    7.840367    4.777061
  22 C      4.382548    8.964166    5.052898
  23 C      7.078301   11.372475    4.744953

Unit cell:
           periodic     x           y           z      points  spacing
  1. axis:    yes   16.000000    0.000000    0.000000    80     0.2000
  2. axis:    yes    0.000000   16.000000    0.000000    80     0.2000
  3. axis:    yes    0.000000    0.000000   10.000000    48     0.2083

Effective grid spacing dv^(1/3) = 0.2027

                     log10-error:    total        iterations:
           time      wfs    density  energy       fermi  poisson
iter:   1  10:43:16          +inf  -160.538436    3      5      
iter:   2  10:43:17         -1.79  -160.410657    3      2      
iter:   3  10:43:17         -1.92  -160.337773    3      2      
iter:   4  10:43:18         -2.14  -160.330752    3      2      
iter:   5  10:43:18         -2.27  -160.324362    2      2      
iter:   6  10:43:19         -2.38  -160.329554    3      2      
iter:   7  10:43:19         -2.47  -160.324050    2      2      
iter:   8  10:43:20         -2.78  -160.322146    2      2      
iter:   9  10:43:20         -2.91  -160.321571    2      2      
iter:  10  10:43:21         -3.09  -160.321353    2      2      
iter:  11  10:43:21         -3.29  -160.322058    2      1      
iter:  12  10:43:22         -3.39  -160.321138    2      1      
iter:  13  10:43:22         -3.54  -160.320431    2      1      
iter:  14  10:43:23         -3.70  -160.319597    2      1      
iter:  15  10:43:23         -3.97  -160.320496    2      1      
iter:  16  10:43:24         -4.12  -160.320999    2      1      

Converged after 16 iterations.

Dipole moment: (-0.532427, 0.125128, 0.054732) |e|*Ang

Energy contributions relative to reference atoms: (reference = -24663.074771)

Kinetic:       +113.166933
Potential:     -115.110614
External:        +0.000000
XC:            -161.041840
Entropy (-ST):   -0.350966
Local:           +2.840005
--------------------------
Free energy:   -160.496481
Extrapolated:  -160.320999

Fermi level: -4.90994

 Band  Eigenvalues  Occupancy
    0    -24.22871    2.00000
    1    -22.41313    2.00000
    2    -22.00719    2.00000
    3    -21.50129    2.00000
    4    -21.39514    2.00000
    5    -20.03907    2.00000
    6    -19.63510    2.00000
    7    -19.27276    2.00000
    8    -18.65713    2.00000
    9    -18.07465    2.00000
   10    -17.77123    2.00000
   11    -17.43201    2.00000
   12    -16.92634    2.00000
   13    -16.32220    2.00000
   14    -15.26032    2.00000
   15    -14.40549    2.00000
   16    -13.99477    2.00000
   17    -12.89002    2.00000
   18    -12.71795    2.00000
   19    -12.44273    2.00000
   20    -12.28571    2.00000
   21    -11.72204    2.00000
   22    -11.30548    2.00000
   23    -11.15291    2.00000
   24    -10.73096    2.00000
   25    -10.39152    2.00000
   26    -10.03175    2.00000
   27     -9.59849    2.00000
   28     -9.37527    2.00000
   29     -9.36816    2.00000
   30     -9.09279    2.00000
   31     -8.89971    2.00000
   32     -8.66078    2.00000
   33     -8.11144    2.00000
   34     -8.07346    2.00000
   35     -7.68422    2.00000
   36     -7.54266    2.00000
   37     -7.19023    2.00000
   38     -6.78578    2.00000
   39     -6.60527    2.00000
   40     -6.35076    2.00000
   41     -5.96318    1.99995
   42     -5.84083    1.99982
   43     -5.66286    1.99893
   44     -5.50378    1.99474
   45     -5.45273    1.99125
   46     -5.10888    1.75938
   47     -5.02602    1.52295
   48     -4.84013    0.66448
   49     -4.57571    0.06830
   50     -3.98255    0.00019
   51     -3.73218    0.00002
   52     -3.55714    0.00000
   53     -3.05517    0.00000
   54     -2.90634    0.00000
   55     -2.28689    0.00000
   56     -2.07048    0.00000
   57     -1.84891    0.00000
   58     -1.75002    0.00000
   59     -1.42349    0.00000
   60     -1.08210    0.00000
   61     -0.65203    0.00000
   62     -0.40954    0.00000
   63      0.04027    0.00000
   64      0.15293    0.00000
   65      0.78790    0.00000
   66      1.13339    0.00000
   67      1.37029    0.00000
   68      2.19122    0.00000
   69      2.34131    0.00000
   70      2.55152    0.00000
   71      3.27095    0.00000
   72      3.40825    0.00000
   73      3.53629    0.00000
   74      3.78615    0.00000
   75      4.67916    0.00000
   76      5.62485    0.00000
   77      6.32197    0.00000
   78      6.57019    0.00000
   79      6.73322    0.00000
   80      7.17217    0.00000
   81      7.32269    0.00000
   82      7.70242    0.00000
   83      7.82493    0.00000
   84      8.09506    0.00000
   85      8.12526    0.00000
   86      8.40044    0.00000
   87      8.47747    0.00000
   88      8.73441    0.00000
   89      8.86285    0.00000
   90      8.94452    0.00000
   91      9.01673    0.00000
   92      9.20108    0.00000
   93      9.30554    0.00000
   94      9.36599    0.00000
   95      9.87465    0.00000
   96      9.91654    0.00000
   97      9.98881    0.00000


Forces in eV/Ang:
  0 C    -3.85475    1.35759   -1.54343
  1 C    -2.48957    5.41739    1.52437
  2 C    -0.94650   -0.85934    0.26645
  3 C    -2.59841    3.54481   -0.34452
  4 C    10.35521   -0.04896   -1.45391
  5 C    -2.07425   -4.98993   -0.03489
  6 C    -1.79878    0.23428    1.98098
  7 C    -0.93706   -0.70531   -0.79287
  8 C     2.53863   -1.73261   -3.02098
  9 C     2.91946   -8.29238    0.51079
 10 C     1.38145   -0.94833   -0.17222
 11 C     0.26535   -0.22213   -0.24535
 12 C     7.69635    4.82309   -2.32795
 13 C    -2.92215    3.91127    2.30725
 14 C    -6.99702   -0.69235   -0.74399
 15 C     5.80315    0.33572   -0.12498
 16 C     0.16365    0.82722    0.14939
 17 C     1.07636   -3.46384    1.22370
 18 C    -5.01606    8.90539   -0.18019
 19 C     0.32978   -0.57893   -0.12971
 20 C    -0.46509    0.24926    0.05162
 21 C    -4.89914   -5.47044    0.79731
 22 C     2.53790   -1.77033    2.15120
 23 C    -0.04722    0.07497    0.12109

System changes: positions 

Initializing position-dependent things.

Density initialized from wave functions
           .--------------------------------------.  
          /|                                      |  
         / |                                      |  
        /  |                                      |  
       /   |                                      |  
      /    |                                      |  
     /     |                                      |  
    /      |                                      |  
   /       |            C                         |  
  /        |      C  C   C                        |  
 *         |     C   C    C                       |  
 |         |      C        C  C  C                |  
 |         .---C--------C-------------------------.  
 |        /      C C   CC      C  C              /   
 |       /         C        C                   /    
 |      /             C                        /     
 |     /                                      /      
 |    /                                      /       
 |   /                                      /        
 |  /                                      /         
 | /                                      /          
 |/                                      /           
 *--------------------------------------*            

Positions:
   0 C      6.250394    4.541740    4.852755
   1 C      7.551650    5.363498    4.790181
   2 C     11.046523    5.225840    4.464646
   3 C      5.099738    5.304371    4.995324
   4 C      8.351467    4.361816    5.342575
   5 C      7.917195    3.423633    4.434440
   6 C      9.993975    4.491453    4.521071
   7 C      6.634073    3.157909    4.765262
   8 C     12.055815    6.171169    4.445859
   9 C      4.239375    6.559344    4.899858
  10 C      7.634982    6.733039    4.832306
  11 C      3.870421   11.541202    4.964907
  12 C      6.039916    8.131116    5.510149
  13 C     11.398004    6.815551    5.338836
  14 C      5.034085    7.389453    5.701353
  15 C      9.880090    8.359678    4.570886
  16 C      4.041359   10.188952    5.012005
  17 C      7.663376   10.220815    4.783075
  18 C      7.793392    8.843632    5.127417
  19 C      6.314737   12.494507    4.745100
  20 C      5.038410   12.135921    4.838937
  21 C      8.671870    7.826452    4.779639
  22 C      4.392567    8.958859    5.061660
  23 C      7.079122   11.370729    4.745519

Unit cell:
           periodic     x           y           z      points  spacing
  1. axis:    yes   16.000000    0.000000    0.000000    80     0.2000
  2. axis:    yes    0.000000   16.000000    0.000000    80     0.2000
  3. axis:    yes    0.000000    0.000000   10.000000    48     0.2083

Effective grid spacing dv^(1/3) = 0.2027

                     log10-error:    total        iterations:
           time      wfs    density  energy       fermi  poisson
iter:   1  10:43:25          +inf  -162.480028    3      5      
iter:   2  10:43:26         -1.84  -162.373926    3      2      
iter:   3  10:43:26         -2.00  -162.314320    3      2      
iter:   4  10:43:27         -2.24  -162.308408    3      2      
iter:   5  10:43:27         -2.37  -162.303088    3      2      
iter:   6  10:43:28         -2.48  -162.307578    3      2      
iter:   7  10:43:28         -2.57  -162.303386    3      2      
iter:   8  10:43:29         -2.83  -162.303093    2      2      
iter:   9  10:43:29         -2.94  -162.302424    2      2      
iter:  10  10:43:30         -3.19  -162.301926    2      1      
iter:  11  10:43:30         -3.36  -162.302457    2      1      
iter:  12  10:43:31         -3.49  -162.303018    2      1      
iter:  13  10:43:31         -3.63  -162.302882    2      1      
iter:  14  10:43:32         -3.76  -162.302765    2      1      
iter:  15  10:43:32         -4.03  -162.302799    2      1      

Converged after 15 iterations.

Dipole moment: (-0.533027, 0.113695, 0.054156) |e|*Ang

Energy contributions relative to reference atoms: (reference = -24663.074771)

Kinetic:       +103.266403
Potential:     -108.280421
External:        +0.000000
XC:            -159.962613
Entropy (-ST):   -0.333837
Local:           +2.840751
--------------------------
Free energy:   -162.469718
Extrapolated:  -162.302799

Fermi level: -4.89294

 Band  Eigenvalues  Occupancy
    0    -23.86923    2.00000
    1    -22.31001    2.00000
    2    -21.81204    2.00000
    3    -21.38774    2.00000
    4    -21.36452    2.00000
    5    -20.01309    2.00000
    6    -19.65936    2.00000
    7    -19.25639    2.00000
    8    -18.63425    2.00000
    9    -18.10695    2.00000
   10    -17.72637    2.00000
   11    -17.39523    2.00000
   12    -16.79972    2.00000
   13    -16.31503    2.00000
   14    -15.28659    2.00000
   15    -14.33845    2.00000
   16    -13.99405    2.00000
   17    -12.90979    2.00000
   18    -12.70835    2.00000
   19    -12.44133    2.00000
   20    -12.28707    2.00000
   21    -11.61191    2.00000
   22    -11.33295    2.00000
   23    -11.06617    2.00000
   24    -10.82778    2.00000
   25    -10.36399    2.00000
   26     -9.98878    2.00000
   27     -9.57110    2.00000
   28     -9.35068    2.00000
   29     -9.31007    2.00000
   30     -9.07083    2.00000
   31     -8.92363    2.00000
   32     -8.69688    2.00000
   33     -8.11921    2.00000
   34     -8.03379    2.00000
   35     -7.70168    2.00000
   36     -7.57178    2.00000
   37     -7.19551    2.00000
   38     -6.79875    2.00000
   39     -6.61207    2.00000
   40     -6.36926    2.00000
   41     -5.99389    1.99997
   42     -5.88232    1.99990
   43     -5.67739    1.99922
   44     -5.51451    1.99601
   45     -5.46795    1.99366
   46     -5.09454    1.76493
   47     -5.02249    1.57016
   48     -4.81306    0.62057
   49     -4.53724    0.05547
   50     -3.91323    0.00011
   51     -3.66763    0.00001
   52     -3.46660    0.00000
   53     -2.98272    0.00000
   54     -2.79557    0.00000
   55     -2.26478    0.00000
   56     -2.07024    0.00000
   57     -1.85120    0.00000
   58     -1.68161    0.00000
   59     -1.38134    0.00000
   60     -1.03146    0.00000
   61     -0.65013    0.00000
   62     -0.38068    0.00000
   63      0.05931    0.00000
   64      0.23585    0.00000
   65      0.79186    0.00000
   66      1.28811    0.00000
   67      1.39117    0.00000
   68      2.18814    0.00000
   69      2.30010    0.00000
   70      2.56423    0.00000
   71      3.47815    0.00000
   72      3.58254    0.00000
   73      3.69102    0.00000
   74      3.96640    0.00000
   75      4.89385    0.00000
   76      5.64662    0.00000
   77      6.30566    0.00000
   78      6.49507    0.00000
   79      6.70164    0.00000
   80      7.04932    0.00000
   81      7.37412    0.00000
   82      7.69983    0.00000
   83      7.85482    0.00000
   84      8.09164    0.00000
   85      8.21218    0.00000
   86      8.34982    0.00000
   87      8.49600    0.00000
   88      8.75902    0.00000
   89      8.78464    0.00000
   90      8.97052    0.00000
   91      9.02165    0.00000
   92      9.21991    0.00000
   93      9.32615    0.00000
   94      9.39212    0.00000
   95      9.88016    0.00000
   96      9.93306    0.00000
   97     10.03540    0.00000


Forces in eV/Ang:
  0 C    -3.13574    1.01334   -1.41789
  1 C    -2.11804    3.73989    1.87341
  2 C    -1.00095   -0.73940    0.31571
  3 C    -2.62432    3.44774   -0.49145
  4 C     9.53393    0.22997   -2.81290
  5 C    -2.06777   -4.30712    0.55477
  6 C    -1.79221    0.44985    2.21554
  7 C    -1.05815   -0.21911   -0.73786
  8 C     1.83542   -1.33351   -2.26613
  9 C     3.30803   -7.89107    0.86690
 10 C     1.35962   -0.39478   -0.07456
 11 C     0.23313   -0.25325   -0.26587
 12 C     7.11124    4.23400   -2.19863
 13 C    -2.40905    3.31253    1.44909
 14 C    -6.93552   -0.05323   -1.20251
 15 C     4.23445   -0.44768    0.21257
 16 C     0.35568    0.20827    0.20577
 17 C     0.77737   -2.33169    1.00826
 18 C    -3.90723    6.80958   -0.36365
 19 C     0.39832   -0.72648   -0.16240
 20 C    -0.35828    0.24736    0.07907
 21 C    -4.06700   -3.61128    0.81697
 22 C     2.38978   -1.42606    2.20638
 23 C    -0.04954    0.00906    0.13251

System changes: positions 

Initializing position-dependent things.

Density initialized from wave functions
           .--------------------------------------.  
          /|                                      |  
         / |                                      |  
        /  |                                      |  
       /   |                                      |  
      /    |                                      |  
     /     |                                      |  
    /      |                                      |  
   /       |                                      |  
  /        |      C  C  CC                        |  
 *         |     C   C    C                       |  
 |         |      C        C  C  C                |  
 |         .---C--------C-------------------------.  
 |        /      C C   CC      C  C              /   
 |       /         C        C                   /    
 |      /             C                        /     
 |     /                                      /      
 |    /                                      /       
 |   /                                      /        
 |  /                                      /         
 | /                                      /          
 |/                                      /           
 *--------------------------------------*            

Positions:
   0 C      6.240662    4.544190    4.847351
   1 C      7.545224    5.369301    4.800373
   2 C     11.042660    5.223818    4.466285
   3 C      5.088848    5.318087    4.992516
   4 C      8.386396    4.364845    5.323319
   5 C      7.908452    3.409285    4.439793
   6 C      9.986188    4.494120    4.531570
   7 C      6.629221    3.159445    4.762474
   8 C     12.057509    6.170033    4.443436
   9 C      4.254112    6.527032    4.904193
  10 C      7.640909    6.735169    4.832497
  11 C      3.871279   11.540138    4.963713
  12 C      6.054597    8.136366    5.503584
  13 C     11.392873    6.823826    5.337145
  14 C      5.018572    7.402776    5.693085
  15 C      9.886576    8.352410    4.574234
  16 C      4.043821   10.186240    5.013110
  17 C      7.664625   10.217614    4.786287
  18 C      7.783229    8.861193    5.124640
  19 C      6.316751   12.490818    4.744207
  20 C      5.037307   12.137064    4.839434
  21 C      8.661375    7.822565    4.782673
  22 C      4.401911    8.955205    5.071067
  23 C      7.079584   11.369198    4.746157

Unit cell:
           periodic     x           y           z      points  spacing
  1. axis:    yes   16.000000    0.000000    0.000000    80     0.2000
  2. axis:    yes    0.000000   16.000000    0.000000    80     0.2000
  3. axis:    yes    0.000000    0.000000   10.000000    48     0.2083

Effective grid spacing dv^(1/3) = 0.2027

                     log10-error:    total        iterations:
           time      wfs    density  energy       fermi  poisson
iter:   1  10:43:34          +inf  -164.037762    2      5      
iter:   2  10:43:34         -1.90  -163.963817    2      2      
iter:   3  10:43:35         -2.06  -163.910452    3      2      
iter:   4  10:43:35         -2.31  -163.902152    3      2      
iter:   5  10:43:36         -2.49  -163.902287    3      2      
iter:   6  10:43:36         -2.59  -163.900331    3      2      
iter:   7  10:43:37         -2.84  -163.897899    2      1      
iter:   8  10:43:37         -2.95  -163.899672    2      2      
iter:   9  10:43:38         -3.19  -163.899212    2      1      
iter:  10  10:43:38         -3.39  -163.898792    2      1      
iter:  11  10:43:39         -3.50  -163.900616    2      1      
iter:  12  10:43:39         -3.61  -163.901445    2      1      
iter:  13  10:43:40         -3.73  -163.900346    2      1      
iter:  14  10:43:40         -3.87  -163.900360    2      1      
iter:  15  10:43:41         -3.92  -163.899963    2      1      
iter:  16  10:43:41         -4.12  -163.900323    2      1      

Converged after 16 iterations.

Dipole moment: (-0.542643, 0.094779, 0.058977) |e|*Ang

Energy contributions relative to reference atoms: (reference = -24663.074771)

Kinetic:        +97.806235
Potential:     -104.628401
External:        +0.000000
XC:            -159.791826
Entropy (-ST):   -0.315801
Local:           +2.871570
--------------------------
Free energy:   -164.058223
Extrapolated:  -163.900323

Fermi level: -4.87427

 Band  Eigenvalues  Occupancy
    0    -23.64724    2.00000
    1    -22.23067    2.00000
    2    -21.71428    2.00000
    3    -21.33744    2.00000
    4    -21.30769    2.00000
    5    -19.99849    2.00000
    6    -19.67205    2.00000
    7    -19.24496    2.00000
    8    -18.61690    2.00000
    9    -18.16661    2.00000
   10    -17.70501    2.00000
   11    -17.37425    2.00000
   12    -16.74183    2.00000
   13    -16.31094    2.00000
   14    -15.30111    2.00000
   15    -14.30159    2.00000
   16    -13.98242    2.00000
   17    -12.96315    2.00000
   18    -12.72155    2.00000
   19    -12.44525    2.00000
   20    -12.31013    2.00000
   21    -11.57280    2.00000
   22    -11.39315    2.00000
   23    -11.02490    2.00000
   24    -10.88831    2.00000
   25    -10.34871    2.00000
   26     -9.96440    2.00000
   27     -9.55099    2.00000
   28     -9.34118    2.00000
   29     -9.27870    2.00000
   30     -9.11023    2.00000
   31     -8.95415    2.00000
   32     -8.72464    2.00000
   33     -8.13465    2.00000
   34     -8.00793    2.00000
   35     -7.71323    2.00000
   36     -7.59116    2.00000
   37     -7.20297    2.00000
   38     -6.80145    2.00000
   39     -6.60954    2.00000
   40     -6.39196    2.00000
   41     -6.00537    1.99998
   42     -5.93589    1.99995
   43     -5.69594    1.99946
   44     -5.51473    1.99670
   45     -5.48162    1.99540
   46     -5.08351    1.78033
   47     -5.01533    1.60771
   48     -4.78390    0.57660
   49     -4.49434    0.04379
   50     -3.85002    0.00007
   51     -3.60986    0.00001
   52     -3.38826    0.00000
   53     -2.90765    0.00000
   54     -2.69781    0.00000
   55     -2.23886    0.00000
   56     -2.07960    0.00000
   57     -1.86116    0.00000
   58     -1.61104    0.00000
   59     -1.31870    0.00000
   60     -0.95020    0.00000
   61     -0.64555    0.00000
   62     -0.28536    0.00000
   63      0.11106    0.00000
   64      0.35457    0.00000
   65      0.84547    0.00000
   66      1.39171    0.00000
   67      1.44866    0.00000
   68      2.19854    0.00000
   69      2.27339    0.00000
   70      2.61147    0.00000
   71      3.61198    0.00000
   72      3.72920    0.00000
   73      3.86152    0.00000
   74      4.28323    0.00000
   75      5.02892    0.00000
   76      5.66940    0.00000
   77      6.29944    0.00000
   78      6.46994    0.00000
   79      6.72776    0.00000
   80      6.99931    0.00000
   81      7.40410    0.00000
   82      7.74263    0.00000
   83      7.87391    0.00000
   84      8.09355    0.00000
   85      8.30038    0.00000
   86      8.37089    0.00000
   87      8.53187    0.00000
   88      8.75829    0.00000
   89      8.78728    0.00000
   90      8.99731    0.00000
   91      9.05349    0.00000
   92      9.24678    0.00000
   93      9.34830    0.00000
   94      9.41588    0.00000
   95      9.87893    0.00000
   96      9.95871    0.00000
   97     10.06406    0.00000


Forces in eV/Ang:
  0 C    -2.70640    0.90149   -1.29218
  1 C    -1.93647    3.02845    1.98865
  2 C    -1.07425   -0.64307    0.36141
  3 C    -2.33665    3.00620   -0.55846
  4 C     9.10357    0.27560   -3.61995
  5 C    -2.01360   -3.93809    0.90288
  6 C    -1.82129    0.59806    2.38708
  7 C    -1.16973    0.05499   -0.68947
  8 C     1.46677   -1.19836   -1.89322
  9 C     3.38113   -7.39443    1.02257
 10 C     1.14202   -0.29101    0.00567
 11 C     0.23298   -0.40436   -0.27807
 12 C     6.06627    3.18175   -1.98647
 13 C    -2.20613    3.01516    1.01719
 14 C    -6.11860    1.09777   -1.58550
 15 C     3.59693   -0.80436    0.36610
 16 C     0.37735    0.12244    0.21981
 17 C     0.67263   -1.70960    0.85277
 18 C    -3.48257    5.63220   -0.36365
 19 C     0.32673   -0.72537   -0.18402
 20 C    -0.25556    0.23805    0.09782
 21 C    -3.50899   -2.77775    0.79226
 22 C     2.28041   -1.44375    2.25633
 23 C    -0.05913    0.04508    0.13332

System changes: positions 

Initializing position-dependent things.

Density initialized from wave functions
           .--------------------------------------.  
          /|                                      |  
         / |                                      |  
        /  |                                      |  
       /   |                                      |  
      /    |                                      |  
     /     |                                      |  
    /      |                                      |  
   /       |                                      |  
  /        |      C  C  CC                        |  
 *         |     C   C   CC                       |  
 |         |      C        C  C  C                |  
 |         .---C--------C-------------------------.  
 |        /      C C   CC      C  C              /   
 |       /         C        C                   /    
 |      /             C                        /     
 |     /                                      /      
 |    /                                      /       
 |   /                                      /        
 |  /                                      /         
 | /                                      /          
 |/                                      /           
 *--------------------------------------*            

Positions:
   0 C      6.233146    4.546547    4.842882
   1 C      7.539281    5.373733    4.810240
   2 C     11.038057    5.222164    4.468151
   3 C      5.080723    5.327924    4.989543
   4 C      8.419489    4.367179    5.300972
   5 C      7.900375    3.396555    4.446613
   6 C      9.978381    4.497654    4.542820
   7 C      6.623665    3.162137    4.760010
   8 C     12.058850    6.167941    4.440902
   9 C      4.268724    6.499256    4.909414
  10 C      7.644655    6.736247    4.833148
  11 C      3.872190   11.537722    4.962471
  12 C      6.066669    8.137883    5.497794
  13 C     11.387186    6.832073    5.335449
  14 C      5.004531    7.419941    5.683115
  15 C      9.892950    8.344794    4.577667
  16 C      4.045916   10.184688    5.014192
  17 C      7.665943   10.216668    4.788580
  18 C      7.773798    8.873616    5.122559
  19 C      6.317891   12.487554    4.743241
  20 C      5.036934   12.138055    4.840007
  21 C      8.652799    7.820430    4.785604
  22 C      4.410478    8.950236    5.080687
  23 C      7.079645   11.368769    4.746749

Unit cell:
           periodic     x           y           z      points  spacing
  1. axis:    yes   16.000000    0.000000    0.000000    80     0.2000
  2. axis:    yes    0.000000   16.000000    0.000000    80     0.2000
  3. axis:    yes    0.000000    0.000000   10.000000    48     0.2083

Effective grid spacing dv^(1/3) = 0.2027

                     log10-error:    total        iterations:
           time      wfs    density  energy       fermi  poisson
iter:   1  10:43:43          +inf  -165.393947    3      5      
iter:   2  10:43:43         -1.90  -165.323655    2      2      
iter:   3  10:43:44         -2.09  -165.280657    3      2      
iter:   4  10:43:44         -2.33  -165.269281    3      2      
iter:   5  10:43:45         -2.51  -165.269167    3      2      
iter:   6  10:43:45         -2.65  -165.267392    3      2      
iter:   7  10:43:46         -2.80  -165.267949    2      2      
iter:   8  10:43:46         -3.00  -165.265385    2      1      
iter:   9  10:43:47         -3.10  -165.266896    2      2      
iter:  10  10:43:47         -3.32  -165.266863    2      1      
iter:  11  10:43:47         -3.48  -165.266466    2      1      
iter:  12  10:43:48         -3.60  -165.268491    2      1      
iter:  13  10:43:48         -3.75  -165.268658    2      1      
iter:  14  10:43:49         -3.85  -165.267797    2      1      
iter:  15  10:43:49         -3.94  -165.267761    2      1      
iter:  16  10:43:50         -4.01  -165.267686    1      1      

Converged after 16 iterations.

Dipole moment: (-0.553203, 0.081139, 0.066706) |e|*Ang

Energy contributions relative to reference atoms: (reference = -24663.074771)

Kinetic:        +94.369347
Potential:     -102.436712
External:        +0.000000
XC:            -159.925760
Entropy (-ST):   -0.297564
Local:           +2.874221
--------------------------
Free energy:   -165.416468
Extrapolated:  -165.267686

Fermi level: -4.85555

 Band  Eigenvalues  Occupancy
    0    -23.47167    2.00000
    1    -22.18772    2.00000
    2    -21.63917    2.00000
    3    -21.31953    2.00000
    4    -21.23642    2.00000
    5    -19.99538    2.00000
    6    -19.69501    2.00000
    7    -19.23621    2.00000
    8    -18.59210    2.00000
    9    -18.22606    2.00000
   10    -17.68200    2.00000
   11    -17.36066    2.00000
   12    -16.69372    2.00000
   13    -16.30362    2.00000
   14    -15.31482    2.00000
   15    -14.28297    2.00000
   16    -13.97578    2.00000
   17    -13.03743    2.00000
   18    -12.74280    2.00000
   19    -12.45434    2.00000
   20    -12.32863    2.00000
   21    -11.54555    2.00000
   22    -11.46440    2.00000
   23    -11.01588    2.00000
   24    -10.91842    2.00000
   25    -10.32917    2.00000
   26     -9.95353    2.00000
   27     -9.54044    2.00000
   28     -9.36751    2.00000
   29     -9.26163    2.00000
   30     -9.19389    2.00000
   31     -8.94606    2.00000
   32     -8.73745    2.00000
   33     -8.14894    2.00000
   34     -7.98716    2.00000
   35     -7.72548    2.00000
   36     -7.60716    2.00000
   37     -7.20886    2.00000
   38     -6.80037    2.00000
   39     -6.60944    2.00000
   40     -6.40874    2.00000
   41     -6.01544    1.99998
   42     -5.98555    1.99998
   43     -5.71357    1.99962
   44     -5.51907    1.99738
   45     -5.48042    1.99614
   46     -5.07872    1.80613
   47     -5.00463    1.63240
   48     -4.75472    0.53463
   49     -4.44883    0.03368
   50     -3.79333    0.00005
   51     -3.55497    0.00000
   52     -3.31081    0.00000
   53     -2.84609    0.00000
   54     -2.60820    0.00000
   55     -2.22283    0.00000
   56     -2.08257    0.00000
   57     -1.87508    0.00000
   58     -1.54498    0.00000
   59     -1.25852    0.00000
   60     -0.86176    0.00000
   61     -0.61787    0.00000
   62     -0.15988    0.00000
   63      0.18008    0.00000
   64      0.48412    0.00000
   65      0.91542    0.00000
   66      1.44423    0.00000
   67      1.53783    0.00000
   68      2.18478    0.00000
   69      2.26346    0.00000
   70      2.66312    0.00000
   71      3.66713    0.00000
   72      3.93073    0.00000
   73      4.01359    0.00000
   74      4.58712    0.00000
   75      5.12691    0.00000
   76      5.68715    0.00000
   77      6.28461    0.00000
   78      6.46915    0.00000
   79      6.76855    0.00000
   80      6.96635    0.00000
   81      7.43905    0.00000
   82      7.77490    0.00000
   83      7.89555    0.00000
   84      8.09108    0.00000
   85      8.30848    0.00000
   86      8.48553    0.00000
   87      8.57193    0.00000
   88      8.75611    0.00000
   89      8.81157    0.00000
   90      9.02683    0.00000
   91      9.08937    0.00000
   92      9.27185    0.00000
   93      9.37724    0.00000
   94      9.43593    0.00000
   95      9.87373    0.00000
   96      9.97795    0.00000
   97     10.09033    0.00000


Forces in eV/Ang:
  0 C    -2.32534    0.81520   -1.16759
  1 C    -1.72193    2.47847    2.00295
  2 C    -1.11310   -0.54496    0.40181
  3 C    -2.02661    2.49662   -0.60528
  4 C     8.64299    0.29424   -4.17948
  5 C    -1.88671   -3.64792    1.10933
  6 C    -1.85383    0.72524    2.50321
  7 C    -1.23047    0.22862   -0.64327
  8 C     1.12045   -1.02751   -1.51338
  9 C     3.27864   -6.69868    1.10377
 10 C     0.93403   -0.19857    0.08269
 11 C     0.25517   -0.46512   -0.29329
 12 C     5.64058    2.57588   -1.88690
 13 C    -1.98649    2.70096    0.56959
 14 C    -5.77560    1.79489   -1.87336
 15 C     3.11475   -1.08112    0.50657
 16 C     0.44831   -0.16527    0.25288
 17 C     0.58397   -1.23282    0.73638
 18 C    -3.20432    4.74843   -0.32835
 19 C     0.24989   -0.66501   -0.19607
 20 C    -0.21050    0.22005    0.11151
 21 C    -3.01237   -2.15704    0.76243
 22 C     2.10288   -1.33764    2.29693
 23 C    -0.02607    0.02261    0.13514

System changes: positions 

Initializing position-dependent things.

Density initialized from wave functions
           .--------------------------------------.  
          /|                                      |  
         / |                                      |  
        /  |                                      |  
       /   |                                      |  
      /    |                                      |  
     /     |                                      |  
    /      |                                      |  
   /       |                                      |  
  /        |      C  C  CC                        |  
 *         |     C   C   CC                       |  
 |         |      C        C  C  C                |  
 |         .---C--------C-------------------------.  
 |        /      C C   CC      C  C              /   
 |       /         C        C                   /    
 |      /             C                        /     
 |     /                                      /      
 |    /                                      /       
 |   /                                      /        
 |  /                                      /         
 | /                                      /          
 |/                                      /           
 *--------------------------------------*            

Positions:
   0 C      6.227151    4.548924    4.839081
   1 C      7.534254    5.377361    4.819538
   2 C     11.033122    5.220969    4.470273
   3 C      5.074869    5.334060    4.986426
   4 C      8.451207    4.369090    5.276676
   5 C      7.893285    3.384411    4.453867
   6 C      9.970158    4.501907    4.554720
   7 C      6.617801    3.165192    4.757745
   8 C     12.059115    6.166189    4.439538
   9 C      4.281978    6.476281    4.914796
  10 C      7.646886    6.736990    4.834245
  11 C      3.873400   11.535041    4.961101
  12 C      6.080256    8.138382    5.491809
  13 C     11.381905    6.839415    5.332122
  14 C      4.989346    7.439068    5.671800
  15 C      9.899211    8.336544    4.581576
  16 C      4.048436   10.181398    5.015524
  17 C      7.667210   10.217053    4.790467
  18 C      7.764019    8.883709    5.121142
  19 C      6.318338   12.485058    4.742243
  20 C      5.036598   12.138893    4.840639
  21 C      8.645989    7.819200    4.788408
  22 C      4.417922    8.945651    5.090765
  23 C      7.079973   11.368300    4.747351

Unit cell:
           periodic     x           y           z      points  spacing
  1. axis:    yes   16.000000    0.000000    0.000000    80     0.2000
  2. axis:    yes    0.000000   16.000000    0.000000    80     0.2000
  3. axis:    yes    0.000000    0.000000   10.000000    48     0.2083

Effective grid spacing dv^(1/3) = 0.2027

                     log10-error:    total        iterations:
           time      wfs    density  energy       fermi  poisson
iter:   1  10:43:51          +inf  -166.610215    3      5      
iter:   2  10:43:52         -1.92  -166.547749    3      2      
iter:   3  10:43:52         -2.11  -166.513735    2      2      
iter:   4  10:43:53         -2.34  -166.501700    3      2      
iter:   5  10:43:53         -2.53  -166.500762    3      2      
iter:   6  10:43:54         -2.69  -166.500574    3      2      
iter:   7  10:43:54         -2.82  -166.499898    3      2      
iter:   8  10:43:55         -3.04  -166.497835    2      1      
iter:   9  10:43:55         -3.14  -166.499291    2      2      
iter:  10  10:43:56         -3.39  -166.499354    2      1      
iter:  11  10:43:56         -3.55  -166.498861    2      1      
iter:  12  10:43:57         -3.67  -166.500672    2      1      
iter:  13  10:43:57         -3.79  -166.501044    2      1      
iter:  14  10:43:58         -3.94  -166.499974    2      1      
iter:  15  10:43:58         -4.10  -166.500108    2      1      

Converged after 15 iterations.

Dipole moment: (-0.558133, 0.063653, 0.074727) |e|*Ang

Energy contributions relative to reference atoms: (reference = -24663.074771)

Kinetic:        +92.002080
Potential:     -101.022973
External:        +0.000000
XC:            -160.216108
Entropy (-ST):   -0.281470
Local:           +2.877629
--------------------------
Free energy:   -166.640843
Extrapolated:  -166.500108

Fermi level: -4.84012

 Band  Eigenvalues  Occupancy
    0    -23.32376    2.00000
    1    -22.14786    2.00000
    2    -21.57111    2.00000
    3    -21.29809    2.00000
    4    -21.19065    2.00000
    5    -19.99235    2.00000
    6    -19.71418    2.00000
    7    -19.22852    2.00000
    8    -18.56918    2.00000
    9    -18.28431    2.00000
   10    -17.66706    2.00000
   11    -17.35505    2.00000
   12    -16.65154    2.00000
   13    -16.29927    2.00000
   14    -15.32898    2.00000
   15    -14.26689    2.00000
   16    -13.97002    2.00000
   17    -13.12217    2.00000
   18    -12.76913    2.00000
   19    -12.45797    2.00000
   20    -12.34852    2.00000
   21    -11.55268    2.00000
   22    -11.51173    2.00000
   23    -11.02453    2.00000
   24    -10.93385    2.00000
   25    -10.31296    2.00000
   26     -9.94386    2.00000
   27     -9.53840    2.00000
   28     -9.45892    2.00000
   29     -9.26676    2.00000
   30     -9.21205    2.00000
   31     -8.93376    2.00000
   32     -8.75579    2.00000
   33     -8.16210    2.00000
   34     -7.96696    2.00000
   35     -7.73847    2.00000
   36     -7.61897    2.00000
   37     -7.21485    2.00000
   38     -6.80299    2.00000
   39     -6.61216    2.00000
   40     -6.41855    2.00000
   41     -6.06782    1.99999
   42     -5.98934    1.99998
   43     -5.73672    1.99974
   44     -5.53390    1.99806
   45     -5.46195    1.99602
   46     -5.08132    1.83547
   47     -4.99287    1.64329
   48     -4.73096    0.50265
   49     -4.40216    0.02475
   50     -3.74843    0.00004
   51     -3.50150    0.00000
   52     -3.24448    0.00000
   53     -2.79269    0.00000
   54     -2.53844    0.00000
   55     -2.20959    0.00000
   56     -2.08407    0.00000
   57     -1.88578    0.00000
   58     -1.48602    0.00000
   59     -1.20092    0.00000
   60     -0.78287    0.00000
   61     -0.55510    0.00000
   62     -0.03213    0.00000
   63      0.29186    0.00000
   64      0.61813    0.00000
   65      0.99668    0.00000
   66      1.48299    0.00000
   67      1.63441    0.00000
   68      2.16305    0.00000
   69      2.28153    0.00000
   70      2.72565    0.00000
   71      3.71543    0.00000
   72      4.01438    0.00000
   73      4.29538    0.00000
   74      4.83046    0.00000
   75      5.20938    0.00000
   76      5.70645    0.00000
   77      6.26796    0.00000
   78      6.48826    0.00000
   79      6.80809    0.00000
   80      6.95348    0.00000
   81      7.47031    0.00000
   82      7.79598    0.00000
   83      7.91597    0.00000
   84      8.08492    0.00000
   85      8.32127    0.00000
   86      8.59504    0.00000
   87      8.61385    0.00000
   88      8.77514    0.00000
   89      8.83682    0.00000
   90      9.05688    0.00000
   91      9.12585    0.00000
   92      9.29418    0.00000
   93      9.40705    0.00000
   94      9.45258    0.00000
   95      9.87008    0.00000
   96      9.98826    0.00000
   97     10.11105    0.00000


Forces in eV/Ang:
  0 C    -1.94225    0.72827   -1.02018
  1 C    -1.51943    2.01329    1.99550
  2 C    -1.16280   -0.46759    0.43605
  3 C    -1.68609    1.94620   -0.60432
  4 C     8.06252    0.28322   -4.54426
  5 C    -1.75757   -3.39397    1.26164
  6 C    -1.80687    0.81002    2.52609
  7 C    -1.22885    0.35508   -0.59466
  8 C     0.89136   -0.94585   -1.26965
  9 C     3.05673   -5.87803    1.19022
 10 C     0.74131   -0.11204    0.16889
 11 C     0.26534   -0.58480   -0.29968
 12 C     5.28361    1.93405   -1.80924
 13 C    -1.87023    2.51335    0.27784
 14 C    -5.33977    2.43457   -2.12335
 15 C     2.70610   -1.29272    0.59784
 16 C     0.45099   -0.24870    0.27146
 17 C     0.52744   -0.85814    0.64312
 18 C    -3.00864    3.93094   -0.30225
 19 C     0.20703   -0.61638   -0.20608
 20 C    -0.16034    0.20228    0.11963
 21 C    -2.62413   -1.63824    0.76388
 22 C     1.90177   -1.33884    2.28733
 23 C    -0.02957    0.06696    0.13205

System changes: positions 

Initializing position-dependent things.

Density initialized from wave functions
           .--------------------------------------.  
          /|                                      |  
         / |                                      |  
        /  |                                      |  
       /   |                                      |  
      /    |                                      |  
     /     |                                      |  
    /      |                                      |  
   /       |                                      |  
  /        |      C  C  CC                        |  
 *         |     C   C   CC                       |  
 |         |      C        C  C  C                |  
 |         .----C-------C-------------------------.  
 |        /      C C   CC      C  C              /   
 |       /         C        C                   /    
 |      /             C                        /     
 |     /                                      /      
 |    /                                      /       
 |   /                                      /        
 |  /                                      /         
 | /                                      /          
 |/                                      /           
 *--------------------------------------*            

Positions:
   0 C      6.222482    4.551260    4.835946
   1 C      7.529778    5.380560    4.828849
   2 C     11.027493    5.219925    4.472685
   3 C      5.070915    5.336941    4.983482
   4 C      8.481734    4.370584    5.250870
   5 C      7.886633    3.372027    4.461596
   6 C      9.962033    4.506617    4.566886
   7 C      6.612004    3.168443    4.755575
   8 C     12.059405    6.163875    4.438000
   9 C      4.293664    6.457598    4.920837
  10 C      7.648156    6.737751    4.835933
  11 C      3.874772   11.531288    4.959640
  12 C      6.095927    8.137004    5.485210
  13 C     11.375814    6.847484    5.328489
  14 C      4.973902    7.460940    5.658886
  15 C      9.905633    8.327587    4.585738
  16 C      4.050761   10.178506    5.016998
  17 C      7.668701   10.218026    4.792273
  18 C      7.753063    8.892052    5.119981
  19 C      6.318662   12.482845    4.741167
  20 C      5.036390   12.139657    4.841307
  21 C      8.639531    7.818539    4.791622
  22 C      4.424513    8.940076    5.101241
  23 C      7.080137   11.368476    4.747945

Unit cell:
           periodic     x           y           z      points  spacing
  1. axis:    yes   16.000000    0.000000    0.000000    80     0.2000
  2. axis:    yes    0.000000   16.000000    0.000000    80     0.2000
  3. axis:    yes    0.000000    0.000000   10.000000    48     0.2083

Effective grid spacing dv^(1/3) = 0.2027

                     log10-error:    total        iterations:
           time      wfs    density  energy       fermi  poisson
iter:   1  10:44:00          +inf  -167.750326    3      5      
iter:   2  10:44:00         -1.94  -167.692195    3      2      
iter:   3  10:44:01         -2.13  -167.661196    2      2      
iter:   4  10:44:01         -2.36  -167.650825    2      2      
iter:   5  10:44:02         -2.55  -167.649584    2      2      
iter:   6  10:44:02         -2.70  -167.649970    3      2      
iter:   7  10:44:03         -2.84  -167.648904    3      2      
iter:   8  10:44:03         -3.08  -167.645699    2      1      
iter:   9  10:44:04         -3.25  -167.646528    2      1      
iter:  10  10:44:04         -3.41  -167.648710    2      1      
iter:  11  10:44:05         -3.54  -167.648377    2      1      
iter:  12  10:44:05         -3.72  -167.649411    2      1      
iter:  13  10:44:06         -3.81  -167.649530    2      1      
iter:  14  10:44:06         -3.93  -167.648532    2      1      
iter:  15  10:44:07         -4.09  -167.648955    2      1      

Converged after 15 iterations.

Dipole moment: (-0.561244, 0.047791, 0.083423) |e|*Ang

Energy contributions relative to reference atoms: (reference = -24663.074771)

Kinetic:        +89.955560
Potential:      -99.821167
External:        +0.000000
XC:            -160.538242
Entropy (-ST):   -0.266173
Local:           +2.887980
--------------------------
Free energy:   -167.782042
Extrapolated:  -167.648955

Fermi level: -4.82516

 Band  Eigenvalues  Occupancy
    0    -23.19314    2.00000
    1    -22.11253    2.00000
    2    -21.50563    2.00000
    3    -21.27988    2.00000
    4    -21.14543    2.00000
    5    -19.99049    2.00000
    6    -19.72670    2.00000
    7    -19.22102    2.00000
    8    -18.53966    2.00000
    9    -18.34019    2.00000
   10    -17.64896    2.00000
   11    -17.35257    2.00000
   12    -16.61157    2.00000
   13    -16.29448    2.00000
   14    -15.34422    2.00000
   15    -14.25837    2.00000
   16    -13.97107    2.00000
   17    -13.20703    2.00000
   18    -12.79864    2.00000
   19    -12.46421    2.00000
   20    -12.36937    2.00000
   21    -11.63229    2.00000
   22    -11.49692    2.00000
   23    -11.03474    2.00000
   24    -10.94772    2.00000
   25    -10.30393    2.00000
   26     -9.93479    2.00000
   27     -9.63125    2.00000
   28     -9.49954    2.00000
   29     -9.26633    2.00000
   30     -9.19599    2.00000
   31     -8.92153    2.00000
   32     -8.77420    2.00000
   33     -8.17289    2.00000
   34     -7.94510    2.00000
   35     -7.75304    2.00000
   36     -7.62575    2.00000
   37     -7.21858    2.00000
   38     -6.80767    2.00000
   39     -6.61649    2.00000
   40     -6.41941    2.00000
   41     -6.12733    2.00000
   42     -5.97730    1.99998
   43     -5.76437    1.99983
   44     -5.54933    1.99857
   45     -5.43084    1.99533
   46     -5.09065    1.86861
   47     -4.97883    1.64597
   48     -4.70827    0.47408
   49     -4.35279    0.01761
   50     -3.71130    0.00003
   51     -3.44550    0.00000
   52     -3.18899    0.00000
   53     -2.74881    0.00000
   54     -2.48851    0.00000
   55     -2.20469    0.00000
   56     -2.07740    0.00000
   57     -1.89806    0.00000
   58     -1.43227    0.00000
   59     -1.14736    0.00000
   60     -0.72000    0.00000
   61     -0.46024    0.00000
   62      0.07145    0.00000
   63      0.46071    0.00000
   64      0.74406    0.00000
   65      1.08808    0.00000
   66      1.51069    0.00000
   67      1.73292    0.00000
   68      2.13857    0.00000
   69      2.31938    0.00000
   70      2.80388    0.00000
   71      3.76277    0.00000
   72      4.08496    0.00000
   73      4.60101    0.00000
   74      5.02399    0.00000
   75      5.28648    0.00000
   76      5.72660    0.00000
   77      6.26840    0.00000
   78      6.52560    0.00000
   79      6.84381    0.00000
   80      6.95399    0.00000
   81      7.51062    0.00000
   82      7.81013    0.00000
   83      7.93827    0.00000
   84      8.06792    0.00000
   85      8.34186    0.00000
   86      8.64476    0.00000
   87      8.66897    0.00000
   88      8.82670    0.00000
   89      8.87215    0.00000
   90      9.08743    0.00000
   91      9.16814    0.00000
   92      9.32202    0.00000
   93      9.44022    0.00000
   94      9.46792    0.00000
   95      9.87003    0.00000
   96      9.99267    0.00000
   97     10.12894    0.00000


Forces in eV/Ang:
  0 C    -1.55661    0.63167   -0.86931
  1 C    -1.29262    1.60524    1.95288
  2 C    -1.12827   -0.35081    0.46185
  3 C    -1.38108    1.47522   -0.57552
  4 C     7.36490    0.24767   -4.76226
  5 C    -1.57325   -3.12885    1.34534
  6 C    -1.71635    0.88660    2.50401
  7 C    -1.20624    0.42021   -0.54304
  8 C     0.62198   -0.83126   -0.98803
  9 C     2.78776   -5.00676    1.25210
 10 C     0.53309   -0.03262    0.26084
 11 C     0.28663   -0.64235   -0.30145
 12 C     5.04925    1.32399   -1.76707
 13 C    -1.73523    2.28817   -0.03123
 14 C    -4.91025    2.92821   -2.31665
 15 C     2.33201   -1.47936    0.67951
 16 C     0.46176   -0.44308    0.29612
 17 C     0.45414   -0.48279    0.56497
 18 C    -2.86432    3.18243   -0.27607
 19 C     0.13527   -0.54037   -0.21025
 20 C    -0.11123    0.18633    0.12231
 21 C    -2.23588   -1.17405    0.76324
 22 C     1.64298   -1.22592    2.24529
 23 C     0.00653    0.04363    0.12878

System changes: positions 

Initializing position-dependent things.

Density initialized from wave functions
           .--------------------------------------.  
          /|                                      |  
         / |                                      |  
        /  |                                      |  
       /   |                                      |  
      /    |                                      |  
     /     |                                      |  
    /      |                                      |  
   /       |                                      |  
  /        |      C  C  CC                        |  
 *         |     C   C   CC                       |  
 |         |      C        C  C  C                |  
 |         .----C-------C-------------------------.  
 |        /      C C   CC      C  C              /   
 |       /         C        C                   /    
 |      /             C                        /     
 |     /                                      /      
 |    /                                      /       
 |   /                                      /        
 |  /                                      /         
 | /                                      /          
 |/                                      /           
 *--------------------------------------*            

Positions:
   0 C      6.218957    4.553492    4.833317
   1 C      7.525948    5.383836    4.838315
   2 C     11.021990    5.219498    4.475392
   3 C      5.068056    5.337982    4.980841
   4 C      8.511157    4.371548    5.223790
   5 C      7.880708    3.359115    4.469473
   6 C      9.954091    4.511936    4.579454
   7 C      6.606172    3.171418    4.753433
   8 C     12.058995    6.161486    4.436956
   9 C      4.304077    6.442439    4.927534
  10 C      7.648399    6.738585    4.838332
  11 C      3.876491   11.527124    4.958074
  12 C      6.115093    8.133714    5.477415
  13 C     11.369089    6.855942    5.323896
  14 C      4.957885    7.485198    5.644411
  15 C      9.912536    8.317629    4.590319
  16 C      4.053164   10.174345    5.018758
  17 C      7.670183   10.219908    4.794219
  18 C      7.740134    8.899563    5.118958
  19 C      6.318521   12.481084    4.740026
  20 C      5.036314   12.140418    4.841983
  21 C      8.633348    7.818155    4.795319
  22 C      4.429951    8.934797    5.112235
  23 C      7.080665   11.368366    4.748562

Unit cell:
           periodic     x           y           z      points  spacing
  1. axis:    yes   16.000000    0.000000    0.000000    80     0.2000
  2. axis:    yes    0.000000   16.000000    0.000000    80     0.2000
  3. axis:    yes    0.000000    0.000000   10.000000    48     0.2083

Effective grid spacing dv^(1/3) = 0.2027

                     log10-error:    total        iterations:
           time      wfs    density  energy       fermi  poisson
iter:   1  10:44:08          +inf  -168.832359    3      5      
iter:   2  10:44:09         -1.96  -168.782260    3      2      
iter:   3  10:44:09         -2.14  -168.753972    2      2      
iter:   4  10:44:10         -2.37  -168.745394    2      2      
iter:   5  10:44:10         -2.55  -168.744192    2      2      
iter:   6  10:44:11         -2.70  -168.744574    3      2      
iter:   7  10:44:11         -2.87  -168.743659    3      2      
iter:   8  10:44:12         -3.09  -168.742229    2      1      
iter:   9  10:44:12         -3.18  -168.740394    2      1      
iter:  10  10:44:13         -3.42  -168.742377    2      1      
iter:  11  10:44:13         -3.68  -168.743668    2      1      
iter:  12  10:44:13         -3.75  -168.744543    2      1      
iter:  13  10:44:14         -3.89  -168.744333    2      1      
iter:  14  10:44:14         -4.02  -168.743940    2      1      

Converged after 14 iterations.

Dipole moment: (-0.556431, 0.026301, 0.091334) |e|*Ang

Energy contributions relative to reference atoms: (reference = -24663.074771)

Kinetic:        +88.385170
Potential:      -98.979006
External:        +0.000000
XC:            -160.912379
Entropy (-ST):   -0.254191
Local:           +2.889370
--------------------------
Free energy:   -168.871036
Extrapolated:  -168.743940

Fermi level: -4.81210

 Band  Eigenvalues  Occupancy
    0    -23.07387    2.00000
    1    -22.07323    2.00000
    2    -21.43968    2.00000
    3    -21.25402    2.00000
    4    -21.11816    2.00000
    5    -19.98434    2.00000
    6    -19.72955    2.00000
    7    -19.21618    2.00000
    8    -18.50858    2.00000
    9    -18.39702    2.00000
   10    -17.63179    2.00000
   11    -17.35300    2.00000
   12    -16.57319    2.00000
   13    -16.29309    2.00000
   14    -15.35982    2.00000
   15    -14.24788    2.00000
   16    -13.97824    2.00000
   17    -13.29151    2.00000
   18    -12.83705    2.00000
   19    -12.47083    2.00000
   20    -12.39371    2.00000
   21    -11.72556    2.00000
   22    -11.47698    2.00000
   23    -11.04345    2.00000
   24    -10.96670    2.00000
   25    -10.30742    2.00000
   26     -9.92309    2.00000
   27     -9.76906    2.00000
   28     -9.48897    2.00000
   29     -9.25519    2.00000
   30     -9.17360    2.00000
   31     -8.91770    2.00000
   32     -8.80258    2.00000
   33     -8.18379    2.00000
   34     -7.92099    2.00000
   35     -7.76898    2.00000
   36     -7.62695    2.00000
   37     -7.22411    2.00000
   38     -6.81780    2.00000
   39     -6.62399    2.00000
   40     -6.41493    2.00000
   41     -6.18136    2.00000
   42     -5.96238    1.99998
   43     -5.79701    1.99989
   44     -5.56716    1.99895
   45     -5.38749    1.99368
   46     -5.10734    1.90076
   47     -4.96311    1.63816
   48     -4.69027    0.45646
   49     -4.30189    0.01209
   50     -3.68285    0.00002
   51     -3.38693    0.00000
   52     -3.14420    0.00000
   53     -2.71153    0.00000
   54     -2.45606    0.00000
   55     -2.20561    0.00000
   56     -2.06084    0.00000
   57     -1.90620    0.00000
   58     -1.38447    0.00000
   59     -1.08555    0.00000
   60     -0.66108    0.00000
   61     -0.34609    0.00000
   62      0.15202    0.00000
   63      0.66338    0.00000
   64      0.85662    0.00000
   65      1.19288    0.00000
   66      1.52478    0.00000
   67      1.83208    0.00000
   68      2.13758    0.00000
   69      2.38594    0.00000
   70      2.91646    0.00000
   71      3.81676    0.00000
   72      4.15187    0.00000
   73      4.87812    0.00000
   74      5.16579    0.00000
   75      5.36490    0.00000
   76      5.75699    0.00000
   77      6.30832    0.00000
   78      6.59319    0.00000
   79      6.87142    0.00000
   80      6.97749    0.00000
   81      7.55694    0.00000
   82      7.82036    0.00000
   83      7.96252    0.00000
   84      8.04385    0.00000
   85      8.37183    0.00000
   86      8.66288    0.00000
   87      8.71057    0.00000
   88      8.87450    0.00000
   89      8.93894    0.00000
   90      9.11580    0.00000
   91      9.21527    0.00000
   92      9.35857    0.00000
   93      9.47171    0.00000
   94      9.49050    0.00000
   95      9.87421    0.00000
   96      9.99463    0.00000
   97     10.14553    0.00000


Forces in eV/Ang:
  0 C    -1.20957    0.53073   -0.71903
  1 C    -1.05998    1.21779    1.87983
  2 C    -1.09345   -0.26073    0.47620
  3 C    -1.12110    1.07771   -0.54153
  4 C     6.52742    0.18283   -4.83598
  5 C    -1.37390   -2.86043    1.39787
  6 C    -1.53186    0.91580    2.39264
  7 C    -1.13019    0.46388   -0.50271
  8 C     0.40074   -0.71737   -0.74056
  9 C     2.54763   -4.20186    1.30839
 10 C     0.30655    0.08290    0.38277
 11 C     0.30602   -0.71216   -0.28518
 12 C     4.85043    0.67559   -1.74904
 13 C    -1.63623    2.09960   -0.31982
 14 C    -4.33741    3.34243   -2.49485
 15 C     1.98365   -1.64426    0.78267
 16 C     0.43286   -0.52203    0.30709
 17 C     0.39957   -0.15874    0.49854
 18 C    -2.76532    2.42156   -0.21962
 19 C     0.09334   -0.47501   -0.21192
 20 C    -0.07045    0.16210    0.11912
 21 C    -1.85599   -0.72841    0.75089
 22 C     1.32585   -1.09669    2.16459
 23 C     0.00819    0.08934    0.12027

System changes: positions 

Initializing position-dependent things.

Density initialized from wave functions
           .--------------------------------------.  
          /|                                      |  
         / |                                      |  
        /  |                                      |  
       /   |                                      |  
      /    |                                      |  
     /     |                                      |  
    /      |                                      |  
   /       |                                      |  
  /        |      C  C  CC                        |  
 *         |     C   C   CC                       |  
 |         |      C        C  C  C                |  
 |         .----C-------C-------------------------.  
 |        /      C C   C C     C  C              /   
 |       /         C        C                   /    
 |      /             C                        /     
 |     /                                      /      
 |    /                                      /       
 |   /                                      /        
 |  /                                      /         
 | /                                      /          
 |/                                      /           
 *--------------------------------------*            

Positions:
   0 C      6.215985    4.555633    4.831042
   1 C      7.522659    5.387248    4.848160
   2 C     11.016231    5.219301    4.478408
   3 C      5.065528    5.338190    4.978342
   4 C      8.539303    4.371736    5.195369
   5 C      7.875317    3.345160    4.477729
   6 C      9.947050    4.517598    4.592072
   7 C      6.600601    3.174181    4.751057
   8 C     12.058372    6.158946    4.436035
   9 C      4.314405    6.428980    4.935269
  10 C      7.647392    6.740102    4.841961
  11 C      3.878610   11.522130    4.956545
  12 C      6.138987    8.127773    5.467765
  13 C     11.361005    6.865607    5.318190
  14 C      4.942222    7.512318    5.627655
  15 C      9.920303    8.306241    4.595934
  16 C      4.055310   10.170130    5.020725
  17 C      7.671932   10.222380    4.796492
  18 C      7.724258    8.906005    5.118387
  19 C      6.318319   12.479484    4.738779
  20 C      5.036281   12.141108    4.842641
  21 C      8.627184    7.818215    4.799529
  22 C      4.433831    8.929737    5.123900
  23 C      7.081103   11.368904    4.749172

Unit cell:
           periodic     x           y           z      points  spacing
  1. axis:    yes   16.000000    0.000000    0.000000    80     0.2000
  2. axis:    yes    0.000000   16.000000    0.000000    80     0.2000
  3. axis:    yes    0.000000    0.000000   10.000000    48     0.2083

Effective grid spacing dv^(1/3) = 0.2027

                     log10-error:    total        iterations:
           time      wfs    density  energy       fermi  poisson
iter:   1  10:44:16          +inf  -169.902051    3      5      
iter:   2  10:44:16         -1.96  -169.851870    2      2      
iter:   3  10:44:17         -2.12  -169.821372    2      2      
iter:   4  10:44:17         -2.36  -169.813913    2      2      
iter:   5  10:44:18         -2.54  -169.812732    2      2      
iter:   6  10:44:18         -2.68  -169.812815    3      2      
iter:   7  10:44:19         -2.87  -169.812250    2      2      
iter:   8  10:44:19         -3.08  -169.810792    2      1      
iter:   9  10:44:20         -3.17  -169.811901    2      2      
iter:  10  10:44:20         -3.41  -169.811916    2      1      
iter:  11  10:44:21         -3.58  -169.811829    2      1      
iter:  12  10:44:21         -3.70  -169.813091    2      1      
iter:  13  10:44:22         -3.82  -169.813046    2      1      
iter:  14  10:44:22         -3.95  -169.812286    2      1      
iter:  15  10:44:23         -4.16  -169.812444    2      1      

Converged after 15 iterations.

Dipole moment: (-0.545737, 0.003067, 0.098323) |e|*Ang

Energy contributions relative to reference atoms: (reference = -24663.074771)

Kinetic:        +87.055346
Potential:      -98.307834
External:        +0.000000
XC:            -161.335460
Entropy (-ST):   -0.246449
Local:           +2.898729
--------------------------
Free energy:   -169.935668
Extrapolated:  -169.812444

Fermi level: -4.80130

 Band  Eigenvalues  Occupancy
    0    -22.95828    2.00000
    1    -22.02726    2.00000
    2    -21.37266    2.00000
    3    -21.22635    2.00000
    4    -21.09725    2.00000
    5    -19.97650    2.00000
    6    -19.72439    2.00000
    7    -19.21153    2.00000
    8    -18.47342    2.00000
    9    -18.44883    2.00000
   10    -17.61161    2.00000
   11    -17.35317    2.00000
   12    -16.53671    2.00000
   13    -16.29231    2.00000
   14    -15.37230    2.00000
   15    -14.23987    2.00000
   16    -13.99314    2.00000
   17    -13.37083    2.00000
   18    -12.88399    2.00000
   19    -12.49413    2.00000
   20    -12.40959    2.00000
   21    -11.82562    2.00000
   22    -11.45303    2.00000
   23    -11.05757    2.00000
   24    -10.98519    2.00000
   25    -10.32570    2.00000
   26     -9.91207    2.00000
   27     -9.87850    2.00000
   28     -9.47362    2.00000
   29     -9.23734    2.00000
   30     -9.15160    2.00000
   31     -8.92120    2.00000
   32     -8.83684    2.00000
   33     -8.19735    2.00000
   34     -7.89583    2.00000
   35     -7.78549    2.00000
   36     -7.62323    2.00000
   37     -7.23409    2.00000
   38     -6.83301    2.00000
   39     -6.63504    2.00000
   40     -6.40665    2.00000
   41     -6.22311    2.00000
   42     -5.94557    1.99998
   43     -5.83133    1.99993
   44     -5.58454    1.99921
   45     -5.33158    1.99009
   46     -5.13061    1.92838
   47     -4.94759    1.62396
   48     -4.67779    0.45059
   49     -4.24733    0.00782
   50     -3.65902    0.00002
   51     -3.32390    0.00000
   52     -3.10487    0.00000
   53     -2.67733    0.00000
   54     -2.43244    0.00000
   55     -2.21271    0.00000
   56     -2.02222    0.00000
   57     -1.91129    0.00000
   58     -1.33653    0.00000
   59     -1.00680    0.00000
   60     -0.60261    0.00000
   61     -0.21617    0.00000
   62      0.22923    0.00000
   63      0.85670    0.00000
   64      0.96320    0.00000
   65      1.31688    0.00000
   66      1.51747    0.00000
   67      1.91915    0.00000
   68      2.18133    0.00000
   69      2.48411    0.00000
   70      3.08380    0.00000
   71      3.87914    0.00000
   72      4.22281    0.00000
   73      5.09451    0.00000
   74      5.26114    0.00000
   75      5.43873    0.00000
   76      5.80123    0.00000
   77      6.38431    0.00000
   78      6.70047    0.00000
   79      6.90275    0.00000
   80      7.03396    0.00000
   81      7.62040    0.00000
   82      7.83006    0.00000
   83      7.99411    0.00000
   84      8.01419    0.00000
   85      8.40807    0.00000
   86      8.66458    0.00000
   87      8.74886    0.00000
   88      8.91510    0.00000
   89      9.01858    0.00000
   90      9.14379    0.00000
   91      9.26085    0.00000
   92      9.40391    0.00000
   93      9.50018    0.00000
   94      9.54512    0.00000
   95      9.88188    0.00000
   96     10.00202    0.00000
   97     10.16267    0.00000


Forces in eV/Ang:
  0 C    -0.88626    0.43635   -0.57362
  1 C    -0.84772    0.85046    1.75027
  2 C    -0.98313   -0.13340    0.47731
  3 C    -0.84951    0.67982   -0.50862
  4 C     5.46057    0.09863   -4.74565
  5 C    -1.17127   -2.59355    1.43055
  6 C    -1.26168    0.94421    2.20738
  7 C    -1.03851    0.49781   -0.45493
  8 C     0.14984   -0.58137   -0.47315
  9 C     2.30501   -3.29836    1.36573
 10 C     0.06503    0.20905    0.53851
 11 C     0.33732   -0.73053   -0.26070
 12 C     4.69705   -0.02691   -1.73598
 13 C    -1.53409    1.90672   -0.62856
 14 C    -3.65023    3.58032   -2.60542
 15 C     1.64021   -1.79520    0.87988
 16 C     0.38318   -0.64315    0.32150
 17 C     0.32663    0.18941    0.44639
 18 C    -2.69133    1.63163   -0.16312
 19 C     0.02256   -0.37801   -0.20827
 20 C    -0.02774    0.14520    0.10700
 21 C    -1.47978   -0.29921    0.73549
 22 C     0.92936   -0.88309    2.00086
 23 C     0.05165    0.06794    0.11059

System changes: positions 

Initializing position-dependent things.

Density initialized from wave functions
           .--------------------------------------.  
          /|                                      |  
         / |                                      |  
        /  |                                      |  
       /   |                                      |  
      /    |                                      |  
     /     |                                      |  
    /      |                                      |  
   /       |                                      |  
  /        |      C  C  CC                        |  
 *         |     C   C   CC                       |  
[...]

Dipole moment: (-0.526524, -0.359922, 0.052575) |e|*Ang

Energy contributions relative to reference atoms: (reference = -24663.074771)

Kinetic:       +111.262818
Potential:     -120.734664
External:        +0.000000
XC:            -175.772344
Entropy (-ST):   -0.186032
Local:           +2.994628
--------------------------
Free energy:   -182.435594
Extrapolated:  -182.342578

Fermi level: -4.57869

 Band  Eigenvalues  Occupancy
    0    -22.89938    2.00000
    1    -22.18677    2.00000
    2    -21.25053    2.00000
    3    -21.10719    2.00000
    4    -20.92489    2.00000
    5    -19.88401    2.00000
    6    -19.58797    2.00000
    7    -19.23723    2.00000
    8    -18.61621    2.00000
    9    -18.47196    2.00000
   10    -18.22305    2.00000
   11    -17.41278    2.00000
   12    -16.75369    2.00000
   13    -16.29346    2.00000
   14    -15.89951    2.00000
   15    -15.07629    2.00000
   16    -14.33411    2.00000
   17    -13.82642    2.00000
   18    -13.62357    2.00000
   19    -13.25296    2.00000
   20    -12.90352    2.00000
   21    -11.97829    2.00000
   22    -11.65940    2.00000
   23    -11.32885    2.00000
   24    -11.12095    2.00000
   25    -10.66002    2.00000
   26    -10.35570    2.00000
   27    -10.11957    2.00000
   28     -9.83596    2.00000
   29     -9.78557    2.00000
   30     -9.35683    2.00000
   31     -9.15680    2.00000
   32     -9.12555    2.00000
   33     -8.76821    2.00000
   34     -8.69842    2.00000
   35     -8.00548    2.00000
   36     -7.68993    2.00000
   37     -7.37291    2.00000
   38     -7.08410    2.00000
   39     -6.96008    2.00000
   40     -6.42910    2.00000
   41     -6.16441    2.00000
   42     -5.97129    2.00000
   43     -5.92435    2.00000
   44     -5.83132    1.99999
   45     -5.53768    1.99986
   46     -4.95172    1.95315
   47     -4.77304    1.74947
   48     -4.40091    0.28914
   49     -4.02752    0.00805
   50     -3.70789    0.00033
   51     -2.78827    0.00000
   52     -2.68231    0.00000
   53     -2.42396    0.00000
   54     -1.72720    0.00000
   55     -1.44027    0.00000
   56     -0.92457    0.00000
   57     -0.31805    0.00000
   58     -0.08443    0.00000
   59      0.06011    0.00000
   60      0.30882    0.00000
   61      1.05013    0.00000
   62      1.78750    0.00000
   63      2.50259    0.00000
   64      2.84351    0.00000
   65      2.97558    0.00000
   66      3.55358    0.00000
   67      3.83126    0.00000
   68      4.25061    0.00000
   69      4.68579    0.00000
   70      5.12009    0.00000
   71      5.21312    0.00000
   72      5.48677    0.00000
   73      5.81867    0.00000
   74      5.95056    0.00000
   75      6.27957    0.00000
   76      6.42959    0.00000
   77      6.91930    0.00000
   78      7.30194    0.00000
   79      7.65576    0.00000
   80      7.82084    0.00000
   81      7.91637    0.00000
   82      8.30719    0.00000
   83      8.50896    0.00000
   84      8.68699    0.00000
   85      8.76155    0.00000
   86      8.84881    0.00000
   87      9.04412    0.00000
   88      9.14358    0.00000
   89      9.34324    0.00000
   90      9.40615    0.00000
   91      9.45958    0.00000
   92      9.66131    0.00000
   93      9.94950    0.00000
   94      9.99109    0.00000
   95     10.07878    0.00000
   96     10.17272    0.00000
   97     10.30347    0.00000


Forces in eV/Ang:
  0 C     0.05883    0.02781    0.05598
  1 C     0.06227   -0.02496   -0.09093
  2 C     0.00477    0.02471   -0.00518
  3 C     0.02386   -0.07409    0.02366
  4 C    -0.08168   -0.08899    0.02979
  5 C    -0.00309    0.02146    0.02143
  6 C    -0.02398    0.00407   -0.03103
  7 C     0.00690   -0.04855    0.00113
  8 C     0.05733   -0.06578   -0.00128
  9 C    -0.12548    0.15650    0.03778
 10 C     0.02064   -0.02294    0.02919
 11 C     0.03722   -0.05149    0.00175
 12 C     0.07751   -0.01452   -0.13093
 13 C    -0.01357    0.03779    0.01963
 14 C    -0.07328   -0.07404    0.00767
 15 C     0.04095   -0.00811    0.00081
 16 C    -0.04819    0.01285   -0.01153
 17 C     0.02987    0.01342   -0.07646
 18 C     0.00518   -0.06586    0.09098
 19 C    -0.06013   -0.00701    0.05245
 20 C     0.02234   -0.00793    0.03608
 21 C     0.06232   -0.00002   -0.04197
 22 C    -0.08585    0.01727   -0.04958
 23 C    -0.00785    0.07025    0.03231

System changes: positions 

Initializing position-dependent things.

Density initialized from wave functions
           .--------------------------------------.  
          /|                                      |  
         / |                                      |  
        /  |                                      |  
       /   |                                      |  
      /    |                                      |  
     /     |                                      |  
    /      |                                      |  
   /       |            C                         |  
  /        |     CC  C   C                        |  
 *         |     C       CC                       |  
 |         |      C   C    C  C                   |  
 |         .----C-------C-------C-C---------------.  
 |        /      C C   C       C                 /   
 |       /         C     C  C                   /    
 |      /             C                        /     
 |     /                                      /      
 |    /                                      /       
 |   /                                      /        
 |  /                                      /         
 | /                                      /          
 |/                                      /           
 *--------------------------------------*            

Positions:
   0 C      6.227016    4.535488    4.850255
   1 C      7.521817    5.335783    4.881882
   2 C     11.010802    5.252252    4.686504
   3 C      5.064379    5.272771    5.001783
   4 C      8.634433    4.286366    4.696950
   5 C      7.863894    3.051539    4.572193
   6 C      9.978427    4.489408    4.668401
   7 C      6.593689    3.175575    4.663661
   8 C     11.976919    6.222962    4.695908
   9 C      4.673959    6.455184    5.135418
  10 C      7.568672    6.740984    4.988164
  11 C      3.886784   11.546477    5.043422
  12 C      6.545140    7.807610    5.095445
  13 C     10.999927    7.186361    4.801740
  14 C      5.101969    7.799884    5.182733
  15 C      9.990759    7.979551    4.879261
  16 C      4.044430   10.193004    5.156409
  17 C      7.535197   10.242692    4.932001
  18 C      7.566538    8.863641    5.002305
  19 C      6.301358   12.557182    4.759148
  20 C      5.032521   12.170547    4.872143
  21 C      8.626438    7.875474    4.951395
  22 C      4.325008    8.963875    5.227568
  23 C      7.032910   11.400744    4.828117

Unit cell:
           periodic     x           y           z      points  spacing
  1. axis:    yes   16.000000    0.000000    0.000000    80     0.2000
  2. axis:    yes    0.000000   16.000000    0.000000    80     0.2000
  3. axis:    yes    0.000000    0.000000   10.000000    48     0.2083

Effective grid spacing dv^(1/3) = 0.2027

                     log10-error:    total        iterations:
           time      wfs    density  energy       fermi  poisson
iter:   1  10:49:46          +inf  -182.344593    2      4      
iter:   2  10:49:46         -3.22  -182.344927    2      1      
iter:   3  10:49:46         -3.33  -182.345756    2      1      
iter:   4  10:49:47         -3.49  -182.346205    2      1      
iter:   5  10:49:47         -3.66  -182.346833    2      1      
iter:   6  10:49:48         -3.79  -182.345118    2      1      
iter:   7  10:49:48         -4.13  -182.344385    2      1      

Converged after 7 iterations.

Dipole moment: (-0.526493, -0.360657, 0.051330) |e|*Ang

Energy contributions relative to reference atoms: (reference = -24663.074771)

Kinetic:       +110.762109
Potential:     -120.348272
External:        +0.000000
XC:            -175.655924
Entropy (-ST):   -0.186030
Local:           +2.990717
--------------------------
Free energy:   -182.437400
Extrapolated:  -182.344385

Fermi level: -4.57756

 Band  Eigenvalues  Occupancy
    0    -22.89588    2.00000
    1    -22.18492    2.00000
    2    -21.24904    2.00000
    3    -21.10521    2.00000
    4    -20.92239    2.00000
    5    -19.87983    2.00000
    6    -19.58548    2.00000
    7    -19.23676    2.00000
    8    -18.61433    2.00000
    9    -18.47156    2.00000
   10    -18.22290    2.00000
   11    -17.41029    2.00000
   12    -16.75320    2.00000
   13    -16.29240    2.00000
   14    -15.89848    2.00000
   15    -15.07621    2.00000
   16    -14.33054    2.00000
   17    -13.82606    2.00000
   18    -13.62030    2.00000
   19    -13.25156    2.00000
   20    -12.90433    2.00000
   21    -11.97766    2.00000
   22    -11.65616    2.00000
   23    -11.32822    2.00000
   24    -11.11776    2.00000
   25    -10.65768    2.00000
   26    -10.35365    2.00000
   27    -10.11949    2.00000
   28     -9.83639    2.00000
   29     -9.78422    2.00000
   30     -9.35546    2.00000
   31     -9.15496    2.00000
   32     -9.12392    2.00000
   33     -8.76661    2.00000
   34     -8.70102    2.00000
   35     -8.00366    2.00000
   36     -7.68913    2.00000
   37     -7.36913    2.00000
   38     -7.08432    2.00000
   39     -6.95909    2.00000
   40     -6.43066    2.00000
   41     -6.16362    2.00000
   42     -5.97125    2.00000
   43     -5.92431    2.00000
   44     -5.83233    1.99999
   45     -5.53794    1.99987
   46     -4.95733    1.95614
   47     -4.76993    1.74510
   48     -4.40031    0.29046
   49     -4.02723    0.00811
   50     -3.70932    0.00034
   51     -2.78820    0.00000
   52     -2.68503    0.00000
   53     -2.43371    0.00000
   54     -1.72895    0.00000
   55     -1.44451    0.00000
   56     -0.92717    0.00000
   57     -0.31938    0.00000
   58     -0.08170    0.00000
   59      0.05651    0.00000
   60      0.30642    0.00000
   61      1.05639    0.00000
   62      1.78523    0.00000
   63      2.49964    0.00000
   64      2.83925    0.00000
   65      2.97330    0.00000
   66      3.54849    0.00000
   67      3.82707    0.00000
   68      4.24366    0.00000
   69      4.68696    0.00000
   70      5.10776    0.00000
   71      5.20037    0.00000
   72      5.46988    0.00000
   73      5.79956    0.00000
   74      5.95287    0.00000
   75      6.26869    0.00000
   76      6.42025    0.00000
   77      6.91045    0.00000
   78      7.29478    0.00000
   79      7.64917    0.00000
   80      7.81622    0.00000
   81      7.91424    0.00000
   82      8.30849    0.00000
   83      8.50470    0.00000
   84      8.68762    0.00000
   85      8.75736    0.00000
   86      8.84789    0.00000
   87      9.04266    0.00000
   88      9.14377    0.00000
   89      9.34053    0.00000
   90      9.40307    0.00000
   91      9.45946    0.00000
   92      9.65712    0.00000
   93      9.94649    0.00000
   94      9.98724    0.00000
   95     10.07775    0.00000
   96     10.17079    0.00000
   97     10.30218    0.00000


Forces in eV/Ang:
  0 C     0.05314    0.02522    0.05894
  1 C     0.04791   -0.01968   -0.10277
  2 C    -0.00676    0.02159   -0.00344
  3 C     0.01519   -0.03670    0.01624
  4 C    -0.08893   -0.06684    0.03971
  5 C     0.04288    0.02458    0.03320
  6 C    -0.01039    0.00764   -0.03942
  7 C    -0.02710   -0.03931   -0.01383
  8 C    -0.01876   -0.05229    0.01797
  9 C    -0.08300    0.09833    0.04910
 10 C     0.01097   -0.01801    0.02843
 11 C     0.00285   -0.07124   -0.00177
 12 C     0.06239   -0.00816   -0.11682
 13 C     0.01983    0.01456    0.00665
 14 C    -0.06301   -0.05608   -0.01971
 15 C     0.03140   -0.00152    0.00587
 16 C    -0.05643    0.03022   -0.00687
 17 C     0.00716    0.04250   -0.08614
 18 C     0.01393   -0.04278    0.10899
 19 C    -0.04698    0.02798    0.01525
 20 C     0.03358   -0.00068    0.04918
 21 C     0.04679   -0.00240   -0.04572
 22 C    -0.06801    0.01248   -0.04485
 23 C     0.01906    0.02113    0.04556

System changes: positions 

Initializing position-dependent things.

Density initialized from wave functions
           .--------------------------------------.  
          /|                                      |  
         / |                                      |  
        /  |                                      |  
       /   |                                      |  
      /    |                                      |  
     /     |                                      |  
    /      |                                      |  
   /       |            C                         |  
  /        |     CC  C   C                        |  
 *         |     C       CC                       |  
 |         |      C   C    C  C                   |  
 |         .----C-------C-------C-C---------------.  
 |        /      C C   C       C                 /   
 |       /         C     C  C                   /    
 |      /             C                        /     
 |     /                                      /      
 |    /                                      /       
 |   /                                      /        
 |  /                                      /         
 | /                                      /          
 |/                                      /           
 *--------------------------------------*            

Positions:
   0 C      6.229199    4.535197    4.857909
   1 C      7.527118    5.331792    4.880014
   2 C     11.011512    5.251468    4.687501
   3 C      5.067332    5.274271    5.012899
   4 C      8.635052    4.279336    4.690220
   5 C      7.862482    3.047250    4.568696
   6 C      9.979402    4.486816    4.661249
   7 C      6.592728    3.171782    4.673855
   8 C     11.980678    6.219666    4.707655
   9 C      4.664531    6.456239    5.133995
  10 C      7.573904    6.737368    4.987317
  11 C      3.883521   11.549358    5.046234
  12 C      6.546707    7.803021    5.089487
  13 C     11.002676    7.185531    4.801496
  14 C      5.101123    7.798631    5.179286
  15 C      9.993943    7.979115    4.874525
  16 C      4.042869   10.195894    5.150806
  17 C      7.531208   10.241200    4.927582
  18 C      7.566760    8.860611    4.999568
  19 C      6.299149   12.559185    4.767709
  20 C      5.030012   12.175739    4.884601
  21 C      8.629722    7.874844    4.947697
  22 C      4.327657    8.967080    5.216310
  23 C      7.029861   11.401039    4.830466

Unit cell:
           periodic     x           y           z      points  spacing
  1. axis:    yes   16.000000    0.000000    0.000000    80     0.2000
  2. axis:    yes    0.000000   16.000000    0.000000    80     0.2000
  3. axis:    yes    0.000000    0.000000   10.000000    48     0.2083

Effective grid spacing dv^(1/3) = 0.2027

                     log10-error:    total        iterations:
           time      wfs    density  energy       fermi  poisson
iter:   1  10:49:50          +inf  -182.350085    2      5      
iter:   2  10:49:50         -2.79  -182.349378    2      1      
iter:   3  10:49:51         -2.94  -182.348881    2      1      
iter:   4  10:49:51         -3.14  -182.350135    2      1      
iter:   5  10:49:52         -3.29  -182.349887    2      1      
iter:   6  10:49:52         -3.46  -182.349455    2      1      
iter:   7  10:49:53         -3.71  -182.348560    2      1      
iter:   8  10:49:53         -3.50  -182.346399    2      1      
iter:   9  10:49:54         -4.00  -182.346543    2      1      

Converged after 9 iterations.

Dipole moment: (-0.529982, -0.356908, 0.049705) |e|*Ang

Energy contributions relative to reference atoms: (reference = -24663.074771)

Kinetic:       +109.350242
Potential:     -119.236522
External:        +0.000000
XC:            -175.345035
Entropy (-ST):   -0.186678
Local:           +2.978112
--------------------------
Free energy:   -182.439882
Extrapolated:  -182.346543

Fermi level: -4.57648

 Band  Eigenvalues  Occupancy
    0    -22.88383    2.00000
    1    -22.17926    2.00000
    2    -21.24025    2.00000
    3    -21.10280    2.00000
    4    -20.91233    2.00000
    5    -19.87055    2.00000
    6    -19.58078    2.00000
    7    -19.23076    2.00000
    8    -18.60933    2.00000
    9    -18.46532    2.00000
   10    -18.22209    2.00000
   11    -17.40384    2.00000
   12    -16.74867    2.00000
   13    -16.29043    2.00000
   14    -15.89552    2.00000
   15    -15.07461    2.00000
   16    -14.32345    2.00000
   17    -13.82480    2.00000
   18    -13.61139    2.00000
   19    -13.24745    2.00000
   20    -12.90769    2.00000
   21    -11.97857    2.00000
   22    -11.65148    2.00000
   23    -11.32484    2.00000
   24    -11.11436    2.00000
   25    -10.64873    2.00000
   26    -10.35236    2.00000
   27    -10.11660    2.00000
   28     -9.83652    2.00000
   29     -9.77944    2.00000
   30     -9.35050    2.00000
   31     -9.15524    2.00000
   32     -9.12180    2.00000
   33     -8.76037    2.00000
   34     -8.69773    2.00000
   35     -7.99980    2.00000
   36     -7.68655    2.00000
   37     -7.36686    2.00000
   38     -7.08189    2.00000
   39     -6.95478    2.00000
   40     -6.43017    2.00000
   41     -6.16359    2.00000
   42     -5.97076    2.00000
   43     -5.92441    2.00000
   44     -5.83237    1.99999
   45     -5.53806    1.99987
   46     -4.95828    1.95700
   47     -4.76778    1.74273
   48     -4.39955    0.29127
   49     -4.03425    0.00880
   50     -3.71117    0.00035
   51     -2.79197    0.00000
   52     -2.69027    0.00000
   53     -2.46396    0.00000
   54     -1.73790    0.00000
   55     -1.44572    0.00000
   56     -0.93144    0.00000
   57     -0.32391    0.00000
   58     -0.07954    0.00000
   59      0.05291    0.00000
   60      0.30123    0.00000
   61      1.06350    0.00000
   62      1.77855    0.00000
   63      2.49088    0.00000
   64      2.83338    0.00000
   65      2.96333    0.00000
   66      3.54354    0.00000
   67      3.82453    0.00000
   68      4.22450    0.00000
   69      4.68408    0.00000
   70      5.08895    0.00000
   71      5.17262    0.00000
   72      5.43518    0.00000
   73      5.77242    0.00000
   74      5.94850    0.00000
   75      6.25228    0.00000
   76      6.40065    0.00000
   77      6.88795    0.00000
   78      7.28088    0.00000
   79      7.63572    0.00000
   80      7.80443    0.00000
   81      7.90350    0.00000
   82      8.32069    0.00000
   83      8.48982    0.00000
   84      8.68999    0.00000
   85      8.74933    0.00000
   86      8.84265    0.00000
   87      9.04030    0.00000
   88      9.14466    0.00000
   89      9.33896    0.00000
   90      9.39701    0.00000
   91      9.45924    0.00000
   92      9.64443    0.00000
   93      9.94076    0.00000
   94      9.97863    0.00000
   95     10.07648    0.00000
   96     10.16280    0.00000
   97     10.29636    0.00000


Forces in eV/Ang:
  0 C     0.02749   -0.00838    0.04789
  1 C    -0.00312   -0.00017   -0.08046
  2 C    -0.04829   -0.01094   -0.00742
  3 C    -0.00156    0.08494    0.00489
  4 C    -0.02485    0.01013    0.04716
  5 C    -0.00363    0.02345    0.05253
  6 C     0.00733    0.01941   -0.02411
  7 C    -0.01732    0.02475   -0.00793
  8 C    -0.05511   -0.01534    0.01965
  9 C     0.02605   -0.07481    0.05867
 10 C    -0.01256    0.00556   -0.00763
 11 C     0.02494   -0.03930   -0.01196
 12 C     0.02379    0.00693   -0.04808
 13 C     0.07539   -0.05072    0.01313
 14 C    -0.03605    0.01084   -0.07737
 15 C     0.00465    0.01787    0.01536
 16 C    -0.04320   -0.01815   -0.00104
 17 C    -0.02162    0.03733   -0.07053
 18 C     0.01170    0.02232    0.06311
 19 C    -0.03646   -0.01148    0.01756
 20 C     0.02072   -0.03961    0.02681
 21 C    -0.00152   -0.01087   -0.02804
 22 C    -0.01568   -0.00795   -0.02459
 23 C     0.03030   -0.01944    0.05246

