
  ___ ___ ___ _ _ _  
 |   |   |_  | | | | 
 | | | | | . | | | | 
 |__ |  _|___|_____|  1.3.0b1
 |___|_|             

User:   esb@s66n54.grendel.cscaa.dk
Date:   Wed Nov  8 14:13:01 2017
Arch:   x86_64
Pid:    96416
Python: 2.7.13
gpaw:   /home/esb/DFT/gpaw_git/gpaw
_gpaw:  /home/esb/DFT/gpaw_git/build/bin.linux-x86_64-2.7/gpaw-python
ase:    /home/esb/DFT/ase_git/ase (version 3.15.0b1)
numpy:  /comm/swstack/core/python/2.7.13/lib/python2.7/site-packages/numpy (version 1.13.3)
scipy:  /comm/swstack/core/python/2.7.13/lib/python2.7/site-packages/scipy (version 0.19.1)
units:  Angstrom and eV
cores:  16
Extra parameters: {'blacs': True}

Input parameters:
  basis: dzp
  gpts: [80 80 48]
  kpts: [1 1 1]
  maxiter: 99
  mixer: {backend: pulay,
          beta: 0.05,
          method: separate,
          nmaxold: 5,
          weight: 75}
  mode: lcao
  nbands: -50
  occupations: {name: fermi-dirac,
                width: 0.1}
  poissonsolver: {eps: 1e-07,
                  name: fd,
                  nn: 3,
                  relax: GS}
  xc: PBE

System changes: positions, numbers, cell, pbc, initial_charges, initial_magmoms 

Initialize ...

C-setup:
  name: Carbon
  id: 4aa54d4b901d75f77cc0ea3eec22967b
  Z: 6
  valence: 4
  core: 2
  charge: 0.0
  file: /home/esb/DFT/gpaw-setups-0.8.7929/C.PBE.gz
  cutoffs: 0.64(comp), 1.14(filt), 1.14(core), lmax=2
  valence states:
                energy  radius
    2s(2.00)   -13.751   0.635
    2p(2.00)    -5.284   0.635
    *s          13.461   0.635
    *p          21.927   0.635
    *d           0.000   0.635

  LCAO basis set for C:
    Name: dzp
    File: /home/esb/DFT/gpaw-setups-0.8.7929/C.dzp.basis.gz
    Number of radial functions: 5
    Number of spherical harmonics: 13
      l=0, rc=5.5469 Bohr: 2s-sz confined orbital
      l=1, rc=6.6719 Bohr: 2p-sz confined orbital
      l=0, rc=3.0312 Bohr: 2s-dz split-valence wave
      l=1, rc=3.7500 Bohr: 2p-dz split-valence wave
      l=2, rc=6.6719 Bohr: d-type Gaussian polarization

Reference energy: -24663.074771

Spin-paired calculation

Occupation numbers:
  Fermi-Dirac: width=0.1000 eV

Convergence criteria:
  Maximum total energy change: 0.0005 eV / electron
  Maximum integral of absolute density change: 0.0001 electrons
  Maximum integral of absolute eigenstate change: 4e-08 eV^2
  Maximum number of iterations: 99

Symmetries present (total): 1

  ( 1  0  0)
  ( 0  1  0)
  ( 0  0  1)

1 k-point (Gamma)
1 k-point in the irreducible part of the Brillouin zone
       k-points in crystal coordinates                weights
   0:     0.00000000    0.00000000    0.00000000          1/1

Wave functions: LCAO
  Diagonalizer: Serial LAPACK
  Atomic Correction: dense with blas
  Datatype: float
  Eigensolver: None 

LCAO using direct dense diagonalizer 

Densities:
  Coarse grid: 80*80*48 grid
  Fine grid: 160*160*96 grid
  Total Charge: 0.000000 

Density mixing:
  Method: separate
  Backend: pulay
  Linear mixing parameter: 0.05
  Mixing with 5 old densities
  Damping of long wave oscillations: 75 

Hamiltonian:
  XC and Coulomb potentials evaluated on a 160*160*96 grid
  Using the PBE Exchange-Correlation functional
  Interpolation: tri-quintic (5. degree polynomial)
  Poisson solver: Gauss-Seidel solver with 6 multi-grid levels
    Coarsest grid: 5 x 5 x 3 points
    Stencil: 6*3+1=19 point O(h^6) finite-difference Laplacian
    Max iterations: 1000
    Tolerance: 1.000000e-07 

Memory estimate:
  Process memory now: 79.59 MiB
  Calculator: 15.59 MiB
    Density: 6.13 MiB
      Arrays: 3.81 MiB
      Localized functions: 0.86 MiB
      Mixer: 1.46 MiB
    Hamiltonian: 5.40 MiB
      Arrays: 2.49 MiB
      XC: 0.00 MiB
      Poisson: 2.85 MiB
      vbar: 0.07 MiB
    Wavefunctions: 4.05 MiB
      C [qnM]: 0.23 MiB
      S, T [2 x qmm]: 1.49 MiB
      P [aqMi]: 0.01 MiB
      TCI: 0.00 MiB
      BasisFunctions: 2.33 MiB
      Eigensolver: 0.00 MiB

Total number of cores used: 16
Domain decomposition: 2 x 4 x 2

Number of atoms: 24
Number of atomic orbitals: 312
Number of bands in calculation: 98
Bands to converge: occupied states only
Number of valence electrons: 96

... initialized

Initializing position-dependent things.

Density initialized from atomic densities
           .--------------------------------------.  
          /|                                      |  
         / |                                      |  
        /  |                                      |  
       /   |                                      |  
      /    |                                      |  
     /     |                                      |  
    /      |                                      |  
   /       |         C        C                   |  
  /        |                C   C                 |  
 *         |           C CC   C  C                |  
 |         |    CC CC        C   C                |  
 |         .-C--------C-C----C----C---------------.  
 |        /            C     C                   /   
 |       /        C                             /    
 |      /                                      /     
 |     /                                      /      
 |    /                                      /       
 |   /                                      /        
 |  /                                      /         
 | /                                      /          
 |/                                      /           
 *--------------------------------------*            

Positions:
   0 C      5.497642    8.248289    4.672011
   1 C      5.450368    7.453494    5.652614
   2 C      5.441630   11.343395    5.499651
   3 C      7.595315    8.271976    5.308717
   4 C     10.725807    9.246626    5.445288
   5 C      4.353239    9.332415    4.496712
   6 C      8.993347   11.272100    5.592944
   7 C      4.231449    6.730362    5.647100
   8 C      3.025782    7.561704    4.445529
   9 C     11.528343    7.351336    4.461230
  10 C      9.485937    9.839208    4.459219
  11 C     10.151488   10.643957    5.561751
  12 C      7.613689    6.561441    4.617052
  13 C      6.607982    9.822787    5.004293
  14 C     11.721681    6.409043    5.300867
  15 C     10.313254    4.160655    5.321101
  16 C      7.477504   10.650639    4.710447
  17 C      9.540834    7.902458    4.947412
  18 C      8.128157   11.798867    4.606921
  19 C      5.739431    4.328838    4.797037
  20 C     10.083472    5.285828    5.183837
  21 C      7.653127    5.061684    4.535819
  22 C      6.719726    7.369568    4.836972
  23 C     10.919848    9.380415    4.289064

Unit cell:
           periodic     x           y           z      points  spacing
  1. axis:    yes   16.000000    0.000000    0.000000    80     0.2000
  2. axis:    yes    0.000000   16.000000    0.000000    80     0.2000
  3. axis:    yes    0.000000    0.000000   10.000000    48     0.2083

Effective grid spacing dv^(1/3) = 0.2027

                     log10-error:    total        iterations:
           time      wfs    density  energy       fermi  poisson
iter:   1  14:13:03          +inf  -137.149344    3      6      
iter:   2  14:13:04         -0.82  -132.387747    3      3      
iter:   3  14:13:04         -0.90  -130.332127    3      3      
iter:   4  14:13:05         -0.98  -128.899331    3      3      
iter:   5  14:13:06         -1.06  -128.603376    3      3      
iter:   6  14:13:06         -1.11  -128.092188    2      3      
iter:   7  14:13:07         -1.18  -127.772810    3      3      
iter:   8  14:13:07         -1.31  -127.601069    3      3      
iter:   9  14:13:08         -1.52  -127.532740    3      3      
iter:  10  14:13:08         -1.68  -127.521179    2      3      
iter:  11  14:13:09         -1.87  -127.511192    2      2      
iter:  12  14:13:09         -1.95  -127.506009    2      2      
iter:  13  14:13:10         -2.04  -127.500779    2      2      
iter:  14  14:13:10         -2.20  -127.492926    2      2      
iter:  15  14:13:11         -2.35  -127.493090    2      2      
iter:  16  14:13:11         -2.57  -127.490053    2      2      
iter:  17  14:13:12         -2.71  -127.495451    2      1      
iter:  18  14:13:12         -2.76  -127.491598    2      1      
iter:  19  14:13:13         -2.85  -127.485771    2      1      
iter:  20  14:13:13         -2.92  -127.485967    2      1      
iter:  21  14:13:14         -3.03  -127.484937    2      1      
iter:  22  14:13:14         -3.17  -127.488587    2      2      
iter:  23  14:13:15         -3.40  -127.488299    2      1      
iter:  24  14:13:15         -3.51  -127.488556    2      1      
iter:  25  14:13:16         -3.60  -127.487019    2      1      
iter:  26  14:13:16         -3.86  -127.486929    2      1      
iter:  27  14:13:16         -4.02  -127.487958    2      1      

Converged after 27 iterations.

Dipole moment: (-0.493846, 0.889216, 0.142929) |e|*Ang

Energy contributions relative to reference atoms: (reference = -24663.074771)

Kinetic:       +141.160416
Potential:     -128.173290
External:        +0.000000
XC:            -142.870493
Entropy (-ST):   -0.592279
Local:           +2.691548
--------------------------
Free energy:   -127.784097
Extrapolated:  -127.487958

Fermi level: -4.97865

 Band  Eigenvalues  Occupancy
    0    -26.43608    2.00000
    1    -25.64689    2.00000
    2    -23.07303    2.00000
    3    -22.32975    2.00000
    4    -20.66776    2.00000
    5    -19.18046    2.00000
    6    -18.76763    2.00000
    7    -18.31990    2.00000
    8    -18.00976    2.00000
    9    -17.17914    2.00000
   10    -16.90916    2.00000
   11    -16.15682    2.00000
   12    -15.25008    2.00000
   13    -14.88577    2.00000
   14    -14.16698    2.00000
   15    -14.02068    2.00000
   16    -13.59002    2.00000
   17    -13.36282    2.00000
   18    -12.51800    2.00000
   19    -12.16457    2.00000
   20    -12.08121    2.00000
   21    -11.55120    2.00000
   22    -11.17167    2.00000
   23    -10.63469    2.00000
   24    -10.13882    2.00000
   25     -9.97741    2.00000
   26     -9.76345    2.00000
   27     -9.39203    2.00000
   28     -8.90407    2.00000
   29     -8.84911    2.00000
   30     -8.26088    2.00000
   31     -8.02815    2.00000
   32     -7.93636    2.00000
   33     -7.79978    2.00000
   34     -7.56856    2.00000
   35     -7.20401    2.00000
   36     -7.15075    2.00000
   37     -6.58102    2.00000
   38     -6.49213    2.00000
   39     -6.33744    2.00000
   40     -6.14177    1.99998
   41     -5.91739    1.99983
   42     -5.79427    1.99943
   43     -5.63353    1.99714
   44     -5.50121    1.98930
   45     -5.25064    1.87639
   46     -5.09676    1.53028
   47     -5.04724    1.33010
   48     -4.93835    0.80119
   49     -4.76325    0.20791
   50     -4.73783    0.16510
   51     -4.68652    0.10222
   52     -4.17765    0.00066
   53     -4.08971    0.00028
   54     -3.98597    0.00010
   55     -3.96242    0.00008
   56     -3.68733    0.00000
   57     -3.58944    0.00000
   58     -3.13195    0.00000
   59     -2.62184    0.00000
   60     -2.45747    0.00000
   61     -2.26937    0.00000
   62     -1.73240    0.00000
   63     -1.64483    0.00000
   64     -1.52264    0.00000
   65     -0.87242    0.00000
   66     -0.43435    0.00000
   67     -0.15350    0.00000
   68      0.05844    0.00000
   69      0.21206    0.00000
   70      0.82479    0.00000
   71      0.90862    0.00000
   72      1.24798    0.00000
   73      1.39811    0.00000
   74      1.59259    0.00000
   75      2.21160    0.00000
   76      2.36237    0.00000
   77      2.62220    0.00000
   78      3.40290    0.00000
   79      4.13078    0.00000
   80      4.49658    0.00000
   81      4.77243    0.00000
   82      5.37402    0.00000
   83      6.31431    0.00000
   84      6.90579    0.00000
   85      7.11346    0.00000
   86      7.35657    0.00000
   87      7.52113    0.00000
   88      7.78873    0.00000
   89      7.98779    0.00000
   90      8.14726    0.00000
   91      8.50585    0.00000
   92      8.55618    0.00000
   93      8.73370    0.00000
   94      9.03424    0.00000
   95      9.11767    0.00000
   96      9.33340    0.00000
   97      9.36407    0.00000


Forces in eV/Ang:
  0 C    -2.88699    9.85432   -6.94823
  1 C    -4.15909   -6.62970    6.72318
  2 C     1.29660   -4.17817   -1.75028
  3 C     4.17585    5.11509    2.39503
  4 C    -3.61529   -0.84492   19.26464
  5 C     0.15404   -2.25740   -0.26302
  6 C    -1.77300    2.95717   -0.88974
  7 C    -0.31756    1.20100   -2.18767
  8 C     3.32522    0.02635    2.78251
  9 C    -1.48548    2.52421   -2.34981
 10 C     1.16406   -2.35952   -3.32687
 11 C     1.24696   -2.03176    1.98717
 12 C     8.15946  -15.49974   -3.61003
 13 C    -5.01452   -4.40655    3.45182
 14 C    -2.58502   -3.71150    0.99351
 15 C     2.24973  -15.12831    1.75605
 16 C     1.39228    4.70966   -2.00083
 17 C    -1.51999    1.38715    1.19881
 18 C     1.08226    2.93890    1.47894
 19 C     3.45526    1.74589   -0.32857
 20 C     0.13687   16.19037   -1.63895
 21 C    -2.18357    3.47798    1.05097
 22 C    -7.75193    5.02948    1.09357
 23 C     5.47838   -0.21411  -18.75754

System changes: positions 

Initializing position-dependent things.

Density initialized from wave functions
           .--------------------------------------.  
          /|                                      |  
         / |                                      |  
        /  |                                      |  
       /   |                                      |  
      /    |                                      |  
     /     |                                      |  
    /      |                                      |  
   /       |         C        C                   |  
  /        |                C   C                 |  
 *         |           C CC      C                |  
 |         |    CC CC        CC   C               |  
 |         .-C--------C-C----C----C---------------.  
 |        /            C     C                   /   
 |       /        C                             /    
 |      /                                      /     
 |     /                                      /      
 |    /                                      /       
 |   /                                      /        
 |  /                                      /         
 | /                                      /          
 |/                                      /           
 *--------------------------------------*            

Positions:
   0 C      5.491756    8.268380    4.657845
   1 C      5.441889    7.439977    5.666322
   2 C      5.444274   11.334877    5.496082
   3 C      7.603829    8.282405    5.313600
   4 C     10.718436    9.244903    5.484565
   5 C      4.353553    9.327813    4.496176
   6 C      8.989733   11.278129    5.591130
   7 C      4.230801    6.732811    5.642640
   8 C      3.032561    7.561758    4.451202
   9 C     11.525315    7.356482    4.456439
  10 C      9.488311    9.834397    4.452436
  11 C     10.154030   10.639814    5.565802
  12 C      7.630325    6.529840    4.609691
  13 C      6.597758    9.813803    5.011331
  14 C     11.716410    6.401476    5.302893
  15 C     10.317841    4.129811    5.324682
  16 C      7.480343   10.660241    4.706368
  17 C      9.537735    7.905287    4.949857
  18 C      8.130363   11.804858    4.609936
  19 C      5.746475    4.332398    4.796367
  20 C     10.083751    5.318837    5.180496
  21 C      7.648675    5.068775    4.537962
  22 C      6.703922    7.379822    4.839201
  23 C     10.931017    9.379978    4.250821

Unit cell:
           periodic     x           y           z      points  spacing
  1. axis:    yes   16.000000    0.000000    0.000000    80     0.2000
  2. axis:    yes    0.000000   16.000000    0.000000    80     0.2000
  3. axis:    yes    0.000000    0.000000   10.000000    48     0.2083

Effective grid spacing dv^(1/3) = 0.2027

                     log10-error:    total        iterations:
           time      wfs    density  energy       fermi  poisson
iter:   1  14:13:18          +inf  -131.826781    3      5      
iter:   2  14:13:18         -1.43  -131.335626    3      2      
iter:   3  14:13:19         -1.76  -131.270087    2      2      
iter:   4  14:13:19         -1.99  -131.254974    2      2      
iter:   5  14:13:20         -2.10  -131.244976    2      2      
iter:   6  14:13:20         -2.21  -131.242244    2      2      
iter:   7  14:13:21         -2.31  -131.237463    2      2      
iter:   8  14:13:21         -2.48  -131.235187    2      2      
iter:   9  14:13:22         -2.70  -131.233262    2      2      
iter:  10  14:13:22         -2.85  -131.235665    2      1      
iter:  11  14:13:23         -2.92  -131.232322    2      1      
iter:  12  14:13:23         -3.04  -131.232220    2      1      
iter:  13  14:13:24         -3.15  -131.230032    2      1      
iter:  14  14:13:24         -3.27  -131.230139    2      1      
iter:  15  14:13:25         -3.40  -131.231973    2      1      
iter:  16  14:13:25         -3.59  -131.231881    2      1      
iter:  17  14:13:26         -3.73  -131.232039    2      1      
iter:  18  14:13:26         -3.91  -131.231418    2      1      
iter:  19  14:13:27         -4.05  -131.231309    2      1      

Converged after 19 iterations.

Dipole moment: (-0.496569, 0.843636, 0.145828) |e|*Ang

Energy contributions relative to reference atoms: (reference = -24663.074771)

Kinetic:       +112.455713
Potential:     -107.690724
External:        +0.000000
XC:            -138.307307
Entropy (-ST):   -0.585084
Local:           +2.603551
--------------------------
Free energy:   -131.523851
Extrapolated:  -131.231309

Fermi level: -4.97176

 Band  Eigenvalues  Occupancy
    0    -25.94240    2.00000
    1    -25.36875    2.00000
    2    -22.98581    2.00000
    3    -21.93211    2.00000
    4    -20.49417    2.00000
    5    -19.12503    2.00000
    6    -18.64178    2.00000
    7    -18.29492    2.00000
    8    -17.78475    2.00000
    9    -17.19152    2.00000
   10    -17.03947    2.00000
   11    -16.00410    2.00000
   12    -14.94250    2.00000
   13    -14.79920    2.00000
   14    -14.17403    2.00000
   15    -13.99735    2.00000
   16    -13.60039    2.00000
   17    -13.41143    2.00000
   18    -12.43435    2.00000
   19    -12.13994    2.00000
   20    -11.94582    2.00000
   21    -11.39424    2.00000
   22    -10.99842    2.00000
   23    -10.58937    2.00000
   24    -10.06891    2.00000
   25    -10.00190    2.00000
   26     -9.71452    2.00000
   27     -9.35221    2.00000
   28     -8.87101    2.00000
   29     -8.79491    2.00000
   30     -8.24721    2.00000
   31     -7.96702    2.00000
   32     -7.90023    2.00000
   33     -7.83011    2.00000
   34     -7.58668    2.00000
   35     -7.20401    2.00000
   36     -7.14224    2.00000
   37     -6.58600    2.00000
   38     -6.49532    2.00000
   39     -6.38296    2.00000
   40     -6.18662    1.99999
   41     -5.92041    1.99985
   42     -5.77520    1.99935
   43     -5.63651    1.99741
   44     -5.43425    1.98058
   45     -5.27545    1.90843
   46     -5.08273    1.50415
   47     -5.04005    1.32877
   48     -4.93832    0.83433
   49     -4.74900    0.19461
   50     -4.71064    0.13684
   51     -4.69165    0.11453
   52     -4.15984    0.00060
   53     -4.11453    0.00038
   54     -4.00969    0.00013
   55     -3.92673    0.00006
   56     -3.70629    0.00001
   57     -3.52104    0.00000
   58     -3.16520    0.00000
   59     -2.53981    0.00000
   60     -2.34735    0.00000
   61     -2.24787    0.00000
   62     -1.67565    0.00000
   63     -1.62936    0.00000
   64     -1.44886    0.00000
   65     -0.86082    0.00000
   66     -0.36653    0.00000
   67     -0.19144    0.00000
   68      0.02730    0.00000
   69      0.18597    0.00000
   70      0.69001    0.00000
   71      0.90106    0.00000
   72      1.15709    0.00000
   73      1.33385    0.00000
   74      1.41541    0.00000
   75      1.88418    0.00000
   76      2.21018    0.00000
   77      2.46422    0.00000
   78      3.34010    0.00000
   79      3.90710    0.00000
   80      4.55984    0.00000
   81      4.81786    0.00000
   82      5.46354    0.00000
   83      6.10913    0.00000
   84      6.82433    0.00000
   85      7.07818    0.00000
   86      7.41612    0.00000
   87      7.60943    0.00000
   88      7.82809    0.00000
   89      8.06148    0.00000
   90      8.17097    0.00000
   91      8.47454    0.00000
   92      8.52639    0.00000
   93      8.73422    0.00000
   94      9.08319    0.00000
   95      9.12649    0.00000
   96      9.31776    0.00000
   97      9.39614    0.00000


Forces in eV/Ang:
  0 C    -2.63040    8.31344   -5.03090
  1 C    -3.48369   -4.96198    4.48000
  2 C     1.35011   -4.14304   -1.72177
  3 C     3.42720    4.58976    2.08794
  4 C    -2.60279   -0.07615   11.13813
  5 C     0.14663   -2.22485   -0.24360
  6 C    -1.30845    2.61982   -0.80418
  7 C    -0.49330    1.22942   -2.17027
  8 C     3.28898   -0.05603    2.78041
  9 C    -1.33570    1.84057   -1.79105
 10 C     1.62527   -2.58136   -3.02208
 11 C     0.70458   -1.91347    1.77228
 12 C     4.72070  -12.00996   -2.80178
 13 C    -3.64011   -3.16301    3.06809
 14 C    -2.89576   -3.06823    0.37963
 15 C     0.73321   -7.50985    0.84921
 16 C     0.13019    3.36160   -1.55762
 17 C    -1.50944    1.73993    1.30523
 18 C     0.95454    3.06756    1.36883
 19 C     3.52168    1.72058   -0.35610
 20 C     1.90823    8.52623   -0.66168
 21 C    -2.23062    3.04869    1.02885
 22 C    -4.25507    2.63557    0.71921
 23 C     3.88763   -1.06910  -10.84807

System changes: positions 

Initializing position-dependent things.

Density initialized from wave functions
           .--------------------------------------.  
          /|                                      |  
         / |                                      |  
        /  |                                      |  
       /   |                                      |  
      /    |                                      |  
     /     |                                      |  
    /      |                                      |  
   /       |         C        C                   |  
  /        |                C   C                 |  
 *         |           C CC      C                |  
 |         |    CC CC        CC   C               |  
 |         .-C--------C-C----C----C---------------.  
 |        /            C     C                   /   
 |       /        C                             /    
 |      /                                      /     
 |     /                                      /      
 |    /                                      /       
 |   /                                      /        
 |  /                                      /         
 | /                                      /          
 |/                                      /           
 *--------------------------------------*            

Positions:
   0 C      5.481136    8.298792    4.643693
   1 C      5.429273    7.425055    5.676610
   2 C      5.450524   11.316558    5.488529
   3 C      7.615877    8.300599    5.321583
   4 C     10.711203    9.247883    5.499139
   5 C      4.354174    9.318034    4.495173
   6 C      8.985905   11.288353    5.587914
   7 C      4.227843    6.738415    5.633040
   8 C      3.047068    7.561152    4.463588
   9 C     11.520006    7.361736    4.450866
  10 C      9.497548    9.821931    4.440279
  11 C     10.154830   10.631794    5.572776
  12 C      7.636525    6.491362    4.600690
  13 C      6.587463    9.805070    5.023353
  14 C     11.702159    6.390574    5.301935
  15 C     10.314562    4.129220    5.324553
  16 C      7.475475   10.669408    4.701337
  17 C      9.531051    7.914567    4.956135
  18 C      8.134067   11.819090    4.615564
  19 C      5.762463    4.339959    4.794660
  20 C     10.099905    5.323762    5.181765
  21 C      7.638527    5.080514    4.542453
  22 C      6.700048    7.381237    4.840791
  23 C     10.941482    9.371521    4.236604

Unit cell:
           periodic     x           y           z      points  spacing
  1. axis:    yes   16.000000    0.000000    0.000000    80     0.2000
  2. axis:    yes    0.000000   16.000000    0.000000    80     0.2000
  3. axis:    yes    0.000000    0.000000   10.000000    48     0.2083

Effective grid spacing dv^(1/3) = 0.2027

                     log10-error:    total        iterations:
           time      wfs    density  energy       fermi  poisson
iter:   1  14:13:28          +inf  -133.836841    3      5      
iter:   2  14:13:29         -1.56  -133.588939    3      2      
iter:   3  14:13:29         -1.85  -133.562793    2      2      
iter:   4  14:13:30         -2.09  -133.544566    2      2      
iter:   5  14:13:30         -2.20  -133.541415    2      2      
iter:   6  14:13:31         -2.30  -133.537680    2      2      
iter:   7  14:13:31         -2.42  -133.535289    2      2      
iter:   8  14:13:32         -2.58  -133.534734    2      2      
iter:   9  14:13:32         -2.75  -133.534021    2      2      
iter:  10  14:13:33         -2.86  -133.534015    2      2      
iter:  11  14:13:33         -3.06  -133.534144    1      1      
iter:  12  14:13:34         -3.16  -133.534523    2      1      
iter:  13  14:13:34         -3.31  -133.534403    2      1      
iter:  14  14:13:35         -3.46  -133.533997    2      1      
iter:  15  14:13:35         -3.59  -133.533967    2      1      
iter:  16  14:13:35         -3.69  -133.533899    2      1      
iter:  17  14:13:36         -3.80  -133.533980    2      1      
iter:  18  14:13:36         -3.99  -133.533965    2      1      
iter:  19  14:13:37         -4.15  -133.533846    1      1      

Converged after 19 iterations.

Dipole moment: (-0.460831, 0.832278, 0.145090) |e|*Ang

Energy contributions relative to reference atoms: (reference = -24663.074771)

Kinetic:        +99.384367
Potential:      -98.458728
External:        +0.000000
XC:            -136.787225
Entropy (-ST):   -0.572507
Local:           +2.613992
--------------------------
Free energy:   -133.820100
Extrapolated:  -133.533846

Fermi level: -4.97074

 Band  Eigenvalues  Occupancy
    0    -25.77164    2.00000
    1    -24.97796    2.00000
    2    -22.91334    2.00000
    3    -21.57973    2.00000
    4    -20.40495    2.00000
    5    -19.12737    2.00000
    6    -18.62090    2.00000
    7    -18.36711    2.00000
    8    -17.72582    2.00000
    9    -17.34338    2.00000
   10    -17.13426    2.00000
   11    -15.99066    2.00000
   12    -14.87945    2.00000
   13    -14.76745    2.00000
   14    -14.25635    2.00000
   15    -13.98684    2.00000
   16    -13.64645    2.00000
   17    -13.48588    2.00000
   18    -12.34352    2.00000
   19    -12.12484    2.00000
   20    -11.84013    2.00000
   21    -11.29257    2.00000
   22    -10.88109    2.00000
   23    -10.56296    2.00000
   24    -10.12685    2.00000
   25     -9.98676    2.00000
   26     -9.73486    2.00000
   27     -9.35167    2.00000
   28     -8.87940    2.00000
   29     -8.76402    2.00000
   30     -8.26156    2.00000
   31     -7.94305    2.00000
   32     -7.92462    2.00000
   33     -7.84909    2.00000
   34     -7.59467    2.00000
   35     -7.21111    2.00000
   36     -7.17268    2.00000
   37     -6.69248    2.00000
   38     -6.54379    2.00000
   39     -6.45152    2.00000
   40     -6.21386    1.99999
   41     -5.94086    1.99988
   42     -5.75505    1.99922
   43     -5.64835    1.99772
   44     -5.41725    1.97725
   45     -5.31527    1.93818
   46     -5.07867    1.49272
   47     -5.03249    1.29929
   48     -4.94530    0.87350
   49     -4.74648    0.19199
   50     -4.72708    0.16086
   51     -4.63642    0.06824
   52     -4.16998    0.00067
   53     -4.08874    0.00030
   54     -4.01570    0.00014
   55     -3.89010    0.00004
   56     -3.71952    0.00001
   57     -3.44102    0.00000
   58     -3.21412    0.00000
   59     -2.48951    0.00000
   60     -2.22562    0.00000
   61     -2.21043    0.00000
   62     -1.65129    0.00000
   63     -1.60407    0.00000
   64     -1.35599    0.00000
   65     -0.81112    0.00000
   66     -0.23001    0.00000
   67     -0.18819    0.00000
   68      0.05209    0.00000
   69      0.27441    0.00000
   70      0.61557    0.00000
   71      0.94985    0.00000
   72      1.12592    0.00000
   73      1.34110    0.00000
   74      1.46671    0.00000
   75      1.88629    0.00000
   76      2.16340    0.00000
   77      2.44250    0.00000
   78      3.30797    0.00000
   79      4.03188    0.00000
   80      4.62965    0.00000
   81      4.80046    0.00000
   82      5.58562    0.00000
   83      6.06088    0.00000
   84      6.70415    0.00000
   85      6.99877    0.00000
   86      7.36662    0.00000
   87      7.73333    0.00000
   88      7.85589    0.00000
   89      8.16060    0.00000
   90      8.25930    0.00000
   91      8.44977    0.00000
   92      8.62680    0.00000
   93      8.73397    0.00000
   94      9.05063    0.00000
   95      9.11154    0.00000
   96      9.26593    0.00000
   97      9.39934    0.00000


Forces in eV/Ang:
  0 C    -2.04934    6.86770   -3.23702
  1 C    -2.35441   -3.43154    2.42140
  2 C     1.34931   -4.07810   -1.66432
  3 C     2.47401    3.94721    1.76475
  4 C    -2.51534    0.02244    8.96094
  5 C     0.00551   -2.07626   -0.23498
  6 C    -0.67009    2.15351   -0.59864
  7 C    -0.89612    1.18180   -2.17563
  8 C     3.28528   -0.16076    2.79920
  9 C    -1.20938    1.24509   -1.27020
 10 C     1.75667   -2.56887   -2.86982
 11 C    -0.10190   -1.48929    1.54211
 12 C     2.64732   -9.58573   -2.32154
 13 C    -2.68050   -2.34973    2.75098
 14 C    -3.24481   -2.47622   -0.23239
 15 C     0.53217   -7.34425    0.81792
 16 C    -0.42228    2.91949   -1.29890
 17 C    -1.52912    2.05919    1.35559
 18 C     0.53023    2.58743    1.24359
 19 C     3.69264    1.70063   -0.41680
 20 C     2.48039    8.42079   -0.56678
 21 C    -2.46485    1.99510    0.91788
 22 C    -2.16718    2.00465    0.94064
 23 C     3.58436   -1.52270   -8.68347

System changes: positions 

Initializing position-dependent things.

Density initialized from wave functions
           .--------------------------------------.  
          /|                                      |  
         / |                                      |  
        /  |                                      |  
       /   |                                      |  
      /    |                                      |  
     /     |                                      |  
    /      |                                      |  
   /       |         C        C                   |  
  /        |                C   C                 |  
 *         |           C CC      C                |  
 |         |    CC CC        CC   C               |  
 |         .-C--------C-C----C---CC---------------.  
 |        /            C     C                   /   
 |       /        C                             /    
 |      /                                      /     
 |     /                                      /      
 |    /                                      /       
 |   /                                      /        
 |  /                                      /         
 | /                                      /          
 |/                                      /           
 *--------------------------------------*            

Positions:
   0 C      5.471017    8.331668    4.637966
   1 C      5.421194    7.415870    5.674415
   2 C      5.459707   11.289932    5.477850
   3 C      7.625126    8.321857    5.330621
   4 C     10.699394    9.251859    5.513562
   5 C      4.353613    9.305006    4.493736
   6 C      8.986089   11.299261    5.585149
   7 C      4.219505    6.746188    5.618669
   8 C      3.068676    7.559299    4.482216
   9 C     11.513161    7.364558    4.447022
  10 C      9.511781    9.803956    4.423219
  11 C     10.148506   10.624144    5.581121
  12 C      7.630430    6.453079    4.590826
  13 C      6.579665    9.798295    5.038612
  14 C     11.677858    6.379394    5.295205
  15 C     10.310515    4.115202    5.325802
  16 C      7.464829   10.680979    4.695738
  17 C      9.520879    7.931074    4.965801
  18 C      8.135316   11.834901    4.622817
  19 C      5.787929    4.351043    4.791531
  20 C     10.126551    5.344956    5.182750
  21 C      7.621036    5.087612    4.547997
  22 C      6.709644    7.381317    4.846243
  23 C     10.956933    9.355791    4.223001

Unit cell:
           periodic     x           y           z      points  spacing
  1. axis:    yes   16.000000    0.000000    0.000000    80     0.2000
  2. axis:    yes    0.000000   16.000000    0.000000    80     0.2000
  3. axis:    yes    0.000000    0.000000   10.000000    48     0.2083

Effective grid spacing dv^(1/3) = 0.2027

                     log10-error:    total        iterations:
           time      wfs    density  energy       fermi  poisson
iter:   1  14:13:38          +inf  -136.277326    3      5      
iter:   2  14:13:39         -1.55  -136.032310    3      2      
iter:   3  14:13:39         -1.84  -135.998835    2      2      
iter:   4  14:13:40         -2.03  -135.970884    2      2      
iter:   5  14:13:40         -2.20  -135.968611    2      2      
iter:   6  14:13:41         -2.28  -135.964299    2      2      
iter:   7  14:13:41         -2.41  -135.962388    2      2      
iter:   8  14:13:42         -2.57  -135.961779    2      2      
iter:   9  14:13:42         -2.72  -135.961352    2      2      
iter:  10  14:13:43         -2.84  -135.959841    2      1      
iter:  11  14:13:43         -2.96  -135.960931    2      2      
iter:  12  14:13:44         -3.09  -135.960489    2      1      
iter:  13  14:13:44         -3.23  -135.960655    2      1      
iter:  14  14:13:45         -3.34  -135.960818    2      1      
iter:  15  14:13:45         -3.48  -135.960975    2      1      
iter:  16  14:13:46         -3.63  -135.961103    2      1      
iter:  17  14:13:46         -3.75  -135.961178    2      1      
iter:  18  14:13:47         -3.85  -135.961162    2      1      
iter:  19  14:13:47         -4.09  -135.961178    1      1      

Converged after 19 iterations.

Dipole moment: (-0.370100, 0.793376, 0.152342) |e|*Ang

Energy contributions relative to reference atoms: (reference = -24663.074771)

Kinetic:        +88.794507
Potential:      -91.095041
External:        +0.000000
XC:            -135.987159
Entropy (-ST):   -0.572310
Local:           +2.612670
--------------------------
Free energy:   -136.247333
Extrapolated:  -135.961178

Fermi level: -4.96397

 Band  Eigenvalues  Occupancy
    0    -25.59908    2.00000
    1    -24.65743    2.00000
    2    -22.80670    2.00000
    3    -21.36388    2.00000
    4    -20.37692    2.00000
    5    -19.15514    2.00000
    6    -18.65785    2.00000
    7    -18.45567    2.00000
    8    -17.60822    2.00000
    9    -17.49771    2.00000
   10    -17.16044    2.00000
   11    -16.00086    2.00000
   12    -14.93673    2.00000
   13    -14.71542    2.00000
   14    -14.35115    2.00000
   15    -13.98521    2.00000
   16    -13.70321    2.00000
   17    -13.55636    2.00000
   18    -12.31526    2.00000
   19    -12.07180    2.00000
   20    -11.75721    2.00000
   21    -11.20759    2.00000
   22    -10.78776    2.00000
   23    -10.55946    2.00000
   24    -10.32390    2.00000
   25    -10.01068    2.00000
   26     -9.73347    2.00000
   27     -9.36296    2.00000
   28     -8.89653    2.00000
   29     -8.74074    2.00000
   30     -8.28096    2.00000
   31     -8.01995    2.00000
   32     -7.93871    2.00000
   33     -7.80207    2.00000
   34     -7.58932    2.00000
   35     -7.24414    2.00000
   36     -7.22077    2.00000
   37     -6.81299    2.00000
   38     -6.60699    2.00000
   39     -6.53451    2.00000
   40     -6.26232    2.00000
   41     -5.95069    1.99990
   42     -5.74945    1.99922
   43     -5.66621    1.99822
   44     -5.40573    1.97616
   45     -5.33690    1.95311
   46     -5.06164    1.45290
   47     -5.02037    1.27476
   48     -4.94741    0.91741
   49     -4.75136    0.21317
   50     -4.72450    0.16716
   51     -4.59095    0.04685
   52     -4.18229    0.00081
   53     -4.05384    0.00022
   54     -3.95526    0.00008
   55     -3.82961    0.00002
   56     -3.70890    0.00001
   57     -3.34845    0.00000
   58     -3.18577    0.00000
   59     -2.42447    0.00000
   60     -2.12637    0.00000
   61     -2.07463    0.00000
   62     -1.63694    0.00000
   63     -1.52106    0.00000
   64     -1.22904    0.00000
   65     -0.77055    0.00000
   66     -0.22675    0.00000
   67     -0.10055    0.00000
   68      0.18474    0.00000
   69      0.45950    0.00000
   70      0.57208    0.00000
   71      0.99341    0.00000
   72      1.11871    0.00000
   73      1.26512    0.00000
   74      1.73489    0.00000
   75      1.78017    0.00000
   76      2.15434    0.00000
   77      2.48067    0.00000
   78      3.35199    0.00000
   79      4.22551    0.00000
   80      4.74849    0.00000
   81      4.85005    0.00000
   82      5.66026    0.00000
   83      6.04569    0.00000
   84      6.58730    0.00000
   85      6.98738    0.00000
   86      7.32239    0.00000
   87      7.79845    0.00000
   88      7.88860    0.00000
   89      8.15411    0.00000
   90      8.36489    0.00000
   91      8.44763    0.00000
   92      8.71086    0.00000
   93      8.78952    0.00000
   94      9.01491    0.00000
   95      9.11146    0.00000
   96      9.25952    0.00000
   97      9.41031    0.00000


Forces in eV/Ang:
  0 C    -1.48917    6.01963   -2.18576
  1 C    -1.38031   -2.62495    1.15775
  2 C     1.35482   -4.02984   -1.57972
  3 C     1.85768    3.63792    1.59275
  4 C    -2.54842    0.04183    7.12427
  5 C    -0.25016   -1.76384   -0.28039
  6 C    -0.44240    1.91394   -0.43979
  7 C    -1.30640    1.22028   -2.28648
  8 C     3.32119   -0.33057    2.83438
  9 C    -1.13003    1.02233   -1.03849
 10 C     1.83575   -2.56598   -2.72213
 11 C    -0.55503   -1.25882    1.24682
 12 C     1.44930   -7.82544   -2.01052
 13 C    -2.00970   -1.86967    2.51951
 14 C    -3.69096   -2.24666   -0.60071
 15 C    -0.10852   -4.67695    0.47870
 16 C    -0.64572    2.82612   -1.14758
 17 C    -1.51461    2.51065    1.44152
 18 C     0.18073    1.98506    1.20046
 19 C     3.96662    1.72740   -0.48192
 20 C     3.64039    5.88270   -0.10113
 21 C    -2.86861    0.63177    0.80896
 22 C    -1.05250    1.85220    1.23062
 23 C     3.34800   -2.01288   -6.74843

System changes: positions 

Initializing position-dependent things.

Density initialized from wave functions
           .--------------------------------------.  
          /|                                      |  
         / |                                      |  
        /  |                                      |  
       /   |                                      |  
      /    |                                      |  
     /     |                                      |  
    /      |                                      |  
   /       |         C        C                   |  
  /        |                C   C                 |  
 *         |           C CC      C                |  
 |         |   C C CC        CC   C               |  
 |         .-C--------C-C----C---CC---------------.  
 |        /            C     C                   /   
 |       /        C                             /    
 |      /                                      /     
 |     /                                      /      
 |    /                                      /       
 |   /                                      /        
 |  /                                      /         
 | /                                      /          
 |/                                      /           
 *--------------------------------------*            

Positions:
   0 C      5.463153    8.366439    4.634351
   1 C      5.417631    7.407056    5.668225
   2 C      5.470025   11.260158    5.466419
   3 C      7.633060    8.345155    5.340396
   4 C     10.683887    9.255024    5.531071
   5 C      4.350931    9.292825    4.491650
   6 C      8.986339   11.310860    5.582934
   7 C      4.207436    6.755352    5.601429
   8 C      3.093443    7.556002    4.503512
   9 C     11.505665    7.368031    4.442836
  10 C      9.527518    9.784062    4.404515
  11 C     10.139732   10.616590    5.588648
  12 C      7.622496    6.415332    4.580233
  13 C      6.572792    9.791341    5.054978
  14 C     11.647583    6.366633    5.286487
  15 C     10.303053    4.110565    5.325705
  16 C      7.454002   10.696328    4.689548
  17 C      9.509562    7.952596    4.977209
  18 C      8.134576   11.847947    4.631036
  19 C      5.818709    4.363871    4.787571
  20 C     10.163091    5.358825    5.186280
  21 C      7.598154    5.085941    4.553509
  22 C      6.720637    7.385307    4.855243
  23 C     10.975488    9.335907    4.207710

Unit cell:
           periodic     x           y           z      points  spacing
  1. axis:    yes   16.000000    0.000000    0.000000    80     0.2000
  2. axis:    yes    0.000000   16.000000    0.000000    80     0.2000
  3. axis:    yes    0.000000    0.000000   10.000000    48     0.2083

Effective grid spacing dv^(1/3) = 0.2027

                     log10-error:    total        iterations:
           time      wfs    density  energy       fermi  poisson
iter:   1  14:13:49          +inf  -138.701540    2      5      
iter:   2  14:13:49         -1.56  -138.447179    3      2      
iter:   3  14:13:50         -1.84  -138.416878    2      2      
iter:   4  14:13:50         -1.99  -138.387803    2      2      
iter:   5  14:13:51         -2.15  -138.381507    2      2      
iter:   6  14:13:51         -2.25  -138.375919    2      2      
iter:   7  14:13:52         -2.39  -138.374054    2      2      
iter:   8  14:13:52         -2.56  -138.374020    2      2      
iter:   9  14:13:53         -2.70  -138.373429    2      2      
iter:  10  14:13:53         -2.87  -138.371694    2      1      
iter:  11  14:13:54         -2.96  -138.371468    2      1      
iter:  12  14:13:54         -3.08  -138.372505    2      1      
iter:  13  14:13:54         -3.21  -138.373252    2      1      
iter:  14  14:13:55         -3.29  -138.373318    2      1      
iter:  15  14:13:55         -3.43  -138.372763    2      1      
iter:  16  14:13:56         -3.60  -138.372499    1      1      
iter:  17  14:13:56         -3.83  -138.373406    2      1      
iter:  18  14:13:57         -3.96  -138.373878    1      1      
iter:  19  14:13:57         -4.09  -138.373888    1      1      

Converged after 19 iterations.

Dipole moment: (-0.269361, 0.761862, 0.156010) |e|*Ang

Energy contributions relative to reference atoms: (reference = -24663.074771)

Kinetic:        +80.922335
Potential:      -85.731532
External:        +0.000000
XC:            -135.904314
Entropy (-ST):   -0.568563
Local:           +2.623904
--------------------------
Free energy:   -138.658170
Extrapolated:  -138.373888

Fermi level: -4.96296

 Band  Eigenvalues  Occupancy
    0    -25.39633    2.00000
    1    -24.39321    2.00000
    2    -22.72901    2.00000
    3    -21.18761    2.00000
    4    -20.36448    2.00000
    5    -19.21049    2.00000
    6    -18.77189    2.00000
    7    -18.52719    2.00000
    8    -17.65156    2.00000
    9    -17.51719    2.00000
   10    -17.17156    2.00000
   11    -16.00556    2.00000
   12    -15.03235    2.00000
   13    -14.68738    2.00000
   14    -14.40861    2.00000
   15    -13.99462    2.00000
   16    -13.77540    2.00000
   17    -13.61153    2.00000
   18    -12.36665    2.00000
   19    -12.02760    2.00000
   20    -11.68065    2.00000
   21    -11.17454    2.00000
   22    -10.69651    2.00000
   23    -10.57304    2.00000
   24    -10.50654    2.00000
   25    -10.04797    2.00000
   26     -9.71451    2.00000
   27     -9.37087    2.00000
   28     -8.91955    2.00000
   29     -8.71317    2.00000
   30     -8.30910    2.00000
   31     -8.15074    2.00000
   32     -7.94132    2.00000
   33     -7.76571    2.00000
   34     -7.54541    2.00000
   35     -7.30470    2.00000
   36     -7.25122    2.00000
   37     -6.93545    2.00000
   38     -6.69511    2.00000
   39     -6.63755    2.00000
   40     -6.29953    2.00000
   41     -5.97337    1.99992
   42     -5.74404    1.99919
   43     -5.70737    1.99883
   44     -5.41072    1.97753
   45     -5.35859    1.96245
   46     -5.06145    1.45616
   47     -5.01301    1.24516
   48     -4.94637    0.91726
   49     -4.77003    0.25366
   50     -4.71719    0.15776
   51     -4.54765    0.03095
   52     -4.19214    0.00090
   53     -4.02698    0.00017
   54     -3.86967    0.00004
   55     -3.78592    0.00002
   56     -3.65099    0.00000
   57     -3.28258    0.00000
   58     -3.08215    0.00000
   59     -2.34328    0.00000
   60     -2.04206    0.00000
   61     -1.90287    0.00000
   62     -1.59771    0.00000
   63     -1.42533    0.00000
   64     -1.09204    0.00000
   65     -0.71875    0.00000
   66     -0.26497    0.00000
   67     -0.06483    0.00000
   68      0.38468    0.00000
   69      0.58882    0.00000
   70      0.67024    0.00000
   71      1.00967    0.00000
   72      1.20920    0.00000
   73      1.30480    0.00000
   74      1.73202    0.00000
   75      2.12401    0.00000
   76      2.20207    0.00000
   77      2.63036    0.00000
   78      3.46134    0.00000
   79      4.53980    0.00000
   80      4.88668    0.00000
   81      5.03929    0.00000
   82      5.62281    0.00000
   83      6.03326    0.00000
   84      6.48784    0.00000
   85      6.99777    0.00000
   86      7.27731    0.00000
   87      7.87308    0.00000
   88      7.91989    0.00000
   89      8.16127    0.00000
   90      8.39187    0.00000
   91      8.46344    0.00000
   92      8.72035    0.00000
   93      8.83323    0.00000
   94      8.97845    0.00000
   95      9.11812    0.00000
   96      9.24812    0.00000
   97      9.42513    0.00000


Forces in eV/Ang:
  0 C    -0.92126    5.33143   -1.28042
  1 C    -0.59228   -2.02779    0.10271
  2 C     1.38699   -3.96674   -1.47163
  3 C     1.42550    3.35496    1.40543
  4 C    -2.44565   -0.00788    5.22101
  5 C    -0.56859   -1.36487   -0.29960
  6 C    -0.21209    1.67867   -0.25387
  7 C    -1.64652    1.41591   -2.39497
  8 C     3.40422   -0.57298    2.90215
  9 C    -1.09824    0.85935   -0.80754
 10 C     1.91403   -2.62662   -2.52206
 11 C    -0.90121   -1.03430    0.92865
 12 C     0.45567   -5.79529   -1.66940
 13 C    -1.39427   -1.36527    2.20182
 14 C    -4.09745   -1.98905   -0.95164
 15 C    -0.43750   -3.70118    0.34402
 16 C    -1.02922    2.46395   -1.00640
 17 C    -1.45504    2.99616    1.48491
 18 C    -0.02981    1.61452    1.07099
 19 C     4.26463    1.76883   -0.55209
 20 C     4.46493    5.00908    0.14041
 21 C    -3.40398   -0.85341    0.68748
 22 C    -0.08139    1.28524    1.44982
 23 C     3.03468   -2.43311   -4.77395

System changes: positions 

Initializing position-dependent things.

Density initialized from wave functions
           .--------------------------------------.  
          /|                                      |  
         / |                                      |  
        /  |                                      |  
       /   |                                      |  
      /    |                                      |  
     /     |                                      |  
    /      |                                      |  
   /       |         C        C                   |  
  /        |                C   C                 |  
 *         |           C CC      C                |  
 |         |   C C CC        CC   C               |  
 |         .-C--------C------C---CC---------------.  
 |        /            CC    C                   /   
 |       /        C                             /    
 |      /                                      /     
 |     /                                      /      
 |    /                                      /       
 |   /                                      /        
 |  /                                      /         
 | /                                      /          
 |/                                      /           
 *--------------------------------------*            

Positions:
   0 C      5.457973    8.398800    4.631825
   1 C      5.416202    7.398270    5.661405
   2 C      5.479960   11.232401    5.456232
   3 C      7.640439    8.366879    5.349188
   4 C     10.669500    9.256982    5.544256
   5 C      4.346636    9.283628    4.489603
   6 C      8.986573   11.321394    5.581602
   7 C      4.195012    6.765545    5.584560
   8 C      3.117379    7.551532    4.524001
   9 C     11.498392    7.371873    4.439049
  10 C      9.542320    9.764932    4.387775
  11 C     10.131358   10.609986    5.594318
  12 C      7.615047    6.386292    4.571075
  13 C      6.567434    9.785746    5.069079
  14 C     11.617535    6.354822    5.277641
  15 C     10.295899    4.104053    5.325786
  16 C      7.442834   10.709546    4.683846
  17 C      9.499386    7.975060    4.987970
  18 C      8.133746   11.859309    4.638100
  19 C      5.849168    4.376274    4.783539
  20 C     10.199718    5.374496    5.189872
  21 C      7.573595    5.077386    4.558157
  22 C      6.730907    7.387191    4.864672
  23 C     10.992308    9.316096    4.197114

Unit cell:
           periodic     x           y           z      points  spacing
  1. axis:    yes   16.000000    0.000000    0.000000    80     0.2000
  2. axis:    yes    0.000000   16.000000    0.000000    80     0.2000
  3. axis:    yes    0.000000    0.000000   10.000000    48     0.2083

Effective grid spacing dv^(1/3) = 0.2027

                     log10-error:    total        iterations:
           time      wfs    density  energy       fermi  poisson
iter:   1  14:13:59          +inf  -140.796060    2      5      
iter:   2  14:13:59         -1.61  -140.595837    2      2      
iter:   3  14:14:00         -1.89  -140.568761    3      2      
iter:   4  14:14:00         -2.01  -140.539343    2      2      
iter:   5  14:14:01         -2.20  -140.534705    2      2      
iter:   6  14:14:01         -2.29  -140.528521    2      2      
iter:   7  14:14:02         -2.48  -140.528090    2      2      
iter:   8  14:14:02         -2.60  -140.527600    2      2      
iter:   9  14:14:03         -2.78  -140.527419    2      2      
iter:  10  14:14:03         -2.94  -140.524652    2      1      
iter:  11  14:14:04         -3.07  -140.525571    2      1      
iter:  12  14:14:04         -3.19  -140.526588    2      1      
iter:  13  14:14:05         -3.29  -140.527066    2      1      
iter:  14  14:14:05         -3.46  -140.527056    2      1      
iter:  15  14:14:06         -3.58  -140.527215    2      1      
iter:  16  14:14:06         -3.70  -140.527099    2      1      
iter:  17  14:14:07         -3.88  -140.527294    2      1      
iter:  18  14:14:07         -4.13  -140.527652    1      1      

Converged after 18 iterations.

Dipole moment: (-0.163545, 0.720914, 0.161059) |e|*Ang

Energy contributions relative to reference atoms: (reference = -24663.074771)

Kinetic:        +74.706264
Potential:      -81.520091
External:        +0.000000
XC:            -136.057099
Entropy (-ST):   -0.565919
Local:           +2.626233
--------------------------
Free energy:   -140.810612
Extrapolated:  -140.527652

Fermi level: -4.96023

 Band  Eigenvalues  Occupancy
    0    -25.23756    2.00000
    1    -24.16475    2.00000
    2    -22.65953    2.00000
    3    -21.06647    2.00000
    4    -20.37532    2.00000
    5    -19.27659    2.00000
    6    -18.89601    2.00000
    7    -18.56314    2.00000
    8    -17.72807    2.00000
    9    -17.45566    2.00000
   10    -17.16579    2.00000
   11    -16.01767    2.00000
   12    -15.12176    2.00000
   13    -14.73809    2.00000
   14    -14.38826    2.00000
   15    -14.03543    2.00000
   16    -13.82163    2.00000
   17    -13.64573    2.00000
   18    -12.43324    2.00000
   19    -12.00443    2.00000
   20    -11.63219    2.00000
   21    -11.26737    2.00000
   22    -10.70299    2.00000
   23    -10.59118    2.00000
   24    -10.48441    2.00000
   25    -10.08097    2.00000
   26     -9.68949    2.00000
   27     -9.37964    2.00000
   28     -8.93991    2.00000
   29     -8.69257    2.00000
   30     -8.33738    2.00000
   31     -8.25822    2.00000
   32     -7.95007    2.00000
   33     -7.77282    2.00000
   34     -7.47669    2.00000
   35     -7.35551    2.00000
   36     -7.28427    2.00000
   37     -7.02881    2.00000
   38     -6.77929    2.00000
   39     -6.74090    2.00000
   40     -6.33456    2.00000
   41     -6.00064    1.99994
   42     -5.76203    1.99934
   43     -5.72121    1.99901
   44     -5.40613    1.97712
   45     -5.36915    1.96705
   46     -5.06513    1.48117
   47     -5.00394    1.21516
   48     -4.94021    0.90022
   49     -4.78133    0.28639
   50     -4.70961    0.15085
   51     -4.51367    0.02273
   52     -4.18499    0.00086
   53     -4.00295    0.00014
   54     -3.82091    0.00002
   55     -3.71057    0.00001
   56     -3.55495    0.00000
   57     -3.21714    0.00000
   58     -2.97008    0.00000
   59     -2.25680    0.00000
   60     -1.96876    0.00000
   61     -1.73481    0.00000
   62     -1.53745    0.00000
   63     -1.33985    0.00000
   64     -0.97742    0.00000
   65     -0.67065    0.00000
   66     -0.33339    0.00000
   67     -0.04600    0.00000
   68      0.49760    0.00000
   69      0.61857    0.00000
   70      0.85449    0.00000
   71      1.04640    0.00000
   72      1.27942    0.00000
   73      1.54327    0.00000
   74      1.71311    0.00000
   75      2.21828    0.00000
   76      2.44557    0.00000
   77      2.90646    0.00000
   78      3.62955    0.00000
   79      4.71623    0.00000
   80      5.03395    0.00000
   81      5.44691    0.00000
   82      5.59073    0.00000
   83      6.02156    0.00000
   84      6.42163    0.00000
   85      6.99673    0.00000
   86      7.24845    0.00000
   87      7.92447    0.00000
   88      7.97805    0.00000
   89      8.19281    0.00000
   90      8.41205    0.00000
   91      8.48556    0.00000
   92      8.72065    0.00000
   93      8.83453    0.00000
   94      8.94897    0.00000
   95      9.12673    0.00000
   96      9.21856    0.00000
   97      9.42787    0.00000


Forces in eV/Ang:
  0 C    -0.49202    4.73070   -0.50771
  1 C     0.06065   -1.51158   -0.73973
  2 C     1.37385   -3.93380   -1.34445
  3 C     1.08536    2.89683    1.18258
  4 C    -2.32928   -0.16007    4.02302
  5 C    -0.88587   -0.96003   -0.29921
  6 C     0.00473    1.45739   -0.11131
  7 C    -1.95808    1.63078   -2.49802
  8 C     3.49101   -0.82820    2.95886
  9 C    -1.07512    0.78133   -0.60567
 10 C     1.96003   -2.67735   -2.33922
 11 C    -1.18985   -0.80699    0.67016
 12 C    -0.08391   -4.24750   -1.35684
 13 C    -1.07318   -1.07115    1.90942
 14 C    -4.38345   -1.76092   -1.24815
 15 C    -0.68529   -2.38706    0.18867
 16 C    -1.20059    2.27756   -0.91307
 17 C    -1.43805    3.38185    1.49187
 18 C    -0.22756    1.27983    0.99630
 19 C     4.63842    1.79990   -0.63632
 20 C     5.02555    3.77024    0.36828
 21 C    -3.94187   -1.94501    0.63704
 22 C     0.52815    0.88003    1.68575
 23 C     2.81857   -2.70803   -3.48283

System changes: positions 

Initializing position-dependent things.

Density initialized from wave functions
           .--------------------------------------.  
          /|                                      |  
         / |                                      |  
        /  |                                      |  
       /   |                                      |  
      /    |                                      |  
     /     |                                      |  
    /      |                                      |  
   /       |         C        C                   |  
  /        |                C   C                 |  
 *         |           C CC      C                |  
 |         |   C C CC        CC   C               |  
 |         .-C--------C------C---CC---------------.  
 |        /            CC    C                   /   
 |       /        C                             /    
 |      /                                      /     
 |     /                                      /      
 |    /                                      /       
 |   /                                      /        
 |  /                                      /         
 | /                                      /          
 |/                                      /           
 *--------------------------------------*            

Positions:
   0 C      5.453854    8.430665    4.630641
   1 C      5.416242    7.389791    5.653453
   2 C      5.489824   11.204210    5.446596
   3 C      7.647739    8.386502    5.357116
   4 C     10.655368    9.257345    5.558507
   5 C      4.340671    9.276379    4.487643
   6 C      8.987323   11.331439    5.580675
   7 C      4.181364    6.777342    5.566932
   8 C      3.142243    7.545626    4.545101
   9 C     11.490878    7.376419    4.435601
  10 C      9.557223    9.745241    4.371506
  11 C     10.122478   10.604130    5.599209
  12 C      7.609395    6.360368    4.562716
  13 C      6.561237    9.779796    5.082217
  14 C     11.586463    6.343333    5.267987
  15 C     10.288894    4.099914    5.325675
  16 C      7.431995   10.723035    4.678002
  17 C      9.489034    7.999140    4.998646
  18 C      8.132492   11.869966    4.645099
  19 C      5.882225    4.389030    4.778996
  20 C     10.237111    5.388136    5.193837
  21 C      7.545872    5.065470    4.562982
  22 C      6.740247    7.388215    4.875375
  23 C     11.009303    9.295879    4.186082

Unit cell:
           periodic     x           y           z      points  spacing
  1. axis:    yes   16.000000    0.000000    0.000000    80     0.2000
  2. axis:    yes    0.000000   16.000000    0.000000    80     0.2000
  3. axis:    yes    0.000000    0.000000   10.000000    48     0.2083

Effective grid spacing dv^(1/3) = 0.2027

                     log10-error:    total        iterations:
           time      wfs    density  energy       fermi  poisson
iter:   1  14:14:08          +inf  -142.984252    3      5      
iter:   2  14:14:09         -1.57  -142.726543    2      2      
iter:   3  14:14:09         -1.88  -142.696431    2      2      
iter:   4  14:14:10         -1.99  -142.662181    2      2      
iter:   5  14:14:10         -2.19  -142.657411    2      2      
iter:   6  14:14:11         -2.27  -142.650730    2      2      
iter:   7  14:14:11         -2.45  -142.650531    2      2      
iter:   8  14:14:12         -2.55  -142.649005    2      2      
iter:   9  14:14:12         -2.77  -142.649234    2      2      
iter:  10  14:14:13         -2.93  -142.646594    2      1      
iter:  11  14:14:13         -3.05  -142.647287    2      1      
iter:  12  14:14:14         -3.19  -142.648252    2      1      
iter:  13  14:14:14         -3.28  -142.648543    2      1      
iter:  14  14:14:15         -3.46  -142.648642    2      1      
iter:  15  14:14:15         -3.60  -142.648855    2      1      
iter:  16  14:14:16         -3.76  -142.649202    2      1      
iter:  17  14:14:16         -3.88  -142.649472    2      1      
iter:  18  14:14:17         -4.14  -142.649565    2      1      

Converged after 18 iterations.

Dipole moment: (-0.057782, 0.677706, 0.165033) |e|*Ang

Energy contributions relative to reference atoms: (reference = -24663.074771)

Kinetic:        +69.665229
Potential:      -78.176999
External:        +0.000000
XC:            -136.490091
Entropy (-ST):   -0.559994
Local:           +2.632293
--------------------------
Free energy:   -142.929562
Extrapolated:  -142.649565

Fermi level: -4.96061

 Band  Eigenvalues  Occupancy
    0    -25.06393    2.00000
    1    -23.96009    2.00000
    2    -22.59697    2.00000
    3    -20.97998    2.00000
    4    -20.39130    2.00000
    5    -19.36587    2.00000
    6    -19.02830    2.00000
    7    -18.59219    2.00000
    8    -17.78924    2.00000
    9    -17.41010    2.00000
   10    -17.16401    2.00000
   11    -16.02927    2.00000
   12    -15.20237    2.00000
   13    -14.81693    2.00000
   14    -14.34331    2.00000
   15    -14.12027    2.00000
   16    -13.83198    2.00000
   17    -13.66750    2.00000
   18    -12.51586    2.00000
   19    -12.01326    2.00000
   20    -11.68525    2.00000
   21    -11.40560    2.00000
   22    -10.70537    2.00000
   23    -10.51426    2.00000
   24    -10.42418    2.00000
   25    -10.10700    2.00000
   26     -9.66661    2.00000
   27     -9.38309    2.00000
   28     -8.96083    2.00000
   29     -8.68688    2.00000
   30     -8.38036    2.00000
   31     -8.30882    2.00000
   32     -7.96080    2.00000
   33     -7.81729    2.00000
   34     -7.45644    2.00000
   35     -7.36378    2.00000
   36     -7.31392    2.00000
   37     -7.11559    2.00000
   38     -6.86202    2.00000
   39     -6.84148    2.00000
   40     -6.36232    2.00000
   41     -6.03649    1.99996
   42     -5.80443    1.99957
   43     -5.70739    1.99886
   44     -5.42716    1.98134
   45     -5.35435    1.96174
   46     -5.07684    1.52349
   47     -4.99435    1.16710
   48     -4.94376    0.91593
   49     -4.78142    0.28567
   50     -4.70827    0.14846
   51     -4.48495    0.01704
   52     -4.16611    0.00071
   53     -3.98871    0.00012
   54     -3.76593    0.00001
   55     -3.61440    0.00000
   56     -3.44767    0.00000
   57     -3.13519    0.00000
   58     -2.86936    0.00000
   59     -2.16168    0.00000
   60     -1.90348    0.00000
   61     -1.55435    0.00000
   62     -1.46070    0.00000
   63     -1.25861    0.00000
   64     -0.87964    0.00000
   65     -0.62472    0.00000
   66     -0.37980    0.00000
   67     -0.01323    0.00000
   68      0.55828    0.00000
   69      0.57916    0.00000
   70      1.02123    0.00000
   71      1.21418    0.00000
   72      1.34416    0.00000
   73      1.72747    0.00000
   74      1.85876    0.00000
   75      2.36556    0.00000
   76      2.70031    0.00000
   77      3.21678    0.00000
   78      3.86628    0.00000
   79      4.77230    0.00000
   80      5.25154    0.00000
   81      5.54007    0.00000
   82      5.88738    0.00000
   83      6.19917    0.00000
   84      6.40808    0.00000
   85      6.99027    0.00000
   86      7.22907    0.00000
   87      7.92124    0.00000
   88      8.05513    0.00000
   89      8.23622    0.00000
   90      8.44581    0.00000
   91      8.50590    0.00000
   92      8.72001    0.00000
   93      8.82622    0.00000
   94      8.92447    0.00000
   95      9.13320    0.00000
   96      9.18925    0.00000
   97      9.41588    0.00000


Forces in eV/Ang:
  0 C    -0.01591    4.21244    0.21999
  1 C     0.62605   -1.06803   -1.47577
  2 C     1.42780   -3.83191   -1.19592
  3 C     0.82496    2.39270    0.93477
  4 C    -2.19091   -0.28519    2.94187
  5 C    -1.22043   -0.57104   -0.35524
  6 C     0.19794    1.28958    0.00034
  7 C    -2.29272    1.90958   -2.61137
  8 C     3.56272   -1.07925    3.02029
  9 C    -1.09670    0.78545   -0.45033
 10 C     1.97279   -2.74050   -2.10615
 11 C    -1.36754   -0.60685    0.41298
 12 C    -0.40880   -2.83390   -1.01185
 13 C    -0.87273   -0.77615    1.56150
 14 C    -4.49608   -1.43867   -1.48993
 15 C    -0.80989   -1.38015    0.06449
 16 C    -1.37894    2.09873   -0.84163
 17 C    -1.43960    3.73125    1.43047
 18 C    -0.36898    0.91651    0.87566
 19 C     5.04448    1.85003   -0.66610
 20 C     5.28526    2.73065    0.54960
 21 C    -4.49892   -2.84763    0.57642
 22 C     1.00986    0.38949    1.86253
 23 C     2.56171   -2.90949   -2.28752

System changes: positions 

Initializing position-dependent things.

Density initialized from wave functions
           .--------------------------------------.  
          /|                                      |  
         / |                                      |  
        /  |                                      |  
       /   |                                      |  
      /    |                                      |  
     /     |                                      |  
    /      |                                      |  
   /       |         C        C                   |  
  /        |                C   C                 |  
 *         |           C CC      C                |  
 |         |   C C CC        CC   C               |  
 |         .-C--------C------C---CC---------------.  
 |        /           CC     C                   /   
 |       /        C                             /    
 |      /                                      /     
 |     /                                      /      
 |    /                                      /       
 |   /                                      /        
 |  /                                      /         
 | /                                      /          
 |/                                      /           
 *--------------------------------------*            

Positions:
   0 C      5.451257    8.463900    4.630838
   1 C      5.417202    7.381044    5.644305
   2 C      5.500845   11.175048    5.437187
   3 C      7.655706    8.404753    5.364367
   4 C     10.641025    9.256851    5.573670
   5 C      4.332765    9.270319    4.485032
   6 C      8.988473   11.341968    5.579813
   7 C      4.165567    6.791676    5.547664
   8 C      3.168926    7.538239    4.567799
   9 C     11.482394    7.382377    4.431968
  10 C      9.572685    9.723987    4.355447
  11 C     10.113575   10.598451    5.603537
  12 C      7.606001    6.335684    4.555180
  13 C      6.553397    9.773737    5.094480
  14 C     11.554559    6.332737    5.257498
  15 C     10.282483    4.096037    5.325500
  16 C      7.420504   10.737263    4.671668
  17 C      9.477853    8.025618    5.009128
  18 C      8.131208   11.879939    4.651854
  19 C      5.919452    4.402913    4.774363
  20 C     10.274631    5.401191    5.198123
  21 C      7.513846    5.051371    4.567992
  22 C      6.749046    7.387379    4.887132
  23 C     11.026568    9.274726    4.175050

Unit cell:
           periodic     x           y           z      points  spacing
  1. axis:    yes   16.000000    0.000000    0.000000    80     0.2000
  2. axis:    yes    0.000000   16.000000    0.000000    80     0.2000
  3. axis:    yes    0.000000    0.000000   10.000000    48     0.2083

Effective grid spacing dv^(1/3) = 0.2027

                     log10-error:    total        iterations:
           time      wfs    density  energy       fermi  poisson
iter:   1  14:14:18          +inf  -145.268866    3      5      
iter:   2  14:14:19         -1.52  -144.920849    2      2      
iter:   3  14:14:19         -1.85  -144.883165    2      2      
iter:   4  14:14:20         -1.96  -144.839230    2      2      
iter:   5  14:14:20         -2.17  -144.834874    2      2      
iter:   6  14:14:21         -2.25  -144.827758    2      2      
iter:   7  14:14:21         -2.41  -144.826853    2      2      
iter:   8  14:14:22         -2.52  -144.824503    2      2      
iter:   9  14:14:22         -2.77  -144.825143    2      2      
iter:  10  14:14:23         -2.95  -144.822288    2      1      
iter:  11  14:14:23         -3.08  -144.823169    2      1      
iter:  12  14:14:24         -3.21  -144.824381    2      1      
iter:  13  14:14:24         -3.33  -144.824179    2      1      
iter:  14  14:14:25         -3.52  -144.824933    2      1      
iter:  15  14:14:25         -3.63  -144.825376    2      1      
iter:  16  14:14:25         -3.74  -144.825462    2      1      
iter:  17  14:14:26         -3.88  -144.825679    2      1      
iter:  18  14:14:26         -4.02  -144.825890    2      1      

Converged after 18 iterations.

Dipole moment: (0.051166, 0.630049, 0.167396) |e|*Ang

Energy contributions relative to reference atoms: (reference = -24663.074771)

Kinetic:        +65.650787
Potential:      -75.605562
External:        +0.000000
XC:            -137.245601
Entropy (-ST):   -0.544445
Local:           +2.646708
--------------------------
Free energy:   -145.098113
Extrapolated:  -144.825890

Fermi level: -4.96294

 Band  Eigenvalues  Occupancy
    0    -24.88579    2.00000
    1    -23.76121    2.00000
    2    -22.53929    2.00000
    3    -20.92331    2.00000
    4    -20.41323    2.00000
    5    -19.48641    2.00000
    6    -19.16911    2.00000
    7    -18.61408    2.00000
    8    -17.84092    2.00000
    9    -17.37577    2.00000
   10    -17.16776    2.00000
   11    -16.05364    2.00000
   12    -15.27776    2.00000
   13    -14.91212    2.00000
   14    -14.35708    2.00000
   15    -14.18535    2.00000
   16    -13.81578    2.00000
   17    -13.68024    2.00000
   18    -12.62048    2.00000
   19    -12.07897    2.00000
   20    -11.90862    2.00000
   21    -11.39702    2.00000
   22    -10.66716    2.00000
   23    -10.43631    2.00000
   24    -10.34250    2.00000
   25    -10.12737    2.00000
   26     -9.65429    2.00000
   27     -9.38478    2.00000
   28     -8.98587    2.00000
   29     -8.70620    2.00000
   30     -8.41566    2.00000
   31     -8.29100    2.00000
   32     -7.98039    2.00000
   33     -7.89127    2.00000
   34     -7.51241    2.00000
   35     -7.39813    2.00000
   36     -7.31818    2.00000
   37     -7.16266    2.00000
   38     -6.96673    2.00000
   39     -6.89488    2.00000
   40     -6.38758    2.00000
   41     -6.08443    1.99997
   42     -5.84544    1.99971
   43     -5.68975    1.99861
   44     -5.45764    1.98589
   45     -5.32920    1.94995
   46     -5.10008    1.59524
   47     -4.99069    1.13788
   48     -4.94823    0.92663
   49     -4.76412    0.24091
   50     -4.71300    0.15180
   51     -4.45827    0.01278
   52     -4.13562    0.00051
   53     -3.98107    0.00011
   54     -3.67258    0.00000
   55     -3.51553    0.00000
   56     -3.33317    0.00000
   57     -3.02585    0.00000
   58     -2.77938    0.00000
   59     -2.06496    0.00000
   60     -1.84242    0.00000
   61     -1.38525    0.00000
   62     -1.34901    0.00000
   63     -1.17610    0.00000
   64     -0.81775    0.00000
   65     -0.58137    0.00000
   66     -0.36296    0.00000
   67      0.05020    0.00000
   68      0.51096    0.00000
   69      0.62355    0.00000
   70      1.13924    0.00000
   71      1.39985    0.00000
   72      1.49458    0.00000
   73      1.76662    0.00000
   74      2.07794    0.00000
   75      2.67783    0.00000
   76      3.04501    0.00000
   77      3.52754    0.00000
   78      4.15098    0.00000
   79      4.73292    0.00000
   80      5.40640    0.00000
   81      5.69153    0.00000
   82      5.97295    0.00000
   83      6.40321    0.00000
   84      6.81042    0.00000
   85      7.11855    0.00000
   86      7.25110    0.00000
   87      7.90295    0.00000
   88      8.10687    0.00000
   89      8.27600    0.00000
   90      8.47848    0.00000
   91      8.54989    0.00000
   92      8.73634    0.00000
   93      8.82464    0.00000
   94      8.91338    0.00000
   95      9.12400    0.00000
   96      9.17602    0.00000
   97      9.40814    0.00000


Forces in eV/Ang:
  0 C     0.37816    3.81140    0.96499
  1 C     1.13526   -0.60682   -2.12834
  2 C     1.48271   -3.70745   -1.01653
  3 C     0.58847    1.77176    0.66911
  4 C    -1.99906   -0.41638    2.00261
  5 C    -1.55653   -0.21599   -0.46527
  6 C     0.41748    1.11519    0.12264
  7 C    -2.55838    2.20688   -2.73718
  8 C     3.59065   -1.32535    3.07028
  9 C    -1.15252    0.83610   -0.33303
 10 C     1.98540   -2.81525   -1.85081
 11 C    -1.55323   -0.39463    0.20033
 12 C    -0.61573   -1.50968   -0.63320
 13 C    -0.77735   -0.48771    1.13539
 14 C    -4.35637   -1.04318   -1.69330
 15 C    -0.83197   -0.43700   -0.03444
 16 C    -1.55940    1.89576   -0.75565
 17 C    -1.41960    4.05461    1.35028
 18 C    -0.50945    0.59457    0.79548
 19 C     5.42305    1.86838   -0.71230
 20 C     5.18897    1.60514    0.69776
 21 C    -5.06805   -3.66853    0.50525
 22 C     1.44567   -0.09290    2.01468
 23 C     2.33857   -3.09421   -1.20812

System changes: positions 

Initializing position-dependent things.

Density initialized from wave functions
           .--------------------------------------.  
          /|                                      |  
         / |                                      |  
        /  |                                      |  
       /   |                                      |  
      /    |                                      |  
     /     |                                      |  
    /      |                                      |  
   /       |                  C                   |  
  /        |         C      C   C                 |  
 *         |           C CC      C                |  
 |         |   C C CC        CC   C               |  
 |         .-C--------C-------C--CC---------------.  
 |        /           CC     C                   /   
 |       /        C                             /    
 |      /                                      /     
 |     /                                      /      
 |    /                                      /       
 |   /                                      /        
 |  /                                      /         
 | /                                      /          
 |/                                      /           
 *--------------------------------------*            

Positions:
   0 C      5.449365    8.496517    4.632748
   1 C      5.418665    7.373340    5.635095
   2 C      5.511926   11.147470    5.428938
   3 C      7.663506    8.419451    5.370367
   4 C     10.628076    9.255734    5.588843
   5 C      4.323903    9.265325    4.481596
   6 C      8.990249   11.351891    5.579264
   7 C      4.149866    6.807012    5.528410
   8 C      3.194622    7.530283    4.589956
   9 C     11.473514    7.389226    4.428225
  10 C      9.587518    9.702982    4.340947
  11 C     10.104924   10.593549    5.607471
  12 C      7.604898    6.313738    4.549252
  13 C      6.544290    9.768251    5.104359
  14 C     11.526580    6.324381    5.247320
  15 C     10.277737    4.092638    5.325457
  16 C      7.409135   10.750628    4.665668
  17 C      9.467105    8.051918    5.018608
  18 C      8.129836   11.888921    4.658336
  19 C      5.956861    4.416312    4.769779
  20 C     10.306568    5.411471    5.202151
  21 C      7.480689    5.036782    4.572612
  22 C      6.757067    7.385182    4.898699
  23 C     11.043036    9.254295    4.164649

Unit cell:
           periodic     x           y           z      points  spacing
  1. axis:    yes   16.000000    0.000000    0.000000    80     0.2000
  2. axis:    yes    0.000000   16.000000    0.000000    80     0.2000
  3. axis:    yes    0.000000    0.000000   10.000000    48     0.2083

Effective grid spacing dv^(1/3) = 0.2027

                     log10-error:    total        iterations:
           time      wfs    density  energy       fermi  poisson
iter:   1  14:14:28          +inf  -147.327582    3      5      
iter:   2  14:14:28         -1.52  -146.943105    2      2      
iter:   3  14:14:29         -1.86  -146.903538    2      2      
iter:   4  14:14:29         -1.97  -146.860315    2      2      
iter:   5  14:14:30         -2.18  -146.854435    2      2      
iter:   6  14:14:30         -2.28  -146.849002    2      2      
iter:   7  14:14:31         -2.42  -146.845673    2      2      
iter:   8  14:14:31         -2.63  -146.846451    2      2      
iter:   9  14:14:32         -2.77  -146.846473    2      2      
iter:  10  14:14:32         -2.92  -146.842312    2      1      
iter:  11  14:14:33         -3.07  -146.843319    2      1      
iter:  12  14:14:33         -3.23  -146.845879    2      1      
iter:  13  14:14:34         -3.34  -146.845100    2      1      
iter:  14  14:14:34         -3.54  -146.845610    2      1      
iter:  15  14:14:35         -3.66  -146.846704    2      1      
iter:  16  14:14:35         -3.82  -146.847197    2      1      
iter:  17  14:14:36         -4.06  -146.846785    2      1      

Converged after 17 iterations.

Dipole moment: (0.146998, 0.584743, 0.167196) |e|*Ang

Energy contributions relative to reference atoms: (reference = -24663.074771)

Kinetic:        +63.357340
Potential:      -74.317053
External:        +0.000000
XC:            -138.281017
Entropy (-ST):   -0.514926
Local:           +2.651408
--------------------------
Free energy:   -147.104248
Extrapolated:  -146.846785

Fermi level: -4.96844

 Band  Eigenvalues  Occupancy
    0    -24.71957    2.00000
    1    -23.58749    2.00000
    2    -22.48434    2.00000
    3    -20.90779    2.00000
    4    -20.43988    2.00000
    5    -19.62006    2.00000
    6    -19.30244    2.00000
    7    -18.63304    2.00000
    8    -17.89169    2.00000
    9    -17.35970    2.00000
   10    -17.17911    2.00000
   11    -16.10203    2.00000
   12    -15.34439    2.00000
   13    -15.01309    2.00000
   14    -14.48113    2.00000
   15    -14.15912    2.00000
   16    -13.78911    2.00000
   17    -13.69380    2.00000
   18    -12.73544    2.00000
   19    -12.25328    2.00000
   20    -12.03645    2.00000
   21    -11.34173    2.00000
   22    -10.62971    2.00000
   23    -10.37507    2.00000
   24    -10.25725    2.00000
   25    -10.14452    2.00000
   26     -9.65599    2.00000
   27     -9.38655    2.00000
   28     -9.01679    2.00000
   29     -8.73389    2.00000
   30     -8.42312    2.00000
   31     -8.22220    2.00000
   32     -8.01649    2.00000
   33     -7.96875    2.00000
   34     -7.58487    2.00000
   35     -7.47649    2.00000
   36     -7.39657    2.00000
   37     -7.14379    2.00000
   38     -7.03850    2.00000
   39     -6.90255    2.00000
   40     -6.41029    2.00000
   41     -6.13870    1.99998
   42     -5.88487    1.99979
   43     -5.67870    1.99836
   44     -5.48910    1.98910
   45     -5.30926    1.93592
   46     -5.14011    1.69540
   47     -5.00973    1.20355
   48     -4.93371    0.82804
   49     -4.73831    0.18202
   50     -4.72254    0.15756
   51     -4.43744    0.00984
   52     -4.10351    0.00035
   53     -3.97379    0.00010
   54     -3.55265    0.00000
   55     -3.42157    0.00000
   56     -3.22667    0.00000
   57     -2.89500    0.00000
   58     -2.70427    0.00000
   59     -1.98394    0.00000
   60     -1.80047    0.00000
   61     -1.31475    0.00000
   62     -1.16495    0.00000
   63     -1.09396    0.00000
   64     -0.80376    0.00000
   65     -0.49780    0.00000
   66     -0.30115    0.00000
   67      0.14273    0.00000
   68      0.45728    0.00000
   69      0.71232    0.00000
   70      1.23760    0.00000
   71      1.43961    0.00000
   72      1.71512    0.00000
   73      1.86739    0.00000
   74      2.23662    0.00000
   75      2.98901    0.00000
   76      3.30964    0.00000
   77      4.00175    0.00000
   78      4.44739    0.00000
   79      4.62048    0.00000
   80      5.46042    0.00000
   81      5.78116    0.00000
   82      6.15105    0.00000
   83      6.57085    0.00000
   84      6.93169    0.00000
   85      7.33626    0.00000
   86      7.71791    0.00000
   87      7.88305    0.00000
   88      8.13539    0.00000
   89      8.30167    0.00000
   90      8.49618    0.00000
   91      8.59991    0.00000
   92      8.76864    0.00000
   93      8.82900    0.00000
[...]
Free energy:   -181.668338
Extrapolated:  -181.529425

Fermi level: -4.34617

 Band  Eigenvalues  Occupancy
    0    -23.56084    2.00000
    1    -21.62787    2.00000
    2    -20.91020    2.00000
    3    -20.53382    2.00000
    4    -20.01476    2.00000
    5    -19.90800    2.00000
    6    -19.17094    2.00000
    7    -18.96441    2.00000
    8    -18.92576    2.00000
    9    -17.91772    2.00000
   10    -17.71424    2.00000
   11    -17.43536    2.00000
   12    -16.65788    2.00000
   13    -16.04008    2.00000
   14    -15.67733    2.00000
   15    -15.14263    2.00000
   16    -14.74171    2.00000
   17    -14.44807    2.00000
   18    -13.56536    2.00000
   19    -13.27235    2.00000
   20    -12.63013    2.00000
   21    -12.47735    2.00000
   22    -12.13769    2.00000
   23    -11.24148    2.00000
   24    -10.93469    2.00000
   25    -10.65663    2.00000
   26    -10.25931    2.00000
   27     -9.99556    2.00000
   28     -9.38948    2.00000
   29     -9.21128    2.00000
   30     -9.10543    2.00000
   31     -8.89103    2.00000
   32     -8.43519    2.00000
   33     -8.27714    2.00000
   34     -8.19579    2.00000
   35     -8.15490    2.00000
   36     -7.41648    2.00000
   37     -7.39527    2.00000
   38     -7.15930    2.00000
   39     -6.86884    2.00000
   40     -6.45227    2.00000
   41     -6.31894    2.00000
   42     -5.82843    2.00000
   43     -5.52900    1.99999
   44     -5.46174    1.99997
   45     -4.98378    1.99660
   46     -4.90908    1.99284
   47     -4.39007    1.21608
   48     -4.30382    0.79137
   49     -3.70109    0.00315
   50     -2.83895    0.00000
   51     -2.59481    0.00000
   52     -2.11759    0.00000
   53     -2.00403    0.00000
   54     -1.26564    0.00000
   55     -0.97511    0.00000
   56     -0.54458    0.00000
   57     -0.44729    0.00000
   58     -0.38748    0.00000
   59     -0.22238    0.00000
   60      0.15818    0.00000
   61      0.49384    0.00000
   62      0.75120    0.00000
   63      1.04379    0.00000
   64      1.45182    0.00000
   65      3.09204    0.00000
   66      3.64162    0.00000
   67      3.80415    0.00000
   68      4.15476    0.00000
   69      4.74704    0.00000
   70      5.38677    0.00000
   71      5.57903    0.00000
   72      5.99866    0.00000
   73      6.13212    0.00000
   74      6.64731    0.00000
   75      7.21716    0.00000
   76      7.60193    0.00000
   77      7.87565    0.00000
   78      8.12674    0.00000
   79      8.37104    0.00000
   80      8.57914    0.00000
   81      8.65189    0.00000
   82      8.81836    0.00000
   83      8.89812    0.00000
   84      9.04900    0.00000
   85      9.17846    0.00000
   86      9.29814    0.00000
   87      9.40651    0.00000
   88      9.52180    0.00000
   89      9.59585    0.00000
   90      9.71725    0.00000
   91      9.73456    0.00000
   92      9.88718    0.00000
   93     10.02684    0.00000
   94     10.10520    0.00000
   95     10.14077    0.00000
   96     10.26085    0.00000
   97     10.38817    0.00000


Forces in eV/Ang:
  0 C     0.01302   -0.05284    0.00679
  1 C     0.01746    0.00567   -0.01650
  2 C    -0.02343    0.01088    0.01377
  3 C    -0.01813   -0.02417   -0.01655
  4 C     0.01723    0.01146   -0.04567
  5 C     0.11895   -0.06146   -0.04739
  6 C     0.01429   -0.01555   -0.01001
  7 C     0.01802    0.16132    0.14405
  8 C     0.18721    0.00998    0.20349
  9 C    -0.00388    0.00017    0.03320
 10 C     0.00711    0.02685   -0.00528
 11 C    -0.03590   -0.01690   -0.01257
 12 C    -0.01217    0.03607   -0.02805
 13 C     0.00410    0.01205   -0.02070
 14 C    -0.02362    0.03710   -0.00680
 15 C     0.03335    0.00573   -0.03802
 16 C     0.03079   -0.04757   -0.00943
 17 C    -0.03469    0.02779   -0.02556
 18 C    -0.00057    0.00480    0.01797
 19 C    -0.00146   -0.00841   -0.04720
 20 C     0.04652   -0.08243    0.02789
 21 C    -0.02847    0.03208    0.01000
 22 C     0.00010   -0.01448   -0.02208
 23 C    -0.02631    0.01151    0.07637

System changes: positions 

Initializing position-dependent things.

Density initialized from wave functions
           .--------------------------------------.  
          /|                                      |  
         / |                                      |  
        /  |                                      |  
       /   |                                      |  
      /    |                                      |  
     /     |                                      |  
    /      |                                      |  
   /       |           C  C  C  C                 |  
  /        |         C           C                |  
 *         |  C   C    C  C   C    C              |  
 |         |C    C   C              C             |  
 |         .--C-------C-C------------C------------.  
 |        /               C        C             /   
 |       /                   C  C               /    
 |      /                                      /     
 |     /                                      /      
 |    /                                      /       
 |   /                                      /        
 |  /                                      /         
 | /                                      /          
 |/                                      /           
 *--------------------------------------*            

Positions:
   0 C      4.550713    8.941561    5.645687
   1 C      4.736636    7.485106    5.566481
   2 C      6.276945   10.910022    5.588016
   3 C      6.822722    8.496483    5.741675
   4 C      9.291860    9.364267    5.505229
   5 C      3.213257    8.954257    5.078199
   6 C      9.703825   11.626300    5.237244
   7 C      3.574860    7.298274    4.767972
   8 C      2.314776    8.020042    4.703625
   9 C     12.670814    7.606122    4.127786
  10 C     11.556792    9.837400    4.788225
  11 C     10.307564   10.309096    5.196073
  12 C      6.893378    6.034029    5.428190
  13 C      5.801730    9.586244    5.700299
  14 C     12.281165    6.364191    4.091780
  15 C     10.319793    4.839452    4.516956
  16 C      7.207807   11.751279    5.508851
  17 C      8.184821    8.808146    5.692791
  18 C      8.527539   12.056746    5.371973
  19 C      9.078915    4.779756    4.859591
  20 C     11.496734    5.330955    4.204788
  21 C      7.895888    5.295587    5.172055
  22 C      6.169871    7.204915    5.586034
  23 C     12.259236    8.827987    4.432010

Unit cell:
           periodic     x           y           z      points  spacing
  1. axis:    yes   16.000000    0.000000    0.000000    80     0.2000
  2. axis:    yes    0.000000   16.000000    0.000000    80     0.2000
  3. axis:    yes    0.000000    0.000000   10.000000    48     0.2083

Effective grid spacing dv^(1/3) = 0.2027

                     log10-error:    total        iterations:
           time      wfs    density  energy       fermi  poisson
iter:   1  14:43:52          +inf  -181.557433    2      5      
iter:   2  14:43:52         -2.10  -181.527025    3      2      
iter:   3  14:43:53         -2.85  -181.526420    2      1      
iter:   4  14:43:53         -2.93  -181.526852    2      1      
iter:   5  14:43:54         -3.04  -181.530888    2      2      
iter:   6  14:43:54         -2.71  -181.526475    2      1      
iter:   7  14:43:55         -3.49  -181.528480    2      1      
iter:   8  14:43:55         -3.02  -181.526087    2      1      
iter:   9  14:43:56         -3.62  -181.525418    2      1      
iter:  10  14:43:56         -3.81  -181.526322    2      1      
iter:  11  14:43:57         -3.28  -181.525605    2      1      
iter:  12  14:43:57         -4.17  -181.525075    2      1      

Converged after 12 iterations.

Dipole moment: (0.437585, -0.045490, 0.006674) |e|*Ang

Energy contributions relative to reference atoms: (reference = -24663.074771)

Kinetic:       +102.365464
Potential:     -112.572770
External:        +0.000000
XC:            -174.235211
Entropy (-ST):   -0.280138
Local:           +3.057511
--------------------------
Free energy:   -181.665144
Extrapolated:  -181.525075

Fermi level: -4.34600

 Band  Eigenvalues  Occupancy
    0    -23.53361    2.00000
    1    -21.62439    2.00000
    2    -20.91270    2.00000
    3    -20.53302    2.00000
    4    -20.01613    2.00000
    5    -19.90959    2.00000
    6    -19.17411    2.00000
    7    -18.96356    2.00000
    8    -18.92307    2.00000
    9    -17.91633    2.00000
   10    -17.71749    2.00000
   11    -17.43391    2.00000
   12    -16.65369    2.00000
   13    -16.04302    2.00000
   14    -15.66573    2.00000
   15    -15.14316    2.00000
   16    -14.74392    2.00000
   17    -14.44569    2.00000
   18    -13.56375    2.00000
   19    -13.27770    2.00000
   20    -12.63279    2.00000
   21    -12.46793    2.00000
   22    -12.14152    2.00000
   23    -11.24405    2.00000
   24    -10.94211    2.00000
   25    -10.64356    2.00000
   26    -10.24644    2.00000
   27     -9.98913    2.00000
   28     -9.38764    2.00000
   29     -9.21025    2.00000
   30     -9.10729    2.00000
   31     -8.88515    2.00000
   32     -8.43437    2.00000
   33     -8.28243    2.00000
   34     -8.19761    2.00000
   35     -8.15472    2.00000
   36     -7.41683    2.00000
   37     -7.39415    2.00000
   38     -7.15199    2.00000
   39     -6.86917    2.00000
   40     -6.46262    2.00000
   41     -6.31682    2.00000
   42     -5.83223    2.00000
   43     -5.52449    1.99998
   44     -5.45660    1.99997
   45     -4.98789    1.99674
   46     -4.90178    1.99231
   47     -4.38482    1.19169
   48     -4.30877    0.81596
   49     -3.70662    0.00334
   50     -2.84353    0.00000
   51     -2.58964    0.00000
   52     -2.12070    0.00000
   53     -2.01700    0.00000
   54     -1.25560    0.00000
   55     -0.98065    0.00000
   56     -0.56006    0.00000
   57     -0.44813    0.00000
   58     -0.38935    0.00000
   59     -0.21531    0.00000
   60      0.14916    0.00000
   61      0.47866    0.00000
   62      0.73491    0.00000
   63      1.05550    0.00000
   64      1.48111    0.00000
   65      3.09609    0.00000
   66      3.63327    0.00000
   67      3.80152    0.00000
   68      4.13475    0.00000
   69      4.72582    0.00000
   70      5.39063    0.00000
   71      5.55839    0.00000
   72      6.00227    0.00000
   73      6.13413    0.00000
   74      6.65615    0.00000
   75      7.22457    0.00000
   76      7.59482    0.00000
   77      7.85596    0.00000
   78      8.11443    0.00000
   79      8.35508    0.00000
   80      8.58670    0.00000
   81      8.64754    0.00000
   82      8.82974    0.00000
   83      8.89256    0.00000
   84      9.05361    0.00000
   85      9.16687    0.00000
   86      9.29339    0.00000
   87      9.39261    0.00000
   88      9.52596    0.00000
   89      9.59327    0.00000
   90      9.71909    0.00000
   91      9.72601    0.00000
   92      9.89226    0.00000
   93     10.03646    0.00000
   94     10.10464    0.00000
   95     10.14179    0.00000
   96     10.25184    0.00000
   97     10.39633    0.00000


Forces in eV/Ang:
  0 C    -0.02447   -0.05474    0.05925
  1 C    -0.07534   -0.04445   -0.03690
  2 C    -0.01502    0.04927   -0.00362
  3 C    -0.02795   -0.08355    0.03783
  4 C    -0.01214   -0.00366   -0.03379
  5 C    -0.00879   -0.02669    0.03768
  6 C     0.03649    0.01546   -0.00312
  7 C    -0.09329   -0.04417   -0.11435
  8 C     0.01872   -0.01440    0.01156
  9 C    -0.09689    0.00199    0.08220
 10 C    -0.04951   -0.02541   -0.00919
 11 C    -0.01890   -0.05124   -0.04216
 12 C     0.04221    0.05896   -0.02821
 13 C    -0.00776    0.02249   -0.02184
 14 C     0.00204    0.08755   -0.00111
 15 C    -0.04172    0.02445   -0.01512
 16 C     0.03588   -0.05170   -0.01903
 17 C    -0.01054    0.04080   -0.05621
 18 C    -0.02957    0.01480    0.02373
 19 C    -0.00854    0.03972   -0.03688
 20 C     0.04535   -0.06243    0.04292
 21 C     0.06030    0.02391   -0.00119
 22 C    -0.05669   -0.01679   -0.02358
 23 C    -0.02438   -0.03807    0.06702

System changes: positions 

Initializing position-dependent things.

Density initialized from wave functions
           .--------------------------------------.  
          /|                                      |  
         / |                                      |  
        /  |                                      |  
       /   |                                      |  
      /    |                                      |  
     /     |                                      |  
    /      |                                      |  
   /       |           C  C  C  C                 |  
  /        |         C           C                |  
 *         |  C   C    C  C  C     C              |  
 |         |C    C   C              C             |  
 |         .--C-------C-C------------C------------.  
 |        /               C        C             /   
 |       /                   C  C               /    
 |      /                                      /     
 |     /                                      /      
 |    /                                      /       
 |   /                                      /        
 |  /                                      /         
 | /                                      /          
 |/                                      /           
 *--------------------------------------*            

Positions:
   0 C      4.548957    8.939707    5.657963
   1 C      4.733159    7.480995    5.572564
   2 C      6.276311   10.908919    5.587054
   3 C      6.820736    8.494227    5.755895
   4 C      9.287865    9.365081    5.503145
   5 C      3.221666    8.953746    5.073537
   6 C      9.703293   11.628251    5.229182
   7 C      3.583383    7.300031    4.754851
   8 C      2.326475    8.023627    4.685535
   9 C     12.664820    7.601113    4.132554
  10 C     11.548975    9.833653    4.779883
  11 C     10.302319   10.308830    5.187805
  12 C      6.896575    6.037715    5.427738
  13 C      5.801057    9.585181    5.710387
  14 C     12.283197    6.357552    4.098067
  15 C     10.319499    4.834904    4.514063
  16 C      7.207872   11.749818    5.506202
  17 C      8.182572    8.807970    5.696344
  18 C      8.526434   12.057310    5.365932
  19 C      9.078321    4.780271    4.853391
  20 C     11.499863    5.322866    4.208707
  21 C      7.899710    5.300935    5.169690
  22 C      6.167468    7.203883    5.592687
  23 C     12.252411    8.824002    4.427462

Unit cell:
           periodic     x           y           z      points  spacing
  1. axis:    yes   16.000000    0.000000    0.000000    80     0.2000
  2. axis:    yes    0.000000   16.000000    0.000000    80     0.2000
  3. axis:    yes    0.000000    0.000000   10.000000    48     0.2083

Effective grid spacing dv^(1/3) = 0.2027

                     log10-error:    total        iterations:
           time      wfs    density  energy       fermi  poisson
iter:   1  14:43:59          +inf  -181.576010    2      5      
iter:   2  14:43:59         -2.15  -181.530723    2      2      
iter:   3  14:44:00         -2.99  -181.529802    2      1      
iter:   4  14:44:00         -3.07  -181.528661    2      1      
iter:   5  14:44:01         -3.24  -181.527486    2      1      
iter:   6  14:44:01         -3.08  -181.528827    2      1      
iter:   7  14:44:02         -3.53  -181.530955    2      1      
iter:   8  14:44:02         -2.98  -181.529352    2      1      
iter:   9  14:44:03         -4.02  -181.529367    2      1      

Converged after 9 iterations.

Dipole moment: (0.432870, -0.045033, 0.008050) |e|*Ang

Energy contributions relative to reference atoms: (reference = -24663.074771)

Kinetic:       +102.726675
Potential:     -112.863286
External:        +0.000000
XC:            -174.318730
Entropy (-ST):   -0.279080
Local:           +3.065515
--------------------------
Free energy:   -181.668907
Extrapolated:  -181.529367

Fermi level: -4.34348

 Band  Eigenvalues  Occupancy
    0    -23.54648    2.00000
    1    -21.62408    2.00000
    2    -20.91455    2.00000
    3    -20.53487    2.00000
    4    -20.01562    2.00000
    5    -19.90810    2.00000
    6    -19.17224    2.00000
    7    -18.96437    2.00000
    8    -18.92355    2.00000
    9    -17.91727    2.00000
   10    -17.71578    2.00000
   11    -17.43328    2.00000
   12    -16.65624    2.00000
   13    -16.04231    2.00000
   14    -15.67089    2.00000
   15    -15.14045    2.00000
   16    -14.74248    2.00000
   17    -14.44877    2.00000
   18    -13.56459    2.00000
   19    -13.27670    2.00000
   20    -12.63273    2.00000
   21    -12.47313    2.00000
   22    -12.14172    2.00000
   23    -11.24164    2.00000
   24    -10.93468    2.00000
   25    -10.64962    2.00000
   26    -10.25214    2.00000
   27     -9.98970    2.00000
   28     -9.39023    2.00000
   29     -9.21268    2.00000
   30     -9.10738    2.00000
   31     -8.88881    2.00000
   32     -8.43594    2.00000
   33     -8.27837    2.00000
   34     -8.19625    2.00000
   35     -8.15554    2.00000
   36     -7.41582    2.00000
   37     -7.39470    2.00000
   38     -7.15451    2.00000
   39     -6.86854    2.00000
   40     -6.45709    2.00000
   41     -6.31754    2.00000
   42     -5.83132    2.00000
   43     -5.52780    1.99999
   44     -5.45968    1.99997
   45     -4.98582    1.99676
   46     -4.90707    1.99289
   47     -4.38398    1.19981
   48     -4.30446    0.80735
   49     -3.70061    0.00322
   50     -2.84130    0.00000
   51     -2.59636    0.00000
   52     -2.11958    0.00000
   53     -2.01203    0.00000
   54     -1.26381    0.00000
   55     -0.97689    0.00000
   56     -0.55483    0.00000
   57     -0.44615    0.00000
   58     -0.39022    0.00000
   59     -0.22019    0.00000
   60      0.15406    0.00000
   61      0.49079    0.00000
   62      0.74552    0.00000
   63      1.04827    0.00000
   64      1.45870    0.00000
   65      3.09950    0.00000
   66      3.64498    0.00000
   67      3.80609    0.00000
   68      4.15226    0.00000
   69      4.74036    0.00000
   70      5.39129    0.00000
   71      5.57330    0.00000
   72      6.00242    0.00000
   73      6.13532    0.00000
   74      6.64972    0.00000
   75      7.22074    0.00000
   76      7.60035    0.00000
   77      7.86976    0.00000
   78      8.12159    0.00000
   79      8.36572    0.00000
   80      8.58241    0.00000
   81      8.65442    0.00000
   82      8.82298    0.00000
   83      8.89729    0.00000
   84      9.05358    0.00000
   85      9.17390    0.00000
   86      9.29383    0.00000
   87      9.39861    0.00000
   88      9.52065    0.00000
   89      9.59269    0.00000
   90      9.71809    0.00000
   91      9.73081    0.00000
   92      9.88858    0.00000
   93     10.03203    0.00000
   94     10.10388    0.00000
   95     10.13878    0.00000
   96     10.26038    0.00000
   97     10.39069    0.00000


Forces in eV/Ang:
  0 C    -0.02109   -0.02436    0.06361
  1 C    -0.02528   -0.03343   -0.01599
  2 C    -0.02106    0.01226    0.01045
  3 C    -0.02259   -0.04051    0.01456
  4 C    -0.00890    0.00112   -0.04427
  5 C     0.04566   -0.02520   -0.00621
  6 C     0.03977    0.00610    0.00037
  7 C    -0.00512    0.02862   -0.01888
  8 C     0.03506    0.00943    0.03986
  9 C    -0.05061    0.00978    0.06421
 10 C    -0.01676   -0.02019   -0.01387
 11 C    -0.02064   -0.02980   -0.01674
 12 C     0.02267    0.04158   -0.02968
 13 C    -0.01454    0.01770    0.00507
 14 C    -0.01983    0.04157    0.00275
 15 C     0.02212    0.02040   -0.03646
 16 C     0.02582   -0.05533   -0.01289
 17 C    -0.03041    0.02217   -0.03328
 18 C    -0.03476    0.01727    0.01404
 19 C    -0.00798    0.00632   -0.04592
 20 C     0.03903   -0.07834    0.03924
 21 C    -0.00781    0.03843    0.00720
 22 C    -0.01173   -0.02039   -0.00149
 23 C    -0.03281   -0.01309    0.07417

