
  ___ ___ ___ _ _ _  
 |   |   |_  | | | | 
 | | | | | . | | | | 
 |__ |  _|___|_____|  1.3.0b1
 |___|_|             

User:   esb@s65n72.grendel.cscaa.dk
Date:   Wed Nov  8 14:12:59 2017
Arch:   x86_64
Pid:    97117
Python: 2.7.13
gpaw:   /home/esb/DFT/gpaw_git/gpaw
_gpaw:  /home/esb/DFT/gpaw_git/build/bin.linux-x86_64-2.7/gpaw-python
ase:    /home/esb/DFT/ase_git/ase (version 3.15.0b1)
numpy:  /comm/swstack/core/python/2.7.13/lib/python2.7/site-packages/numpy (version 1.13.3)
scipy:  /comm/swstack/core/python/2.7.13/lib/python2.7/site-packages/scipy (version 0.19.1)
units:  Angstrom and eV
cores:  16
Extra parameters: {'blacs': True}

Input parameters:
  basis: dzp
  gpts: [80 80 48]
  kpts: [1 1 1]
  maxiter: 99
  mixer: {backend: pulay,
          beta: 0.05,
          method: separate,
          nmaxold: 5,
          weight: 75}
  mode: lcao
  nbands: -50
  occupations: {name: fermi-dirac,
                width: 0.1}
  poissonsolver: {eps: 1e-07,
                  name: fd,
                  nn: 3,
                  relax: GS}
  xc: PBE

System changes: positions, numbers, cell, pbc, initial_charges, initial_magmoms 

Initialize ...

C-setup:
  name: Carbon
  id: 4aa54d4b901d75f77cc0ea3eec22967b
  Z: 6
  valence: 4
  core: 2
  charge: 0.0
  file: /home/esb/DFT/gpaw-setups-0.8.7929/C.PBE.gz
  cutoffs: 0.64(comp), 1.14(filt), 1.14(core), lmax=2
  valence states:
                energy  radius
    2s(2.00)   -13.751   0.635
    2p(2.00)    -5.284   0.635
    *s          13.461   0.635
    *p          21.927   0.635
    *d           0.000   0.635

  LCAO basis set for C:
    Name: dzp
    File: /home/esb/DFT/gpaw-setups-0.8.7929/C.dzp.basis.gz
    Number of radial functions: 5
    Number of spherical harmonics: 13
      l=0, rc=5.5469 Bohr: 2s-sz confined orbital
      l=1, rc=6.6719 Bohr: 2p-sz confined orbital
      l=0, rc=3.0312 Bohr: 2s-dz split-valence wave
      l=1, rc=3.7500 Bohr: 2p-dz split-valence wave
      l=2, rc=6.6719 Bohr: d-type Gaussian polarization

Reference energy: -24663.074771

Spin-paired calculation

Occupation numbers:
  Fermi-Dirac: width=0.1000 eV

Convergence criteria:
  Maximum total energy change: 0.0005 eV / electron
  Maximum integral of absolute density change: 0.0001 electrons
  Maximum integral of absolute eigenstate change: 4e-08 eV^2
  Maximum number of iterations: 99

Symmetries present (total): 1

  ( 1  0  0)
  ( 0  1  0)
  ( 0  0  1)

1 k-point (Gamma)
1 k-point in the irreducible part of the Brillouin zone
       k-points in crystal coordinates                weights
   0:     0.00000000    0.00000000    0.00000000          1/1

Wave functions: LCAO
  Diagonalizer: Serial LAPACK
  Atomic Correction: dense with blas
  Datatype: float
  Eigensolver: None 

LCAO using direct dense diagonalizer 

Densities:
  Coarse grid: 80*80*48 grid
  Fine grid: 160*160*96 grid
  Total Charge: 0.000000 

Density mixing:
  Method: separate
  Backend: pulay
  Linear mixing parameter: 0.05
  Mixing with 5 old densities
  Damping of long wave oscillations: 75 

Hamiltonian:
  XC and Coulomb potentials evaluated on a 160*160*96 grid
  Using the PBE Exchange-Correlation functional
  Interpolation: tri-quintic (5. degree polynomial)
  Poisson solver: Gauss-Seidel solver with 6 multi-grid levels
    Coarsest grid: 5 x 5 x 3 points
    Stencil: 6*3+1=19 point O(h^6) finite-difference Laplacian
    Max iterations: 1000
    Tolerance: 1.000000e-07 

Memory estimate:
  Process memory now: 77.59 MiB
  Calculator: 15.59 MiB
    Density: 6.13 MiB
      Arrays: 3.81 MiB
      Localized functions: 0.86 MiB
      Mixer: 1.46 MiB
    Hamiltonian: 5.40 MiB
      Arrays: 2.49 MiB
      XC: 0.00 MiB
      Poisson: 2.85 MiB
      vbar: 0.07 MiB
    Wavefunctions: 4.05 MiB
      C [qnM]: 0.23 MiB
      S, T [2 x qmm]: 1.49 MiB
      P [aqMi]: 0.01 MiB
      TCI: 0.00 MiB
      BasisFunctions: 2.33 MiB
      Eigensolver: 0.00 MiB

Total number of cores used: 16
Domain decomposition: 2 x 4 x 2

Number of atoms: 24
Number of atomic orbitals: 312
Number of bands in calculation: 98
Bands to converge: occupied states only
Number of valence electrons: 96

... initialized

Initializing position-dependent things.

Density initialized from atomic densities
           .--------------------------------------.  
          /|                                      |  
         / |                                      |  
        /  |                                      |  
       /   |                                      |  
      /    |                                      |  
     /     |                                      |  
    /      |                                      |  
   /       |                                      |  
  /        |            C     C                   |  
 *         |   C  C      C                        |  
 |         |     C   C C C      C  C              |  
 |         .--C-C------C-----C--------------------.  
 |        /      C  C  CC                        /   
 |       /      C           C                   /    
 |      /          C                           /     
 |     /                                      /      
 |    /                                      /       
 |   /                                      /        
 |  /                                      /         
 | /                                      /          
 |/                                      /           
 *--------------------------------------*            

Positions:
   0 C      7.208871   10.498870    4.768626
   1 C      8.387853    3.237812    5.460291
   2 C      7.881386    8.442968    5.143040
   3 C      8.289682    5.205214    4.659063
   4 C      4.228576   10.164260    4.730179
   5 C     11.686616    8.468220    4.470381
   6 C      6.355005   11.728707    4.363179
   7 C     10.398008    4.847302    5.464620
   8 C      6.822828    9.003370    4.676411
   9 C      6.974487    7.625539    4.641467
  10 C      6.419374    3.779608    4.281344
  11 C      5.009237    4.896856    4.275563
  12 C      9.702283    5.173816    4.386893
  13 C      4.721489    5.329720    5.541284
  14 C      7.442026    6.009990    4.893756
  15 C      5.581185    3.502316    5.676143
  16 C      5.849366    9.550962    4.309259
  17 C      9.167485   11.245223    4.692692
  18 C      6.997611    3.643995    5.634833
  19 C      3.512319    6.428110    4.606613
  20 C      4.628773    7.557867    5.194114
  21 C     10.071095    9.709252    4.273592
  22 C      3.485204    9.406126    5.364727
  23 C      8.062954    7.051607    5.428045

Unit cell:
           periodic     x           y           z      points  spacing
  1. axis:    yes   16.000000    0.000000    0.000000    80     0.2000
  2. axis:    yes    0.000000   16.000000    0.000000    80     0.2000
  3. axis:    yes    0.000000    0.000000   10.000000    48     0.2083

Effective grid spacing dv^(1/3) = 0.2027

                     log10-error:    total        iterations:
           time      wfs    density  energy       fermi  poisson
iter:   1  14:13:01          +inf  -133.739979    3      6      
iter:   2  14:13:02         -0.89  -131.856147    3      3      
iter:   3  14:13:02         -0.94  -130.470628    4      3      
iter:   4  14:13:03         -1.00  -129.324913    4      3      
iter:   5  14:13:03         -1.09  -129.114685    3      3      
iter:   6  14:13:04         -1.14  -129.088070    3      3      
iter:   7  14:13:04         -1.23  -128.966536    3      3      
iter:   8  14:13:05         -1.42  -128.470997    4      3      
iter:   9  14:13:06         -1.65  -128.391949    3      3      
iter:  10  14:13:06         -1.78  -128.357939    2      2      
iter:  11  14:13:07         -1.92  -128.338578    3      2      
iter:  12  14:13:07         -2.05  -128.333273    3      2      
iter:  13  14:13:08         -2.20  -128.332385    3      2      
iter:  14  14:13:08         -2.33  -128.329851    3      2      
iter:  15  14:13:09         -2.44  -128.329286    3      2      
iter:  16  14:13:09         -2.63  -128.327167    3      2      
iter:  17  14:13:10         -2.84  -128.326037    2      2      
iter:  18  14:13:10         -3.01  -128.328730    2      1      
iter:  19  14:13:11         -3.07  -128.329150    2      1      
iter:  20  14:13:11         -3.19  -128.326232    2      1      
iter:  21  14:13:12         -3.37  -128.325148    2      1      
iter:  22  14:13:12         -3.68  -128.323059    2      1      
iter:  23  14:13:13         -3.76  -128.323693    2      1      
iter:  24  14:13:14         -3.82  -128.324599    2      1      
iter:  25  14:13:14         -4.00  -128.324772    2      1      
iter:  26  14:13:15         -4.25  -128.324695    2      1      

Converged after 26 iterations.

Dipole moment: (0.551056, -0.094591, -0.069427) |e|*Ang

Energy contributions relative to reference atoms: (reference = -24663.074771)

Kinetic:       +111.234828
Potential:     -105.784016
External:        +0.000000
XC:            -136.206946
Entropy (-ST):   -0.389026
Local:           +2.625952
--------------------------
Free energy:   -128.519208
Extrapolated:  -128.324695

Fermi level: -5.19268

 Band  Eigenvalues  Occupancy
    0    -28.80265    2.00000
    1    -24.77478    2.00000
    2    -23.55092    2.00000
    3    -22.94175    2.00000
    4    -20.68858    2.00000
    5    -19.82566    2.00000
    6    -19.03953    2.00000
    7    -18.76739    2.00000
    8    -17.79567    2.00000
    9    -17.62585    2.00000
   10    -16.18056    2.00000
   11    -15.82273    2.00000
   12    -15.68321    2.00000
   13    -15.55798    2.00000
   14    -14.19409    2.00000
   15    -13.98643    2.00000
   16    -13.88576    2.00000
   17    -13.73738    2.00000
   18    -12.81190    2.00000
   19    -12.37880    2.00000
   20    -12.03327    2.00000
   21    -11.47559    2.00000
   22    -10.96469    2.00000
   23    -10.82413    2.00000
   24    -10.35068    2.00000
   25     -9.86297    2.00000
   26     -9.63601    2.00000
   27     -9.32023    2.00000
   28     -8.96128    2.00000
   29     -8.68950    2.00000
   30     -8.19451    2.00000
   31     -8.10220    2.00000
   32     -7.86315    2.00000
   33     -7.70354    2.00000
   34     -7.36556    2.00000
   35     -7.27901    2.00000
   36     -6.76037    2.00000
   37     -6.72655    2.00000
   38     -6.57712    2.00000
   39     -6.41190    1.99999
   40     -6.35722    1.99998
   41     -6.07330    1.99970
   42     -6.04791    1.99961
   43     -5.79479    1.99516
   44     -5.71512    1.98929
   45     -5.57098    1.95550
   46     -5.42324    1.81867
   47     -5.28339    1.42480
   48     -5.13260    0.70834
   49     -4.89709    0.09892
   50     -4.65267    0.00899
   51     -4.41092    0.00080
   52     -4.26377    0.00018
   53     -4.15094    0.00006
   54     -3.73061    0.00000
   55     -3.67087    0.00000
   56     -3.37339    0.00000
   57     -3.21400    0.00000
   58     -3.02751    0.00000
   59     -2.87033    0.00000
   60     -2.68675    0.00000
   61     -2.22351    0.00000
   62     -2.08168    0.00000
   63     -1.71494    0.00000
   64     -1.59014    0.00000
   65     -1.47656    0.00000
   66     -1.40585    0.00000
   67     -0.98716    0.00000
   68     -0.65319    0.00000
   69     -0.05574    0.00000
   70      0.43497    0.00000
   71      0.52004    0.00000
   72      1.15797    0.00000
   73      1.37123    0.00000
   74      1.50826    0.00000
   75      1.62447    0.00000
   76      2.72169    0.00000
   77      2.72934    0.00000
   78      2.94192    0.00000
   79      3.44724    0.00000
   80      3.97535    0.00000
   81      4.13193    0.00000
   82      4.38440    0.00000
   83      5.34418    0.00000
   84      5.87433    0.00000
   85      6.11194    0.00000
   86      6.72240    0.00000
   87      6.84719    0.00000
   88      7.35583    0.00000
   89      7.69945    0.00000
   90      8.05804    0.00000
   91      8.32214    0.00000
   92      8.40041    0.00000
   93      8.68961    0.00000
   94      8.73978    0.00000
   95      8.83463    0.00000
   96      9.12395    0.00000
   97      9.26766    0.00000


Forces in eV/Ang:
  0 C    -1.78347    9.30015   -2.42475
  1 C    -3.35414    0.84826    0.73911
  2 C    13.12079   -2.90440    6.49842
  3 C    11.97321  -10.47019   -4.40791
  4 C     7.44394    1.57271   -4.05320
  5 C    -4.56358    3.40591   -0.50447
  6 C     2.34649   -4.54084    1.64639
  7 C     0.67608    0.28345   -0.23412
  8 C     4.54700    1.23960    1.30119
  9 C    -5.85677  -11.11084   -4.50405
 10 C    -2.93164   -0.37434   -1.42542
 11 C     0.78716    0.18824    1.55091
 12 C    -2.30698   -0.65151    0.60352
 13 C    -0.25380    0.23758   -2.09778
 14 C    -9.58882    7.68125    2.17659
 15 C     0.04229    1.05990   -0.64260
 16 C   -16.30984   11.74501   -3.52478
 17 C     0.69083   -5.52172   -1.31304
 18 C     3.75674   -1.93321    1.01946
 19 C     4.42608    2.47207    2.13130
 20 C    -4.00707   -3.36739   -1.09322
 21 C     0.95782    0.90662    1.98727
 22 C    -2.39994   -4.33979    2.68497
 23 C     2.48961    4.30808    3.94946

System changes: positions 

Initializing position-dependent things.

Density initialized from wave functions
           .--------------------------------------.  
          /|                                      |  
         / |                                      |  
        /  |                                      |  
       /   |                                      |  
      /    |                                      |  
     /     |                                      |  
    /      |                                      |  
   /       |                                      |  
  /        |            C     C                   |  
 *         |   C  C      C                        |  
 |         |     C   C C CC     C  C              |  
 |         .--C-C------C-----C--------------------.  
 |        /      C  C  C C                       /   
 |       /      C           C                   /    
 |      /          C                           /     
 |     /                                      /      
 |    /                                      /       
 |   /                                      /        
 |  /                                      /         
 | /                                      /          
 |/                                      /           
 *--------------------------------------*            

Positions:
   0 C      7.205375   10.517101    4.763873
   1 C      8.381278    3.239475    5.461740
   2 C      7.907106    8.437275    5.155779
   3 C      8.313152    5.184690    4.650422
   4 C      4.243168   10.167343    4.722233
   5 C     11.677671    8.474897    4.469392
   6 C      6.359605   11.719806    4.366406
   7 C     10.399333    4.847857    5.464161
   8 C      6.831741    9.005800    4.678961
   9 C      6.963006    7.603759    4.632638
  10 C      6.413627    3.778875    4.278550
  11 C      5.010780    4.897225    4.278603
  12 C      9.697761    5.172538    4.388076
  13 C      4.720991    5.330185    5.537172
  14 C      7.423229    6.025048    4.898023
  15 C      5.581267    3.504394    5.674884
  16 C      5.817395    9.573985    4.302349
  17 C      9.168839   11.234399    4.690118
  18 C      7.004976    3.640205    5.636831
  19 C      3.520995    6.432956    4.610791
  20 C      4.620918    7.551266    5.191971
  21 C     10.072973    9.711029    4.277488
  22 C      3.480499    9.397619    5.369990
  23 C      8.067834    7.060052    5.435787

Unit cell:
           periodic     x           y           z      points  spacing
  1. axis:    yes   16.000000    0.000000    0.000000    80     0.2000
  2. axis:    yes    0.000000   16.000000    0.000000    80     0.2000
  3. axis:    yes    0.000000    0.000000   10.000000    48     0.2083

Effective grid spacing dv^(1/3) = 0.2027

                     log10-error:    total        iterations:
           time      wfs    density  energy       fermi  poisson
iter:   1  14:13:16          +inf  -131.450306    3      5      
iter:   2  14:13:17         -1.86  -131.393973    3      2      
iter:   3  14:13:17         -1.98  -131.369013    2      2      
iter:   4  14:13:18         -2.09  -131.346427    3      2      
iter:   5  14:13:18         -2.23  -131.337823    2      2      
iter:   6  14:13:19         -2.40  -131.335686    3      2      
iter:   7  14:13:19         -2.61  -131.333872    2      2      
iter:   8  14:13:20         -2.76  -131.333174    2      2      
iter:   9  14:13:21         -2.93  -131.332371    2      2      
iter:  10  14:13:21         -3.07  -131.334872    2      1      
iter:  11  14:13:22         -3.25  -131.334177    2      1      
iter:  12  14:13:22         -3.40  -131.332713    2      1      
iter:  13  14:13:23         -3.54  -131.332353    2      1      
iter:  14  14:13:23         -3.63  -131.332110    2      1      
iter:  15  14:13:24         -3.74  -131.331699    2      1      
iter:  16  14:13:24         -3.90  -131.331490    2      1      
iter:  17  14:13:25         -4.12  -131.331761    2      1      

Converged after 17 iterations.

Dipole moment: (0.561671, -0.127817, -0.069418) |e|*Ang

Energy contributions relative to reference atoms: (reference = -24663.074771)

Kinetic:        +94.248341
Potential:      -93.994019
External:        +0.000000
XC:            -133.985668
Entropy (-ST):   -0.367071
Local:           +2.583120
--------------------------
Free energy:   -131.515296
Extrapolated:  -131.331761

Fermi level: -5.17149

 Band  Eigenvalues  Occupancy
    0    -28.44369    2.00000
    1    -24.48738    2.00000
    2    -23.40781    2.00000
    3    -22.68394    2.00000
    4    -20.68482    2.00000
    5    -19.86804    2.00000
    6    -18.94059    2.00000
    7    -18.70976    2.00000
    8    -17.68381    2.00000
    9    -17.63432    2.00000
   10    -16.22357    2.00000
   11    -15.83858    2.00000
   12    -15.73446    2.00000
   13    -15.47564    2.00000
   14    -14.16587    2.00000
   15    -14.01256    2.00000
   16    -13.86575    2.00000
   17    -13.61884    2.00000
   18    -12.73397    2.00000
   19    -12.60669    2.00000
   20    -12.00349    2.00000
   21    -11.34195    2.00000
   22    -10.93787    2.00000
   23    -10.80559    2.00000
   24    -10.35140    2.00000
   25     -9.85011    2.00000
   26     -9.54663    2.00000
   27     -9.32666    2.00000
   28     -8.99721    2.00000
   29     -8.63494    2.00000
   30     -8.27881    2.00000
   31     -8.04074    2.00000
   32     -7.91422    2.00000
   33     -7.67758    2.00000
   34     -7.38974    2.00000
   35     -7.27370    2.00000
   36     -6.77993    2.00000
   37     -6.73146    2.00000
   38     -6.60169    2.00000
   39     -6.44666    1.99999
   40     -6.35499    1.99999
   41     -6.12170    1.99985
   42     -6.02968    1.99963
   43     -5.80274    1.99638
   44     -5.73449    1.99285
   45     -5.56560    1.96189
   46     -5.41284    1.83571
   47     -5.26830    1.44949
   48     -5.10621    0.68473
   49     -4.83658    0.06785
   50     -4.64659    0.01045
   51     -4.39870    0.00088
   52     -4.27596    0.00026
   53     -4.14779    0.00007
   54     -3.69521    0.00000
   55     -3.64280    0.00000
   56     -3.36781    0.00000
   57     -3.25327    0.00000
   58     -2.98742    0.00000
   59     -2.82253    0.00000
   60     -2.61151    0.00000
   61     -2.19265    0.00000
   62     -2.08870    0.00000
   63     -1.69381    0.00000
   64     -1.58314    0.00000
   65     -1.42922    0.00000
   66     -1.36882    0.00000
   67     -0.81919    0.00000
   68     -0.62161    0.00000
   69     -0.02418    0.00000
   70      0.31309    0.00000
   71      0.42428    0.00000
   72      1.04093    0.00000
   73      1.38166    0.00000
   74      1.46759    0.00000
   75      1.57134    0.00000
   76      2.70515    0.00000
   77      2.90848    0.00000
   78      2.99858    0.00000
   79      3.67714    0.00000
   80      3.91250    0.00000
   81      4.03950    0.00000
   82      4.44248    0.00000
   83      5.40572    0.00000
   84      5.99727    0.00000
   85      6.41142    0.00000
   86      6.65312    0.00000
   87      6.79281    0.00000
   88      7.35244    0.00000
   89      7.76306    0.00000
   90      8.09752    0.00000
   91      8.36091    0.00000
   92      8.46151    0.00000
   93      8.60954    0.00000
   94      8.71566    0.00000
   95      8.85592    0.00000
   96      9.11041    0.00000
   97      9.19816    0.00000


Forces in eV/Ang:
  0 C    -1.67747    8.43718   -2.39364
  1 C    -3.17780    0.93531    0.66492
  2 C    10.59752   -2.74204    5.23948
  3 C     7.58161   -7.14016   -3.05365
  4 C     6.28729    0.22717   -3.06830
  5 C    -4.61033    3.45663   -0.50463
  6 C     2.22595   -4.27126    1.53801
  7 C     0.75192    0.32622   -0.21484
  8 C     1.96971    2.51089    0.31828
  9 C    -4.58655   -9.51571   -3.59084
 10 C    -2.97622   -0.49017   -1.31829
 11 C     0.85649    0.16933    1.31601
 12 C    -1.62459   -0.50693    0.42775
 13 C    -0.26949    0.20649   -1.87486
 14 C    -6.09110    4.86442    1.11634
 15 C     0.31137    1.09328   -0.73542
 16 C   -12.13146    9.05787   -1.85303
 17 C     0.79516   -5.48738   -1.31025
 18 C     3.25832   -1.81564    1.00906
 19 C     4.42856    2.62243    2.19419
 20 C    -4.00407   -3.49434   -1.19577
 21 C     0.88990    0.86581    2.01556
 22 C    -1.18749   -3.00264    1.65817
 23 C     2.30458    3.72475    3.61619

System changes: positions 

Initializing position-dependent things.

Density initialized from wave functions
           .--------------------------------------.  
          /|                                      |  
         / |                                      |  
        /  |                                      |  
       /   |                                      |  
      /    |                                      |  
     /     |                                      |  
    /      |                                      |  
   /       |                                      |  
  /        |            C     C                   |  
 *         |   C  C      C                        |  
 |         |     C   C C CC     C  C              |  
 |         .--C-C------C-----C--------------------.  
 |        /      C  C  C C                       /   
 |       /      C           C                   /    
 |      /          C                           /     
 |     /                                      /      
 |    /                                      /       
 |   /                                      /        
 |  /                                      /         
 | /                                      /          
 |/                                      /           
 *--------------------------------------*            

Positions:
   0 C      7.197832   10.552631    4.752233
   1 C      8.366811    3.244748    5.464495
   2 C      7.941227    8.424866    5.172565
   3 C      8.318683    5.173599    4.645169
   4 C      4.265896   10.158647    4.714211
   5 C     11.654472    8.492404    4.466889
   6 C      6.369761   11.700598    4.373240
   7 C     10.403614    4.849787    5.463237
   8 C      6.822693    9.027529    4.673364
   9 C      6.949539    7.568227    4.621501
  10 C      6.398547    3.775599    4.272796
  11 C      5.015533    4.897926    4.283413
  12 C      9.694688    5.171081    4.388914
  13 C      4.719541    5.330982    5.529504
  14 C      7.418563    6.028602    4.895818
  15 C      5.584775    3.510057    5.670560
  16 C      5.787751    9.599277    4.305366
  17 C      9.173543   11.207444    4.683643
  18 C      7.017491    3.632062    5.641758
  19 C      3.542969    6.447055    4.622128
  20 C      4.601089    7.533015    5.185294
  21 C     10.076889    9.715024    4.287687
  22 C      3.483463    9.392493    5.370715
  23 C      8.077909    7.074260    5.451283

Unit cell:
           periodic     x           y           z      points  spacing
  1. axis:    yes   16.000000    0.000000    0.000000    80     0.2000
  2. axis:    yes    0.000000   16.000000    0.000000    80     0.2000
  3. axis:    yes    0.000000    0.000000   10.000000    48     0.2083

Effective grid spacing dv^(1/3) = 0.2027

                     log10-error:    total        iterations:
           time      wfs    density  energy       fermi  poisson
iter:   1  14:13:26          +inf  -134.755001    3      5      
iter:   2  14:13:27         -1.62  -134.544840    3      2      
iter:   3  14:13:27         -1.86  -134.459610    2      2      
iter:   4  14:13:28         -2.02  -134.422878    2      2      
iter:   5  14:13:28         -2.18  -134.417373    2      2      
iter:   6  14:13:29         -2.25  -134.407857    2      2      
iter:   7  14:13:29         -2.46  -134.407825    2      2      
iter:   8  14:13:30         -2.54  -134.405993    3      2      
iter:   9  14:13:31         -2.77  -134.406260    2      2      
iter:  10  14:13:31         -2.87  -134.406000    2      2      
iter:  11  14:13:32         -3.09  -134.406150    2      2      
iter:  12  14:13:32         -3.28  -134.406069    2      1      
iter:  13  14:13:33         -3.38  -134.406436    2      1      
iter:  14  14:13:33         -3.49  -134.406941    2      1      
iter:  15  14:13:34         -3.65  -134.406558    2      1      
iter:  16  14:13:34         -3.72  -134.407039    2      1      
iter:  17  14:13:35         -3.97  -134.406906    2      1      
iter:  18  14:13:35         -4.23  -134.406199    2      1      

Converged after 18 iterations.

Dipole moment: (0.528001, -0.168360, -0.079471) |e|*Ang

Energy contributions relative to reference atoms: (reference = -24663.074771)

Kinetic:        +84.145236
Potential:      -87.487093
External:        +0.000000
XC:            -133.473013
Entropy (-ST):   -0.344828
Local:           +2.581086
--------------------------
Free energy:   -134.578613
Extrapolated:  -134.406199

Fermi level: -5.20376

 Band  Eigenvalues  Occupancy
    0    -27.81976    2.00000
    1    -24.18444    2.00000
    2    -23.34493    2.00000
    3    -22.49418    2.00000
    4    -20.57711    2.00000
    5    -19.99684    2.00000
    6    -18.89889    2.00000
    7    -18.70709    2.00000
    8    -17.83419    2.00000
    9    -17.60971    2.00000
   10    -16.43542    2.00000
   11    -15.97564    2.00000
   12    -15.89245    2.00000
   13    -15.26715    2.00000
   14    -14.17676    2.00000
   15    -14.06536    2.00000
   16    -13.91810    2.00000
   17    -13.29717    2.00000
   18    -12.92999    2.00000
   19    -12.68440    2.00000
   20    -11.99275    2.00000
   21    -11.25682    2.00000
   22    -10.92560    2.00000
   23    -10.77140    2.00000
   24    -10.38198    2.00000
   25     -9.86406    2.00000
   26     -9.55776    2.00000
   27     -9.33340    2.00000
   28     -9.06991    2.00000
   29     -8.54908    2.00000
   30     -8.37972    2.00000
   31     -8.06697    2.00000
   32     -7.91774    2.00000
   33     -7.61693    2.00000
   34     -7.38904    2.00000
   35     -7.29635    2.00000
   36     -6.85227    2.00000
   37     -6.77335    2.00000
   38     -6.62268    2.00000
   39     -6.49580    2.00000
   40     -6.32957    1.99997
   41     -6.18489    1.99989
   42     -6.08244    1.99969
   43     -5.86354    1.99728
   44     -5.78253    1.99389
   45     -5.61784    1.96868
   46     -5.46051    1.85748
   47     -5.30098    1.45113
   48     -5.13873    0.68586
   49     -4.80861    0.03773
   50     -4.64438    0.00741
   51     -4.40529    0.00068
   52     -4.30238    0.00024
   53     -4.16449    0.00006
   54     -3.65854    0.00000
   55     -3.59882    0.00000
   56     -3.45887    0.00000
   57     -3.14062    0.00000
   58     -2.89202    0.00000
   59     -2.70284    0.00000
   60     -2.50247    0.00000
   61     -2.13626    0.00000
   62     -2.04806    0.00000
   63     -1.59695    0.00000
   64     -1.51262    0.00000
   65     -1.29264    0.00000
   66     -1.25377    0.00000
   67     -0.62464    0.00000
   68     -0.49856    0.00000
   69      0.05015    0.00000
   70      0.23554    0.00000
   71      0.40933    0.00000
   72      0.95071    0.00000
   73      1.39563    0.00000
   74      1.52907    0.00000
   75      1.66118    0.00000
   76      2.75093    0.00000
   77      3.09069    0.00000
   78      3.31528    0.00000
   79      3.49652    0.00000
   80      4.00622    0.00000
   81      4.32616    0.00000
   82      4.73324    0.00000
   83      5.56401    0.00000
   84      5.99236    0.00000
   85      6.30145    0.00000
   86      6.83858    0.00000
   87      7.09365    0.00000
   88      7.39294    0.00000
   89      7.85134    0.00000
   90      8.19306    0.00000
   91      8.39079    0.00000
   92      8.47411    0.00000
   93      8.61256    0.00000
   94      8.72630    0.00000
   95      8.84850    0.00000
   96      9.08837    0.00000
   97      9.16864    0.00000


Forces in eV/Ang:
  0 C    -1.16833    6.85716   -2.17584
  1 C    -2.51610    0.73433    0.58196
  2 C     6.56258   -1.24463    3.23930
  3 C     6.41874   -6.17277   -2.69398
  4 C     5.71459   -0.53300   -2.62985
  5 C    -4.72635    3.58169   -0.47108
  6 C     1.83189   -3.41252    1.32240
  7 C     0.71812    0.37094   -0.25308
  8 C     3.73902    0.66326    0.84524
  9 C    -3.35852   -7.17357   -2.58859
 10 C    -3.03131   -0.58564   -1.03103
 11 C     1.01420    0.00296    0.95020
 12 C    -1.35984   -0.50763    0.43751
 13 C    -0.43263    0.26917   -1.60598
 14 C    -5.02389    4.98008    1.06434
 15 C     0.63497    0.98606   -0.86797
 16 C   -10.84236    7.82410   -1.03931
 17 C     0.99688   -5.43467   -1.28325
 18 C     2.35608   -1.51438    0.91947
 19 C     4.41738    2.76384    2.29455
 20 C    -3.90778   -3.51325   -1.25559
 21 C     0.85118    0.80933    2.03170
 22 C    -0.64939   -2.26449    1.14314
 23 C     1.76624    2.52017    3.05490

System changes: positions 

Initializing position-dependent things.

Density initialized from wave functions
           .--------------------------------------.  
          /|                                      |  
         / |                                      |  
        /  |                                      |  
       /   |                                      |  
      /    |                                      |  
     /     |                                      |  
    /      |                                      |  
   /       |                                      |  
  /        |            C     C                   |  
 *         |   C  C      C                        |  
 |         |     C   C C CC     C  C              |  
 |         .--C-C------C-----C--------------------.  
 |        /      C  C  C C                       /   
 |       /      C           C                   /    
 |      /          C                           /     
 |     /                                      /      
 |    /                                      /       
 |   /                                      /        
 |  /                                      /         
 | /                                      /          
 |/                                      /           
 *--------------------------------------*            

Positions:
   0 C      7.193339   10.581636    4.740622
   1 C      8.355507    3.248916    5.467102
   2 C      7.950545    8.423236    5.177052
   3 C      8.323667    5.162597    4.639543
   4 C      4.289459   10.144660    4.706805
   5 C     11.626763    8.513612    4.464290
   6 C      6.378302   11.685347    4.379473
   7 C     10.408115    4.852319    5.461798
   8 C      6.832745    9.034031    4.673433
   9 C      6.942148    7.544395    4.615545
  10 C      6.380738    3.771215    4.268437
  11 C      5.022256    4.897326    4.286252
  12 C      9.692088    5.169104    4.390315
  13 C      4.716477    5.332509    5.522544
  14 C      7.415518    6.039302    4.894922
  15 C      5.591108    3.515600    5.664598
  16 C      5.756437    9.623087    4.312611
  17 C      9.180524   11.176703    4.676393
  18 C      7.025087    3.625044    5.646690
  19 C      3.568246    6.464271    4.635971
  20 C      4.579018    7.512023    5.177265
  21 C     10.081210    9.719227    4.299551
  22 C      3.489161    9.390342    5.369110
  23 C      8.085230    7.081350    5.464958

Unit cell:
           periodic     x           y           z      points  spacing
  1. axis:    yes   16.000000    0.000000    0.000000    80     0.2000
  2. axis:    yes    0.000000   16.000000    0.000000    80     0.2000
  3. axis:    yes    0.000000    0.000000   10.000000    48     0.2083

Effective grid spacing dv^(1/3) = 0.2027

                     log10-error:    total        iterations:
           time      wfs    density  energy       fermi  poisson
iter:   1  14:13:37          +inf  -137.098092    3      5      
iter:   2  14:13:37         -1.62  -136.882949    3      2      
iter:   3  14:13:38         -1.91  -136.828250    2      2      
iter:   4  14:13:39         -2.06  -136.809193    2      2      
iter:   5  14:13:39         -2.17  -136.798167    2      2      
iter:   6  14:13:40         -2.30  -136.790865    3      2      
iter:   7  14:13:40         -2.49  -136.790891    2      2      
iter:   8  14:13:41         -2.62  -136.790076    2      2      
iter:   9  14:13:41         -2.77  -136.789624    2      2      
iter:  10  14:13:42         -2.95  -136.789861    2      2      
iter:  11  14:13:42         -3.12  -136.787531    2      1      
iter:  12  14:13:43         -3.31  -136.790207    2      1      
iter:  13  14:13:43         -3.48  -136.791241    2      1      
iter:  14  14:13:44         -3.62  -136.790035    2      1      
iter:  15  14:13:44         -3.70  -136.789672    1      1      
iter:  16  14:13:45         -3.89  -136.790644    2      1      
iter:  17  14:13:45         -4.12  -136.790115    2      1      

Converged after 17 iterations.

Dipole moment: (0.484248, -0.203505, -0.090022) |e|*Ang

Energy contributions relative to reference atoms: (reference = -24663.074771)

Kinetic:        +79.921616
Potential:      -85.019615
External:        +0.000000
XC:            -134.127593
Entropy (-ST):   -0.330990
Local:           +2.600971
--------------------------
Free energy:   -136.955610
Extrapolated:  -136.790115

Fermi level: -5.22149

 Band  Eigenvalues  Occupancy
    0    -27.59387    2.00000
    1    -23.97079    2.00000
    2    -23.30457    2.00000
    3    -22.34666    2.00000
    4    -20.60204    2.00000
    5    -20.11402    2.00000
    6    -19.00782    2.00000
    7    -18.68465    2.00000
    8    -17.99388    2.00000
    9    -17.57027    2.00000
   10    -16.66389    2.00000
   11    -16.14493    2.00000
   12    -15.97975    2.00000
   13    -15.18447    2.00000
   14    -14.21186    2.00000
   15    -14.13094    2.00000
   16    -13.97446    2.00000
   17    -13.31594    2.00000
   18    -13.09800    2.00000
   19    -12.69337    2.00000
   20    -11.99275    2.00000
   21    -11.21004    2.00000
   22    -10.90515    2.00000
   23    -10.70869    2.00000
   24    -10.39234    2.00000
   25     -9.88127    2.00000
   26     -9.54086    2.00000
   27     -9.33807    2.00000
   28     -9.11469    2.00000
   29     -8.57988    2.00000
   30     -8.41562    2.00000
   31     -8.13920    2.00000
   32     -7.94290    2.00000
   33     -7.53742    2.00000
   34     -7.39856    2.00000
   35     -7.32352    2.00000
   36     -6.94109    2.00000
   37     -6.83935    2.00000
   38     -6.64744    2.00000
   39     -6.54450    2.00000
   40     -6.31789    1.99997
   41     -6.22241    1.99991
   42     -6.12095    1.99975
   43     -5.88444    1.99736
   44     -5.81421    1.99468
   45     -5.65883    1.97510
   46     -5.49372    1.87666
   47     -5.31950    1.45426
   48     -5.15170    0.66457
   49     -4.80710    0.03123
   50     -4.63370    0.00559
   51     -4.41500    0.00063
   52     -4.32094    0.00025
   53     -4.18294    0.00006
   54     -3.66947    0.00000
   55     -3.58522    0.00000
   56     -3.46828    0.00000
   57     -2.99144    0.00000
   58     -2.78796    0.00000
   59     -2.61964    0.00000
   60     -2.40179    0.00000
   61     -2.11363    0.00000
   62     -1.95466    0.00000
   63     -1.49293    0.00000
   64     -1.45536    0.00000
   65     -1.16460    0.00000
   66     -1.07845    0.00000
   67     -0.49656    0.00000
   68     -0.39553    0.00000
   69      0.12322    0.00000
   70      0.21262    0.00000
   71      0.43356    0.00000
   72      0.94035    0.00000
   73      1.40678    0.00000
   74      1.63998    0.00000
   75      1.79502    0.00000
   76      2.85295    0.00000
   77      3.17623    0.00000
   78      3.25628    0.00000
   79      3.85651    0.00000
   80      4.06265    0.00000
   81      4.72659    0.00000
   82      5.23932    0.00000
   83      5.75127    0.00000
   84      6.00925    0.00000
   85      6.28192    0.00000
   86      6.94690    0.00000
   87      7.25071    0.00000
   88      7.57743    0.00000
   89      7.91527    0.00000
   90      8.23969    0.00000
   91      8.42006    0.00000
   92      8.51078    0.00000
   93      8.70135    0.00000
   94      8.78285    0.00000
   95      8.86009    0.00000
   96      9.04344    0.00000
   97      9.20766    0.00000


Forces in eV/Ang:
  0 C    -0.62171    5.33961   -1.94053
  1 C    -1.97370    0.67680    0.47630
  2 C     5.49610   -1.11124    2.76625
  3 C     5.17530   -5.38951   -2.24981
  4 C     5.29093   -0.84681   -2.42611
  5 C    -4.89620    3.75574   -0.47356
  6 C     1.26209   -2.43727    1.00698
  7 C     0.73130    0.39833   -0.25474
  8 C     1.72487    1.69173    0.11662
  9 C    -2.82269   -6.33012   -2.14007
 10 C    -3.06428   -0.65425   -0.86275
 11 C     1.16698   -0.12837    0.78731
 12 C    -1.11949   -0.44275    0.38839
 13 C    -0.58065    0.27218   -1.53632
 14 C    -4.10872    4.42334    0.73504
 15 C     0.73123    0.85012   -0.93062
 16 C    -7.98690    6.01519    0.01473
 17 C     1.25179   -5.39862   -1.27027
 18 C     1.73085   -1.21856    0.88235
 19 C     4.21042    2.73349    2.33817
 20 C    -3.65376   -3.32477   -1.19846
 21 C     0.85791    0.73104    1.98975
 22 C    -0.50090   -1.87073    0.96206
 23 C     1.63589    2.30072    2.83724

System changes: positions 

Initializing position-dependent things.

Density initialized from wave functions
           .--------------------------------------.  
          /|                                      |  
         / |                                      |  
        /  |                                      |  
       /   |                                      |  
      /    |                                      |  
     /     |                                      |  
    /      |                                      |  
   /       |                                      |  
  /        |            C     C                   |  
 *         |   C  C      C                        |  
 |         |     C   C C CC     C  C              |  
 |         .--C-C------C-----C--------------------.  
 |        /      C  C  C C                       /   
 |       /      C           C                   /    
 |      /          C                           /     
 |     /                                      /      
 |    /                                      /       
 |   /                                      /        
 |  /                                      /         
 | /                                      /          
 |/                                      /           
 *--------------------------------------*            

Positions:
   0 C      7.193234   10.601425    4.730125
   1 C      8.347728    3.252734    5.469144
   2 C      7.958750    8.421703    5.181534
   3 C      8.329242    5.148970    4.633975
   4 C      4.314235   10.130362    4.697941
   5 C     11.595258    8.538093    4.461435
   6 C      6.382563   11.677126    4.383572
   7 C     10.412934    4.855197    5.460187
   8 C      6.830372    9.048367    4.668888
   9 C      6.935410    7.521471    4.610565
  10 C      6.361254    3.766149    4.264926
  11 C      5.030765    4.895532    4.288538
  12 C      9.689661    5.167202    4.391823
  13 C      4.711841    5.334251    5.514966
  14 C      7.411299    6.052972    4.893618
  15 C      5.598052    3.520258    5.657832
  16 C      5.738338    9.639138    4.325835
  17 C      9.190184   11.143607    4.668639
  18 C      7.029003    3.619845    5.651744
  19 C      3.593658    6.482186    4.651190
  20 C      4.557485    7.491422    5.169407
  21 C     10.086156    9.723162    4.311928
  22 C      3.493327    9.387943    5.368565
  23 C      8.092626    7.088971    5.478808

Unit cell:
           periodic     x           y           z      points  spacing
  1. axis:    yes   16.000000    0.000000    0.000000    80     0.2000
  2. axis:    yes    0.000000   16.000000    0.000000    80     0.2000
  3. axis:    yes    0.000000    0.000000   10.000000    48     0.2083

Effective grid spacing dv^(1/3) = 0.2027

                     log10-error:    total        iterations:
           time      wfs    density  energy       fermi  poisson
iter:   1  14:13:47          +inf  -139.078560    3      5      
iter:   2  14:13:48         -1.61  -138.848461    3      2      
iter:   3  14:13:48         -1.90  -138.791272    3      2      
iter:   4  14:13:49         -2.08  -138.773259    2      2      
iter:   5  14:13:49         -2.20  -138.764929    2      2      
iter:   6  14:13:50         -2.34  -138.760389    3      2      
iter:   7  14:13:50         -2.52  -138.760020    2      2      
iter:   8  14:13:51         -2.66  -138.759609    2      2      
iter:   9  14:13:51         -2.80  -138.759201    3      2      
iter:  10  14:13:52         -3.01  -138.754564    2      1      
iter:  11  14:13:52         -3.17  -138.756271    2      1      
iter:  12  14:13:53         -3.34  -138.761218    2      1      
iter:  13  14:13:53         -3.53  -138.760288    2      1      
iter:  14  14:13:54         -3.64  -138.760521    2      1      
iter:  15  14:13:54         -3.69  -138.760533    2      1      
iter:  16  14:13:55         -3.82  -138.759153    2      1      
iter:  17  14:13:55         -4.04  -138.759630    2      1      

Converged after 17 iterations.

Dipole moment: (0.433905, -0.235240, -0.106521) |e|*Ang

Energy contributions relative to reference atoms: (reference = -24663.074771)

Kinetic:        +78.600849
Potential:      -84.620389
External:        +0.000000
XC:            -135.194880
Entropy (-ST):   -0.321180
Local:           +2.615380
--------------------------
Free energy:   -138.920220
Extrapolated:  -138.759630

Fermi level: -5.23504

 Band  Eigenvalues  Occupancy
    0    -27.33070    2.00000
    1    -23.82509    2.00000
    2    -23.32201    2.00000
    3    -22.24713    2.00000
    4    -20.62577    2.00000
    5    -20.21410    2.00000
    6    -19.11166    2.00000
    7    -18.61745    2.00000
    8    -18.14688    2.00000
    9    -17.54951    2.00000
   10    -16.88469    2.00000
   11    -16.32295    2.00000
   12    -16.04770    2.00000
   13    -15.12695    2.00000
   14    -14.25090    2.00000
   15    -14.20078    2.00000
   16    -14.06627    2.00000
   17    -13.49790    2.00000
   18    -12.98793    2.00000
   19    -12.69167    2.00000
   20    -11.99440    2.00000
   21    -11.17497    2.00000
   22    -10.87829    2.00000
   23    -10.62798    2.00000
   24    -10.40148    2.00000
   25     -9.91598    2.00000
   26     -9.57342    2.00000
   27     -9.37315    2.00000
   28     -9.13102    2.00000
   29     -8.66833    2.00000
   30     -8.41695    2.00000
   31     -8.21351    2.00000
   32     -7.95652    2.00000
   33     -7.49498    2.00000
   34     -7.39023    2.00000
   35     -7.35127    2.00000
   36     -7.00834    2.00000
   37     -6.89916    2.00000
   38     -6.66526    2.00000
   39     -6.56727    2.00000
   40     -6.31752    1.99996
   41     -6.24238    1.99992
   42     -6.17397    1.99983
   43     -5.91184    1.99770
   44     -5.84024    1.99530
   45     -5.69270    1.97963
   46     -5.51980    1.89039
   47     -5.33096    1.44592
   48     -5.16475    0.66233
   49     -4.79248    0.02365
   50     -4.62516    0.00448
   51     -4.41698    0.00056
   52     -4.34386    0.00027
   53     -4.19618    0.00006
   54     -3.69314    0.00000
   55     -3.55219    0.00000
   56     -3.41854    0.00000
   57     -2.84314    0.00000
   58     -2.68936    0.00000
   59     -2.54964    0.00000
   60     -2.32577    0.00000
   61     -2.06812    0.00000
   62     -1.84857    0.00000
   63     -1.43211    0.00000
   64     -1.37143    0.00000
   65     -1.06503    0.00000
   66     -0.86396    0.00000
   67     -0.40703    0.00000
   68     -0.25219    0.00000
   69      0.13041    0.00000
   70      0.24268    0.00000
   71      0.49570    0.00000
   72      0.97211    0.00000
   73      1.44755    0.00000
   74      1.78771    0.00000
   75      1.94857    0.00000
   76      2.93368    0.00000
   77      3.08710    0.00000
   78      3.24560    0.00000
   79      4.11889    0.00000
   80      4.47057    0.00000
   81      4.84098    0.00000
   82      5.77169    0.00000
   83      5.84290    0.00000
   84      6.03717    0.00000
   85      6.41276    0.00000
   86      7.15174    0.00000
   87      7.30642    0.00000
   88      7.67446    0.00000
   89      7.95751    0.00000
   90      8.24758    0.00000
   91      8.45702    0.00000
   92      8.59776    0.00000
   93      8.78652    0.00000
   94      8.84031    0.00000
   95      8.88250    0.00000
   96      9.01707    0.00000
   97      9.27097    0.00000


Forces in eV/Ang:
  0 C    -0.11916    4.24023   -1.74857
  1 C    -1.56508    0.67405    0.38220
  2 C     4.15375   -0.67835    2.17208
  3 C     3.76971   -4.48146   -1.74462
  4 C     4.64737   -1.15792   -2.08001
  5 C    -5.08324    3.92984   -0.44082
  6 C     0.82343   -1.70735    0.78749
  7 C     0.74322    0.41279   -0.24204
  8 C     2.20525    1.19958    0.25075
  9 C    -2.36880   -5.52676   -1.80315
 10 C    -3.08980   -0.68957   -0.75932
 11 C     1.33097   -0.29969    0.71347
 12 C    -0.83363   -0.37956    0.31748
 13 C    -0.75869    0.31572   -1.55518
 14 C    -3.09387    3.53504    0.41576
 15 C     0.70312    0.71358   -0.94542
 16 C    -7.17554    5.31772    0.30061
 17 C     1.45717   -5.33322   -1.22291
 18 C     1.39765   -0.97993    0.84171
 19 C     3.74609    2.38103    2.26386
 20 C    -3.16550   -2.81518   -1.05181
 21 C     0.90485    0.62848    1.96199
 22 C    -0.23139   -1.41161    0.67569
 23 C     1.48207    2.06183    2.60683

System changes: positions 

Initializing position-dependent things.

Density initialized from wave functions
           .--------------------------------------.  
          /|                                      |  
         / |                                      |  
        /  |                                      |  
       /   |                                      |  
      /    |                                      |  
     /     |                                      |  
    /      |                                      |  
   /       |                                      |  
  /        |            C     C                   |  
 *         |   C  C      C                        |  
 |         |     C   C C CC     C  C              |  
 |         .--C-C------C-----C--------------------.  
 |        /      C  C  C C                       /   
 |       /      C           C                   /    
 |      /          C                           /     
 |     /                                      /      
 |    /                                      /       
 |   /                                      /        
 |  /                                      /         
 | /                                      /          
 |/                                      /           
 *--------------------------------------*            

Positions:
   0 C      7.196782   10.613904    4.721493
   1 C      8.342761    3.256573    5.470449
   2 C      7.962988    8.422010    5.184692
   3 C      8.328458    5.139077    4.631211
   4 C      4.333981   10.116608    4.690976
   5 C     11.563821    8.562705    4.458993
   6 C      6.383459   11.674166    4.385995
   7 C     10.417585    4.857940    5.458814
   8 C      6.834663    9.057670    4.666770
   9 C      6.929801    7.501665    4.606287
  10 C      6.342633    3.761308    4.261935
  11 C      5.040038    4.892512    4.290911
  12 C      9.688801    5.165797    4.392789
  13 C      4.706058    5.336274    5.506878
  14 C      7.410962    6.060769    4.890793
  15 C      5.603530    3.523570    5.651598
  16 C      5.720296    9.653790    4.337329
  17 C      9.200776   11.112634    4.661677
  18 C      7.031814    3.616442    5.656322
  19 C      3.613452    6.495424    4.664686
  20 C      4.541449    7.476845    5.163530
  21 C     10.091446    9.726089    4.323402
  22 C      3.497637    9.387250    5.367311
  23 C      8.099248    7.096467    5.491085

Unit cell:
           periodic     x           y           z      points  spacing
  1. axis:    yes   16.000000    0.000000    0.000000    80     0.2000
  2. axis:    yes    0.000000   16.000000    0.000000    80     0.2000
  3. axis:    yes    0.000000    0.000000   10.000000    48     0.2083

Effective grid spacing dv^(1/3) = 0.2027

                     log10-error:    total        iterations:
           time      wfs    density  energy       fermi  poisson
iter:   1  14:13:57          +inf  -140.533297    3      5      
iter:   2  14:13:58         -1.65  -140.342267    3      2      
iter:   3  14:13:58         -1.94  -140.291192    3      2      
iter:   4  14:13:59         -2.14  -140.276529    2      2      
iter:   5  14:13:59         -2.28  -140.272188    2      2      
iter:   6  14:14:00         -2.41  -140.268510    3      2      
iter:   7  14:14:00         -2.59  -140.268081    2      2      
iter:   8  14:14:01         -2.74  -140.267658    2      2      
iter:   9  14:14:01         -2.92  -140.267551    2      2      
iter:  10  14:14:02         -3.13  -140.264365    2      1      
iter:  11  14:14:02         -3.27  -140.265382    2      1      
iter:  12  14:14:03         -3.48  -140.269497    2      1      
iter:  13  14:14:03         -3.63  -140.268712    2      1      
iter:  14  14:14:04         -3.73  -140.268605    2      1      
iter:  15  14:14:04         -3.82  -140.268614    2      1      
iter:  16  14:14:05         -3.96  -140.268178    2      1      
iter:  17  14:14:05         -4.15  -140.268029    2      1      

Converged after 17 iterations.

Dipole moment: (0.368897, -0.245279, -0.119468) |e|*Ang

Energy contributions relative to reference atoms: (reference = -24663.074771)

Kinetic:        +78.702177
Potential:      -85.169555
External:        +0.000000
XC:            -136.269598
Entropy (-ST):   -0.314040
Local:           +2.625968
--------------------------
Free energy:   -140.425049
Extrapolated:  -140.268029

Fermi level: -5.24307

 Band  Eigenvalues  Occupancy
    0    -27.14084    2.00000
    1    -23.71822    2.00000
    2    -23.32558    2.00000
    3    -22.16189    2.00000
    4    -20.65827    2.00000
    5    -20.25942    2.00000
    6    -19.24514    2.00000
    7    -18.58905    2.00000
    8    -18.25934    2.00000
    9    -17.51877    2.00000
   10    -17.04283    2.00000
   11    -16.48907    2.00000
   12    -16.08498    2.00000
   13    -15.13306    2.00000
   14    -14.29221    2.00000
   15    -14.26375    2.00000
   16    -14.18486    2.00000
   17    -13.61619    2.00000
   18    -12.90380    2.00000
   19    -12.69179    2.00000
   20    -12.00076    2.00000
   21    -11.15738    2.00000
   22    -10.86077    2.00000
   23    -10.56455    2.00000
   24    -10.39652    2.00000
   25     -9.95036    2.00000
   26     -9.58544    2.00000
   27     -9.42418    2.00000
   28     -9.11405    2.00000
   29     -8.74972    2.00000
   30     -8.40307    2.00000
   31     -8.26637    2.00000
   32     -7.97449    2.00000
   33     -7.48009    2.00000
   34     -7.39522    2.00000
   35     -7.36348    2.00000
   36     -7.06862    2.00000
   37     -6.95798    2.00000
   38     -6.67315    2.00000
   39     -6.58543    2.00000
   40     -6.33454    1.99996
   41     -6.25005    1.99992
   42     -6.22627    1.99989
   43     -5.93286    1.99798
   44     -5.86054    1.99585
   45     -5.70939    1.98130
   46     -5.53476    1.89735
   47     -5.34212    1.45836
   48     -5.16830    0.64265
   49     -4.79339    0.02204
   50     -4.61838    0.00387
   51     -4.41627    0.00051
   52     -4.34996    0.00026
   53     -4.20670    0.00006
   54     -3.72344    0.00000
   55     -3.53684    0.00000
   56     -3.38530    0.00000
   57     -2.73182    0.00000
   58     -2.61148    0.00000
   59     -2.46873    0.00000
   60     -2.26481    0.00000
   61     -2.00827    0.00000
   62     -1.75469    0.00000
   63     -1.40329    0.00000
   64     -1.28569    0.00000
   65     -1.00787    0.00000
   66     -0.66175    0.00000
   67     -0.32516    0.00000
   68     -0.11043    0.00000
   69      0.14931    0.00000
   70      0.26983    0.00000
   71      0.56289    0.00000
   72      1.01645    0.00000
   73      1.47782    0.00000
   74      1.92695    0.00000
   75      2.09499    0.00000
   76      2.84627    0.00000
   77      3.13579    0.00000
   78      3.29774    0.00000
   79      4.19360    0.00000
   80      4.81549    0.00000
   81      5.08422    0.00000
   82      5.71258    0.00000
   83      6.09235    0.00000
   84      6.23498    0.00000
   85      6.53454    0.00000
   86      7.24888    0.00000
   87      7.47667    0.00000
   88      7.72835    0.00000
   89      7.97824    0.00000
   90      8.26568    0.00000
   91      8.49682    0.00000
   92      8.64408    0.00000
   93      8.83874    0.00000
   94      8.86851    0.00000
   95      8.92830    0.00000
   96      9.00240    0.00000
   97      9.27127    0.00000


Forces in eV/Ang:
  0 C     0.13528    3.56477   -1.64898
  1 C    -1.27054    0.68163    0.31422
  2 C     3.37739   -0.59164    1.86614
  3 C     3.34939   -4.19628   -1.48484
  4 C     3.99796   -1.20086   -1.86376
  5 C    -5.28794    4.13622   -0.41393
  6 C     0.59995   -1.33389    0.66915
  7 C     0.73304    0.42305   -0.25129
  8 C     1.82657    1.44460    0.11119
  9 C    -2.08026   -4.97087   -1.50992
 10 C    -3.09870   -0.70291   -0.69707
 11 C     1.51805   -0.50963    0.67889
 12 C    -0.79938   -0.34805    0.30587
 13 C    -0.96074    0.40652   -1.60877
 14 C    -2.60375    3.29753    0.32265
 15 C     0.64468    0.58358   -0.94499
 16 C    -5.76453    4.45926    0.55753
 17 C     1.67929   -5.30884   -1.20849
 18 C     1.17867   -0.78936    0.77161
 19 C     3.13675    1.87075    2.11753
 20 C    -2.54256   -2.16897   -0.83429
 21 C     0.99901    0.53147    1.91289
 22 C    -0.15095   -1.18430    0.56579
 23 C     1.33023    1.83849    2.38066

System changes: positions 

Initializing position-dependent things.

Density initialized from wave functions
           .--------------------------------------.  
          /|                                      |  
         / |                                      |  
        /  |                                      |  
       /   |                                      |  
      /    |                                      |  
     /     |                                      |  
    /      |                                      |  
   /       |                                      |  
  /        |            C     C                   |  
 *         |   C  C      C                        |  
 |         |     C   C C CC     C C               |  
 |         .--C-C------C-----C--------------------.  
 |        /      C  C  C C  C                    /   
 |       /      C                               /    
 |      /          C                           /     
 |     /                                      /      
 |    /                                      /       
 |   /                                      /        
 |  /                                      /         
 | /                                      /          
 |/                                      /           
 *--------------------------------------*            

Positions:
   0 C      7.201062   10.623478    4.713648
   1 C      8.339402    3.260383    5.471344
   2 C      7.965076    8.421892    5.187346
   3 C      8.329716    5.128239    4.629082
   4 C      4.348478   10.104913    4.685134
   5 C     11.532536    8.587542    4.456896
   6 C      6.383619   11.672384    4.387956
   7 C     10.421831    4.860549    5.457410
   8 C      6.838024    9.067972    4.664593
   9 C      6.924970    7.484638    4.603287
  10 C      6.325014    3.756818    4.259207
  11 C      5.050169    4.888039    4.293373
  12 C      9.687196    5.164533    4.393835
  13 C      4.699071    5.339023    5.498411
  14 C      7.410764    6.069144    4.888626
  15 C      5.607807    3.525801    5.645889
  16 C      5.709509    9.664400    4.347804
  17 C      9.212278   11.083352    4.655134
  18 C      7.034139    3.614234    5.660107
  19 C      3.627081    6.503306    4.676006
  20 C      4.531392    7.468568    5.159912
  21 C     10.097367    9.728183    4.333865
  22 C      3.501167    9.386783    5.366348
  23 C      8.104665    7.102654    5.501431

Unit cell:
           periodic     x           y           z      points  spacing
  1. axis:    yes   16.000000    0.000000    0.000000    80     0.2000
  2. axis:    yes    0.000000   16.000000    0.000000    80     0.2000
  3. axis:    yes    0.000000    0.000000   10.000000    48     0.2083

Effective grid spacing dv^(1/3) = 0.2027

                     log10-error:    total        iterations:
           time      wfs    density  energy       fermi  poisson
iter:   1  14:14:07          +inf  -141.664954    2      5      
iter:   2  14:14:08         -1.75  -141.542660    3      2      
iter:   3  14:14:08         -1.99  -141.497250    3      2      
iter:   4  14:14:09         -2.23  -141.488620    3      2      
iter:   5  14:14:09         -2.43  -141.483793    2      1      
iter:   6  14:14:10         -2.48  -141.484441    2      2      
iter:   7  14:14:10         -2.69  -141.484677    2      2      
iter:   8  14:14:11         -2.86  -141.484134    2      2      
iter:   9  14:14:11         -3.06  -141.481088    2      1      
iter:  10  14:14:12         -3.21  -141.481447    2      1      
iter:  11  14:14:12         -3.34  -141.482451    2      1      
iter:  12  14:14:13         -3.54  -141.483907    2      1      
iter:  13  14:14:13         -3.64  -141.485735    2      1      
iter:  14  14:14:14         -3.81  -141.484784    2      1      
iter:  15  14:14:14         -3.91  -141.485074    2      1      
iter:  16  14:14:15         -4.16  -141.485545    2      1      

Converged after 16 iterations.

Dipole moment: (0.306676, -0.259013, -0.131656) |e|*Ang

Energy contributions relative to reference atoms: (reference = -24663.074771)

Kinetic:        +79.667434
Potential:      -86.273591
External:        +0.000000
XC:            -137.362221
Entropy (-ST):   -0.307454
Local:           +2.636560
--------------------------
Free energy:   -141.639272
Extrapolated:  -141.485545

Fermi level: -5.24975

 Band  Eigenvalues  Occupancy
    0    -26.98401    2.00000
    1    -23.65904    2.00000
    2    -23.32968    2.00000
    3    -22.09468    2.00000
    4    -20.70799    2.00000
    5    -20.27985    2.00000
    6    -19.34818    2.00000
    7    -18.60100    2.00000
    8    -18.30185    2.00000
    9    -17.50712    2.00000
   10    -17.14523    2.00000
   11    -16.64662    2.00000
   12    -16.11321    2.00000
   13    -15.16032    2.00000
   14    -14.37488    2.00000
   15    -14.34474    2.00000
   16    -14.26335    2.00000
   17    -13.66090    2.00000
   18    -12.85218    2.00000
   19    -12.67442    2.00000
   20    -12.00894    2.00000
   21    -11.14880    2.00000
   22    -10.84614    2.00000
   23    -10.52950    2.00000
   24    -10.37656    2.00000
   25     -9.99017    2.00000
   26     -9.60791    2.00000
   27     -9.48165    2.00000
   28     -9.10154    2.00000
   29     -8.80880    2.00000
   30     -8.39123    2.00000
   31     -8.30501    2.00000
   32     -7.99339    2.00000
   33     -7.48288    2.00000
   34     -7.40717    2.00000
   35     -7.36449    2.00000
   36     -7.10640    2.00000
   37     -7.00008    2.00000
   38     -6.68993    2.00000
   39     -6.59489    2.00000
   40     -6.36306    1.99997
   41     -6.27665    1.99993
   42     -6.24837    1.99991
   43     -5.95288    1.99823
   44     -5.87145    1.99602
   45     -5.71688    1.98145
   46     -5.54521    1.90095
   47     -5.35422    1.47951
   48     -5.16968    0.61974
   49     -4.79026    0.02000
   50     -4.61536    0.00351
   51     -4.41447    0.00047
   52     -4.34799    0.00024
   53     -4.20443    0.00006
   54     -3.73919    0.00000
   55     -3.51553    0.00000
   56     -3.35767    0.00000
   57     -2.67280    0.00000
   58     -2.55965    0.00000
   59     -2.37471    0.00000
   60     -2.20367    0.00000
   61     -1.94035    0.00000
   62     -1.65737    0.00000
   63     -1.37338    0.00000
   64     -1.22576    0.00000
   65     -0.96982    0.00000
   66     -0.49002    0.00000
   67     -0.22909    0.00000
   68      0.00581    0.00000
   69      0.22253    0.00000
   70      0.28647    0.00000
   71      0.61371    0.00000
   72      1.09109    0.00000
   73      1.51488    0.00000
   74      2.03240    0.00000
   75      2.23553    0.00000
   76      2.74829    0.00000
   77      3.23133    0.00000
   78      3.34410    0.00000
   79      4.28515    0.00000
   80      4.76111    0.00000
   81      5.64890    0.00000
   82      5.73512    0.00000
   83      6.11903    0.00000
   84      6.44414    0.00000
   85      6.63306    0.00000
   86      7.27996    0.00000
   87      7.59858    0.00000
   88      7.77886    0.00000
   89      8.00997    0.00000
   90      8.28671    0.00000
   91      8.52816    0.00000
   92      8.67308    0.00000
   93      8.85569    0.00000
   94      8.89640    0.00000
   95      8.96656    0.00000
   96      9.00773    0.00000
   97      9.27116    0.00000


Forces in eV/Ang:
  0 C     0.30748    3.07631   -1.59958
  1 C    -1.05837    0.71105    0.25575
  2 C     2.70149   -0.49247    1.61142
  3 C     2.79177   -3.80460   -1.18885
  4 C     3.39972   -1.18917   -1.68201
  5 C    -5.43449    4.30186   -0.40946
  6 C     0.44798   -1.07519    0.58962
  7 C     0.72133    0.43650   -0.26505
  8 C     1.92005    1.52436    0.12507
  9 C    -1.89063   -4.58582   -1.32954
 10 C    -3.09285   -0.73294   -0.69622
 11 C     1.72925   -0.73441    0.72636
 12 C    -0.66056   -0.31439    0.28110
 13 C    -1.18698    0.48588   -1.73090
 14 C    -2.07684    2.83740    0.19568
 15 C     0.58646    0.46240   -0.94435
 16 C    -4.90132    3.94135    0.63389
 17 C     1.83427   -5.22504   -1.16381
 18 C     1.02917   -0.62770    0.70524
 19 C     2.62118    1.42230    2.01062
 20 C    -2.00561   -1.54512   -0.63315
 21 C     1.11814    0.40795    1.86020
 22 C    -0.11681   -1.05168    0.51367
 23 C     1.23277    1.70673    2.25557

System changes: positions 

Initializing position-dependent things.

Density initialized from wave functions
           .--------------------------------------.  
          /|                                      |  
         / |                                      |  
        /  |                                      |  
       /   |                                      |  
      /    |                                      |  
     /     |                                      |  
    /      |                                      |  
   /       |                                      |  
  /        |            C                         |  
 *         |   C  C      C    C                   |  
 |         |     C   C C CC     C C               |  
 |         .--C-C------C-----C--------------------.  
 |        /      C  C  C C  C                    /   
 |       /      C                               /    
 |      /          C                           /     
 |     /                                      /      
 |    /                                      /       
 |   /                                      /        
 |  /                                      /         
 | /                                      /          
 |/                                      /           
 *--------------------------------------*            

Positions:
   0 C      7.205480   10.631771    4.705947
   1 C      8.336773    3.264400    5.471962
   2 C      7.965692    8.421636    5.189764
   3 C      8.330154    5.118290    4.628122
   4 C      4.359359   10.094879    4.679906
   5 C     11.501421    8.612591    4.454804
   6 C      6.383566   11.670978    4.389766
   7 C     10.425821    4.863145    5.455915
   8 C      6.843618    9.078478    4.663217
   9 C      6.920138    7.468480    4.600479
  10 C      6.308043    3.752313    4.256157
  11 C      5.061428    4.882171    4.296615
  12 C      9.686223    5.163427    4.394791
  13 C      4.690743    5.342247    5.488938
  14 C      7.411831    6.075402    4.886326
  15 C      5.611333    3.527246    5.640451
  16 C      5.701077    9.673955    4.356747
  17 C      9.224133   11.055576    4.649125
  18 C      7.036342    3.612819    5.663349
  19 C      3.637038    6.507869    4.686261
  20 C      4.525025    7.464817    5.157818
  21 C     10.104091    9.729359    4.343639
  22 C      3.503855    9.385872    5.365995
  23 C      8.109674    7.108633    5.511282

Unit cell:
           periodic     x           y           z      points  spacing
  1. axis:    yes   16.000000    0.000000    0.000000    80     0.2000
  2. axis:    yes    0.000000   16.000000    0.000000    80     0.2000
  3. axis:    yes    0.000000    0.000000   10.000000    48     0.2083

Effective grid spacing dv^(1/3) = 0.2027

                     log10-error:    total        iterations:
           time      wfs    density  energy       fermi  poisson
iter:   1  14:14:17          +inf  -142.714900    2      5      
iter:   2  14:14:17         -1.81  -142.614046    3      2      
iter:   3  14:14:18         -2.01  -142.569703    3      2      
iter:   4  14:14:18         -2.26  -142.562913    3      2      
iter:   5  14:14:19         -2.42  -142.561833    2      2      
iter:   6  14:14:19         -2.51  -142.558688    2      2      
iter:   7  14:14:20         -2.71  -142.557896    2      2      
iter:   8  14:14:20         -2.93  -142.558146    2      2      
iter:   9  14:14:21         -3.15  -142.554502    2      1      
iter:  10  14:14:21         -3.30  -142.556249    2      1      
iter:  11  14:14:22         -3.48  -142.559877    2      1      
iter:  12  14:14:22         -3.63  -142.558466    2      1      
iter:  13  14:14:23         -3.74  -142.559433    2      1      
iter:  14  14:14:23         -3.80  -142.559256    2      1      
iter:  15  14:14:24         -3.87  -142.557655    2      1      
iter:  16  14:14:24         -4.24  -142.558891    2      1      

Converged after 16 iterations.

Dipole moment: (0.240878, -0.269551, -0.142214) |e|*Ang

Energy contributions relative to reference atoms: (reference = -24663.074771)

Kinetic:        +80.931478
Potential:      -87.567513
External:        +0.000000
XC:            -138.416072
Entropy (-ST):   -0.301003
Local:           +2.643717
--------------------------
Free energy:   -142.709393
Extrapolated:  -142.558891

Fermi level: -5.25645

 Band  Eigenvalues  Occupancy
    0    -26.83869    2.00000
    1    -23.63195    2.00000
    2    -23.31867    2.00000
    3    -22.03607    2.00000
    4    -20.75989    2.00000
    5    -20.27873    2.00000
    6    -19.43475    2.00000
    7    -18.65493    2.00000
    8    -18.29297    2.00000
    9    -17.50869    2.00000
   10    -17.22312    2.00000
   11    -16.79091    2.00000
   12    -16.13497    2.00000
   13    -15.19917    2.00000
   14    -14.47618    2.00000
   15    -14.46966    2.00000
   16    -14.28550    2.00000
   17    -13.67688    2.00000
   18    -12.82610    2.00000
   19    -12.63797    2.00000
   20    -12.01907    2.00000
   21    -11.14560    2.00000
   22    -10.83680    2.00000
   23    -10.53023    2.00000
   24    -10.33875    2.00000
   25    -10.02909    2.00000
   26     -9.63560    2.00000
   27     -9.53315    2.00000
   28     -9.09488    2.00000
   29     -8.85195    2.00000
   30     -8.37508    2.00000
   31     -8.33069    2.00000
   32     -8.01220    2.00000
   33     -7.49481    2.00000
   34     -7.42477    2.00000
   35     -7.35933    2.00000
   36     -7.12957    2.00000
   37     -7.03410    2.00000
   38     -6.71438    2.00000
   39     -6.60079    2.00000
   40     -6.40421    1.99998
   41     -6.31137    1.99995
   42     -6.25249    1.99991
   43     -5.96777    1.99837
   44     -5.87916    1.99606
   45     -5.71890    1.98057
   46     -5.55430    1.90319
   47     -5.36825    1.50722
   48     -5.16977    0.59183
   49     -4.79230    0.01910
   50     -4.61089    0.00314
   51     -4.41409    0.00044
   52     -4.33519    0.00020
   53     -4.19665    0.00005
   54     -3.74668    0.00000
   55     -3.50216    0.00000
   56     -3.33814    0.00000
   57     -2.65012    0.00000
   58     -2.51845    0.00000
   59     -2.30187    0.00000
   60     -2.12667    0.00000
   61     -1.86376    0.00000
   62     -1.54463    0.00000
   63     -1.33856    0.00000
   64     -1.18209    0.00000
   65     -0.93510    0.00000
   66     -0.36505    0.00000
   67     -0.14124    0.00000
   68      0.08767    0.00000
   69      0.29920    0.00000
   70      0.37348    0.00000
   71      0.65400    0.00000
   72      1.20591    0.00000
   73      1.54535    0.00000
   74      2.10276    0.00000
   75      2.37456    0.00000
   76      2.67051    0.00000
   77      3.33164    0.00000
   78      3.39500    0.00000
   79      4.38827    0.00000
   80      4.69411    0.00000
   81      5.68643    0.00000
   82      6.12626    0.00000
   83      6.28451    0.00000
   84      6.54001    0.00000
   85      6.73445    0.00000
   86      7.30890    0.00000
   87      7.66898    0.00000
   88      7.82037    0.00000
   89      8.04141    0.00000
   90      8.30903    0.00000
   91      8.55249    0.00000
   92      8.69055    0.00000
   93      8.86609    0.00000
   94      8.90599    0.00000
   95      8.99510    0.00000
   96      9.02730    0.00000
   97      9.27348    0.00000


Forces in eV/Ang:
  0 C     0.45887    2.62672   -1.56160
  1 C    -0.86548    0.73293    0.19767
  2 C     2.12556   -0.44972    1.40647
  3 C     2.43720   -3.56056   -0.96407
  4 C     2.79881   -1.12771   -1.51731
  5 C    -5.58629    4.47542   -0.38832
  6 C     0.31987   -0.86872    0.52233
  7 C     0.70612    0.44767   -0.26621
  8 C     1.91851    1.69815    0.13404
  9 C    -1.76939   -4.28616   -1.19118
 10 C    -3.10658   -0.72575   -0.66907
 11 C     1.97481   -0.97746    0.80313
 12 C    -0.58282   -0.28274    0.25034
 13 C    -1.43367    0.63433   -1.85005
 14 C    -1.68671    2.54276    0.12333
 15 C     0.52536    0.35276   -0.95218
 16 C    -4.03725    3.46607    0.66676
 17 C     1.98526   -5.13961   -1.13136
 18 C     0.89784   -0.47807    0.63254
 19 C     2.23756    1.07434    1.97763
 20 C    -1.56997   -1.03067   -0.48240
 21 C     1.23730    0.26772    1.78244
 22 C    -0.07670   -0.94746    0.46989
 23 C     1.14350    1.56133    2.11034

System changes: positions 

Initializing position-dependent things.

Density initialized from wave functions
           .--------------------------------------.  
          /|                                      |  
         / |                                      |  
        /  |                                      |  
       /   |                                      |  
      /    |                                      |  
     /     |                                      |  
    /      |                                      |  
   /       |                                      |  
  /        |            C                         |  
 *         |   C  C      C    C                   |  
 |         |     C   C C CC     C C               |  
 |         .--C-C------C-----C--------------------.  
 |        /      C  C  CC   C                    /   
 |       /      C                               /    
 |      /          C                           /     
 |     /                                      /      
 |    /                                      /       
 |   /                                      /        
 |  /                                      /         
 | /                                      /          
 |/                                      /           
 *--------------------------------------*            

Positions:
   0 C      7.209964   10.639015    4.698345
   1 C      8.334659    3.268472    5.472347
   2 C      7.965287    8.421003    5.192035
   3 C      8.331017    5.108273    4.627623
   4 C      4.367257   10.086250    4.675214
   5 C     11.470440    8.637821    4.452898
   6 C      6.383434   11.669624    4.391497
   7 C     10.429589    4.865709    5.454484
   8 C      6.849974    9.089755    4.662380
   9 C      6.915023    7.452757    4.597680
  10 C      6.291405    3.748142    4.253199
  11 C      5.073820    4.875111    4.300599
  12 C      9.685282    5.162450    4.395584
  13 C      4.681251    5.346459    5.478861
  14 C      7.413211    6.081175    4.884263
  15 C      5.614319    3.528197    5.635128
  16 C      5.695008    9.682616    4.364428
  17 C      9.236232   11.029019    4.643418
  18 C      7.038433    3.611952    5.666114
  19 C      3.645441    6.510908    4.696392
  20 C      4.520506    7.463401    5.156370
  21 C     10.111355    9.729689    4.352644
  22 C      3.506241    9.384713    5.365921
  23 C      8.114346    7.114095    5.520406

Unit cell:
           periodic     x           y           z      points  spacing
  1. axis:    yes   16.000000    0.000000    0.000000    80     0.2000
  2. axis:    yes    0.000000   16.000000    0.000000    80     0.2000
  3. axis:    yes    0.000000    0.000000   10.000000    48     0.2083

Effective grid spacing dv^(1/3) = 0.2027

                     log10-error:    total        iterations:
           time      wfs    density  energy       fermi  poisson
iter:   1  14:14:26          +inf  -143.714330    3      5      
iter:   2  14:14:27         -1.84  -143.621945    3      2      
iter:   3  14:14:27         -2.02  -143.575720    2      2      
iter:   4  14:14:28         -2.28  -143.569708    3      2      
iter:   5  14:14:28         -2.43  -143.568500    2      2      
iter:   6  14:14:29         -2.52  -143.565186    2      2      
iter:   7  14:14:29         -2.73  -143.564507    2      2      
iter:   8  14:14:30         -2.96  -143.564887    2      2      
iter:   9  14:14:30         -3.18  -143.561550    2      1      
iter:  10  14:14:31         -3.34  -143.563321    2      1      
iter:  11  14:14:31         -3.49  -143.566111    2      1      
iter:  12  14:14:32         -3.61  -143.565712    2      1      
iter:  13  14:14:32         -3.84  -143.566056    2      1      
iter:  14  14:14:33         -3.92  -143.565759    2      1      
iter:  15  14:14:33         -4.03  -143.565337    2      1      

Converged after 15 iterations.

Dipole moment: (0.175169, -0.279434, -0.152523) |e|*Ang

Energy contributions relative to reference atoms: (reference = -24663.074771)

Kinetic:        +82.507753
Potential:      -89.081519
External:        +0.000000
XC:            -139.496060
Entropy (-ST):   -0.294152
Local:           +2.651565
--------------------------
Free energy:   -143.712413
Extrapolated:  -143.565337

Fermi level: -5.26202

 Band  Eigenvalues  Occupancy
    0    -26.69897    2.00000
    1    -23.63412    2.00000
    2    -23.29953    2.00000
    3    -21.98252    2.00000
    4    -20.81217    2.00000
    5    -20.26968    2.00000
    6    -19.50413    2.00000
    7    -18.72595    2.00000
    8    -18.26009    2.00000
    9    -17.52815    2.00000
   10    -17.29931    2.00000
   11    -16.91101    2.00000
   12    -16.15391    2.00000
   13    -15.23845    2.00000
   14    -14.61027    2.00000
   15    -14.58471    2.00000
   16    -14.29499    2.00000
   17    -13.67578    2.00000
   18    -12.81742    2.00000
   19    -12.58808    2.00000
   20    -12.03098    2.00000
   21    -11.14560    2.00000
   22    -10.83081    2.00000
   23    -10.55316    2.00000
   24    -10.29778    2.00000
   25    -10.06528    2.00000
   26     -9.68322    2.00000
   27     -9.56735    2.00000
   28     -9.09549    2.00000
   29     -8.88362    2.00000
   30     -8.37478    2.00000
   31     -8.32524    2.00000
   32     -8.02970    2.00000
   33     -7.51093    2.00000
   34     -7.44570    2.00000
   35     -7.35125    2.00000
   36     -7.14211    2.00000
   37     -7.06103    2.00000
   38     -6.74807    2.00000
   39     -6.61104    2.00000
   40     -6.45453    1.99999
   41     -6.33293    1.99996
   42     -6.25851    1.99991
   43     -5.97902    1.99846
   44     -5.88382    1.99602
   45     -5.71936    1.97957
   46     -5.56175    1.90491
   47     -5.38217    1.53761
   48     -5.16793    0.56146
   49     -4.79583    0.01872
   50     -4.60490    0.00280
   51     -4.41422    0.00042
   52     -4.31426    0.00015
   53     -4.18404    0.00004
   54     -3.74754    0.00000
   55     -3.49024    0.00000
   56     -3.32060    0.00000
   57     -2.64344    0.00000
   58     -2.48907    0.00000
   59     -2.25650    0.00000
   60     -2.04310    0.00000
   61     -1.78244    0.00000
   62     -1.40686    0.00000
   63     -1.29931    0.00000
   64     -1.14450    0.00000
   65     -0.89507    0.00000
   66     -0.27296    0.00000
   67     -0.06528    0.00000
   68      0.14261    0.00000
   69      0.31846    0.00000
   70      0.54327    0.00000
   71      0.69211    0.00000
   72      1.37156    0.00000
   73      1.59499    0.00000
   74      2.14459    0.00000
   75      2.50082    0.00000
   76      2.64524    0.00000
   77      3.43163    0.00000
   78      3.45823    0.00000
   79      4.48774    0.00000
   80      4.64297    0.00000
   81      5.70947    0.00000
   82      6.15279    0.00000
   83      6.58703    0.00000
   84      6.78345    0.00000
   85      6.84671    0.00000
   86      7.34516    0.00000
   87      7.71636    0.00000
   88      7.85348    0.00000
   89      8.07234    0.00000
   90      8.32855    0.00000
   91      8.57351    0.00000
   92      8.69931    0.00000
   93      8.87780    0.00000
   94      8.90448    0.00000
   95      9.01641    0.00000
   96      9.05687    0.00000
   97      9.27531    0.00000


Forces in eV/Ang:
  0 C     0.57228    2.25065   -1.53562
  1 C    -0.67442    0.74522    0.14638
  2 C     1.59296   -0.42297    1.22348
  3 C     2.11018   -3.38007   -0.75326
  4 C     2.27152   -1.09030   -1.40587
  5 C    -5.68777    4.62640   -0.36974
  6 C     0.20962   -0.69220    0.46210
  7 C     0.68460    0.45423   -0.27444
  8 C     1.95814    1.87767    0.16535
  9 C    -1.67134   -4.04622   -1.07738
 10 C    -3.16647   -0.71882   -0.70388
 11 C     2.25914   -1.26101    0.93542
 12 C    -0.48740   -0.25227    0.21789
 13 C    -1.71983    0.80684   -2.03245
 14 C    -1.32778    2.22840    0.06240
 15 C     0.46459    0.23483   -0.96408
 16 C    -3.29583    3.09880    0.69052
 17 C     2.09075   -5.00013   -1.09099
 18 C     0.78933   -0.33869    0.55334
 19 C     1.92515    0.80292    2.00722
 20 C    -1.22906   -0.58333   -0.37258
[...]

Fermi level: -4.93286

 Band  Eigenvalues  Occupancy
    0    -23.33368    2.00000
    1    -23.25592    2.00000
    2    -22.94817    2.00000
    3    -21.03318    2.00000
    4    -20.89510    2.00000
    5    -20.27708    2.00000
    6    -19.88511    2.00000
    7    -19.51230    2.00000
    8    -19.16198    2.00000
    9    -18.83884    2.00000
   10    -18.05010    2.00000
   11    -17.32972    2.00000
   12    -17.10764    2.00000
   13    -16.50243    2.00000
   14    -16.28801    2.00000
   15    -15.91055    2.00000
   16    -15.14850    2.00000
   17    -14.30639    2.00000
   18    -14.23095    2.00000
   19    -13.64366    2.00000
   20    -12.67783    2.00000
   21    -11.68343    2.00000
   22    -11.22770    2.00000
   23    -11.21174    2.00000
   24    -11.04691    2.00000
   25    -10.55094    2.00000
   26    -10.47047    2.00000
   27    -10.43435    2.00000
   28    -10.04742    2.00000
   29     -9.56802    2.00000
   30     -9.38322    2.00000
   31     -9.32556    2.00000
   32     -8.81792    2.00000
   33     -8.48318    2.00000
   34     -8.14796    2.00000
   35     -8.03293    2.00000
   36     -7.67488    2.00000
   37     -7.44593    2.00000
   38     -7.04436    2.00000
   39     -6.76106    2.00000
   40     -6.21634    1.99999
   41     -6.19277    1.99999
   42     -5.97448    1.99994
   43     -5.85661    1.99981
   44     -5.61327    1.99778
   45     -5.48696    1.99219
   46     -5.32409    1.96079
   47     -5.20494    1.87649
   48     -4.68844    0.15974
   49     -4.43009    0.01302
   50     -4.02010    0.00022
   51     -3.82109    0.00003
   52     -3.21627    0.00000
   53     -2.87142    0.00000
   54     -1.98804    0.00000
   55     -1.80582    0.00000
   56     -1.18803    0.00000
   57     -1.03474    0.00000
   58     -0.32129    0.00000
   59     -0.21091    0.00000
   60      0.34011    0.00000
   61      0.73261    0.00000
   62      0.81081    0.00000
   63      1.24382    0.00000
   64      1.57651    0.00000
   65      1.86515    0.00000
   66      2.68522    0.00000
   67      3.01606    0.00000
   68      3.19411    0.00000
   69      3.40782    0.00000
   70      3.82922    0.00000
   71      3.99897    0.00000
   72      4.54487    0.00000
   73      4.59986    0.00000
   74      4.96143    0.00000
   75      5.32424    0.00000
   76      5.82250    0.00000
   77      6.19822    0.00000
   78      6.41599    0.00000
   79      6.90196    0.00000
   80      7.10292    0.00000
   81      7.51810    0.00000
   82      7.56468    0.00000
   83      7.59717    0.00000
   84      7.79887    0.00000
   85      8.17107    0.00000
   86      8.32563    0.00000
   87      8.37223    0.00000
   88      8.56900    0.00000
   89      8.67615    0.00000
   90      8.74280    0.00000
   91      8.89642    0.00000
   92      8.96059    0.00000
   93      9.17670    0.00000
   94      9.22334    0.00000
   95      9.38973    0.00000
   96      9.48283    0.00000
   97      9.54323    0.00000


Forces in eV/Ang:
  0 C    -0.09580   -0.04062    0.06430
  1 C    -0.08490   -0.04017   -0.02861
  2 C    -0.02349   -0.06328   -0.05492
  3 C    -0.04167   -0.04206    0.03415
  4 C    -0.08187    0.03109   -0.03101
  5 C    -0.10863    0.05161    0.00019
  6 C     0.02246    0.05835    0.01430
  7 C    -0.14561   -0.05441   -0.10166
  8 C    -0.03515    0.07244    0.08341
  9 C    -0.02533    0.07556   -0.09785
 10 C     0.04230    0.04909   -0.03589
 11 C     0.12770   -0.03368    0.00108
 12 C     0.17129    0.02475    0.16022
 13 C     0.00774    0.02836   -0.01707
 14 C     0.02640   -0.06732    0.07724
 15 C    -0.10264    0.01281    0.00617
 16 C    -0.04136   -0.04233   -0.01750
 17 C     0.12352    0.08485   -0.01962
 18 C     0.03929    0.01732    0.02536
 19 C     0.01137   -0.04417    0.01219
 20 C    -0.01388   -0.13655    0.03379
 21 C     0.14874   -0.02929   -0.06963
 22 C     0.08621    0.08730   -0.00859
 23 C    -0.01944   -0.07848   -0.05276

System changes: positions 

Initializing position-dependent things.

Density initialized from wave functions
           .--------------------------------------.  
          /|                                      |  
         / |                                      |  
        /  |                                      |  
       /   |                                      |  
      /    |                                      |  
     /     |                                      |  
    /      |                                      |  
   /       |             C                        |  
  /        |                C  C  C               |  
 *         |        C  C              C           |  
 |         |  C  C        C   C                   |  
 |         .-C------------CC----------------------.  
 |        / C        C  CC                       /   
 |       /  C  C  C     C                       /    
 |      /               C                      /     
 |     /                                      /      
 |    /                                      /       
 |   /                                      /        
 |  /                                      /         
 | /                                      /          
 |/                                      /           
 *--------------------------------------*            

Positions:
   0 C      8.336271   10.898629    4.923362
   1 C      7.277818    4.083517    5.048434
   2 C      8.148065    8.484749    3.898731
   3 C      8.335517    4.998674    4.829960
   4 C      5.274342    9.203406    5.284651
   5 C     11.850410   12.338102    3.891505
   6 C      7.262562   10.841666    5.946688
   7 C     10.438117    5.403267    6.454251
   8 C      7.669927    9.653603    4.417123
   9 C      7.999378    6.220709    2.376288
  10 C      3.901574    2.027689    5.552431
  11 C      3.598284    3.430470    5.381257
  12 C      9.412022    5.178895    5.688164
  13 C      3.201591    4.673110    5.270437
  14 C      8.149689    5.796797    3.641275
  15 C      5.014769    2.824610    5.372262
  16 C      6.419528    9.925089    5.180115
  17 C      9.491425   11.495690    4.654750
  18 C      6.249508    3.380296    5.195531
  19 C      3.266872    5.978559    5.231424
  20 C      3.652430    7.203566    5.209538
  21 C     10.632359   12.014003    4.297097
  22 C      4.367284    8.311879    5.220250
  23 C      8.078480    7.338341    3.313735

Unit cell:
           periodic     x           y           z      points  spacing
  1. axis:    yes   16.000000    0.000000    0.000000    80     0.2000
  2. axis:    yes    0.000000   16.000000    0.000000    80     0.2000
  3. axis:    yes    0.000000    0.000000   10.000000    48     0.2083

Effective grid spacing dv^(1/3) = 0.2027

                     log10-error:    total        iterations:
           time      wfs    density  energy       fermi  poisson
iter:   1  14:36:48          +inf  -175.349104    2      5      
iter:   2  14:36:48         -2.62  -175.347441    2      1      
iter:   3  14:36:48         -2.74  -175.347417    2      1      
iter:   4  14:36:49         -2.90  -175.347310    2      2      
iter:   5  14:36:49         -3.12  -175.347693    2      1      
iter:   6  14:36:50         -3.27  -175.347698    2      1      
iter:   7  14:36:50         -3.44  -175.347151    2      1      
iter:   8  14:36:51         -3.59  -175.347343    2      1      
iter:   9  14:36:51         -3.73  -175.347511    2      1      
iter:  10  14:36:52         -3.83  -175.347529    2      1      
iter:  11  14:36:52         -3.91  -175.347569    2      1      
iter:  12  14:36:53         -4.05  -175.347615    2      1      

Converged after 12 iterations.

Dipole moment: (-1.584549, -0.060791, -0.266243) |e|*Ang

Energy contributions relative to reference atoms: (reference = -24663.074771)

Kinetic:       +104.031865
Potential:     -115.408312
External:        +0.000000
XC:            -166.878061
Entropy (-ST):   -0.138751
Local:           +2.976269
--------------------------
Free energy:   -175.416990
Extrapolated:  -175.347615

Fermi level: -4.93333

 Band  Eigenvalues  Occupancy
    0    -23.30996    2.00000
    1    -23.28395    2.00000
    2    -22.93638    2.00000
    3    -21.03214    2.00000
    4    -20.89774    2.00000
    5    -20.27649    2.00000
    6    -19.88656    2.00000
    7    -19.51142    2.00000
    8    -19.15440    2.00000
    9    -18.84094    2.00000
   10    -18.04783    2.00000
   11    -17.33076    2.00000
   12    -17.10760    2.00000
   13    -16.50333    2.00000
   14    -16.29040    2.00000
   15    -15.91321    2.00000
   16    -15.14817    2.00000
   17    -14.30817    2.00000
   18    -14.23140    2.00000
   19    -13.64034    2.00000
   20    -12.67994    2.00000
   21    -11.66537    2.00000
   22    -11.24070    2.00000
   23    -11.20559    2.00000
   24    -11.03599    2.00000
   25    -10.54186    2.00000
   26    -10.46827    2.00000
   27    -10.44273    2.00000
   28    -10.06097    2.00000
   29     -9.56681    2.00000
   30     -9.38484    2.00000
   31     -9.32740    2.00000
   32     -8.81732    2.00000
   33     -8.48421    2.00000
   34     -8.14772    2.00000
   35     -8.03615    2.00000
   36     -7.67736    2.00000
   37     -7.44975    2.00000
   38     -7.04515    2.00000
   39     -6.76183    2.00000
   40     -6.21371    1.99999
   41     -6.19236    1.99999
   42     -5.97438    1.99994
   43     -5.85721    1.99981
   44     -5.61615    1.99784
   45     -5.48954    1.99235
   46     -5.32140    1.95956
   47     -5.20288    1.87353
   48     -4.69149    0.16357
   49     -4.43166    0.01317
   50     -4.02566    0.00023
   51     -3.82947    0.00003
   52     -3.22107    0.00000
   53     -2.86873    0.00000
   54     -1.98549    0.00000
   55     -1.81157    0.00000
   56     -1.19693    0.00000
   57     -1.03831    0.00000
   58     -0.31952    0.00000
   59     -0.20668    0.00000
   60      0.33795    0.00000
   61      0.73875    0.00000
   62      0.81976    0.00000
   63      1.23815    0.00000
   64      1.56949    0.00000
   65      1.86818    0.00000
   66      2.70628    0.00000
   67      3.02278    0.00000
   68      3.19754    0.00000
   69      3.41418    0.00000
   70      3.82535    0.00000
   71      4.00133    0.00000
   72      4.52329    0.00000
   73      4.60005    0.00000
   74      4.97309    0.00000
   75      5.32446    0.00000
   76      5.85057    0.00000
   77      6.20040    0.00000
   78      6.42308    0.00000
   79      6.88909    0.00000
   80      7.09028    0.00000
   81      7.49426    0.00000
   82      7.57108    0.00000
   83      7.59879    0.00000
   84      7.80033    0.00000
   85      8.17460    0.00000
   86      8.33083    0.00000
   87      8.37235    0.00000
   88      8.57089    0.00000
   89      8.67252    0.00000
   90      8.74965    0.00000
   91      8.89790    0.00000
   92      8.96228    0.00000
   93      9.17750    0.00000
   94      9.21978    0.00000
   95      9.38781    0.00000
   96      9.46232    0.00000
   97      9.54178    0.00000


Forces in eV/Ang:
  0 C    -0.03038   -0.01104    0.03487
  1 C    -0.01964   -0.01056   -0.02658
  2 C    -0.03532   -0.01234   -0.02704
  3 C    -0.02782   -0.03481    0.03872
  4 C    -0.06068    0.01527   -0.02169
  5 C    -0.05235    0.08552    0.00155
  6 C    -0.00959    0.04025   -0.01324
  7 C    -0.07046   -0.02179   -0.00723
  8 C     0.00015    0.04583    0.02921
  9 C    -0.02529    0.01360   -0.01198
 10 C    -0.00945    0.00415   -0.02570
 11 C     0.08891   -0.01100    0.00296
 12 C     0.06469    0.01736    0.06627
 13 C    -0.01081    0.00155   -0.01997
 14 C     0.04067   -0.01387    0.01604
 15 C     0.00086   -0.00469    0.00434
 16 C     0.00763   -0.03432   -0.00163
 17 C     0.06717   -0.00213    0.00198
 18 C    -0.01049    0.00529   -0.01130
 19 C     0.02135   -0.02004    0.01245
 20 C     0.03862   -0.03971    0.00190
 21 C     0.07458   -0.01357   -0.04175
 22 C     0.01833    0.02940    0.00073
 23 C    -0.00763   -0.02922   -0.00413

System changes: positions 

Initializing position-dependent things.

Density initialized from wave functions
           .--------------------------------------.  
          /|                                      |  
         / |                                      |  
        /  |                                      |  
       /   |                                      |  
      /    |                                      |  
     /     |                                      |  
    /      |                                      |  
   /       |             C                        |  
  /        |                C  C  C               |  
 *         |        C  C              C           |  
 |         |  C  C        C   C                   |  
 |         .-C------------CC----------------------.  
 |        / C        C  CC                       /   
 |       /  C  C  C     C                       /    
 |      /               C                      /     
 |     /                                      /      
 |    /                                      /       
 |   /                                      /        
 |  /                                      /         
 | /                                      /          
 |/                                      /           
 *--------------------------------------*            

Positions:
   0 C      8.333980   10.900817    4.923767
   1 C      7.282090    4.079977    5.049516
   2 C      8.142023    8.484774    3.897957
   3 C      8.336912    4.997923    4.828510
   4 C      5.271152    9.210171    5.283902
   5 C     11.853554   12.330282    3.893550
   6 C      7.256735   10.854158    5.944234
   7 C     10.436986    5.389461    6.458227
   8 C      7.668743    9.653522    4.420481
   9 C      7.990417    6.222151    2.376154
  10 C      3.905172    2.026871    5.547541
  11 C      3.604634    3.429915    5.376484
  12 C      9.411639    5.181478    5.688287
  13 C      3.206991    4.672130    5.265533
  14 C      8.145907    5.794558    3.639891
  15 C      5.018785    2.824218    5.374138
  16 C      6.417692    9.929613    5.180838
  17 C      9.489055   11.498024    4.652875
  18 C      6.255703    3.375809    5.202227
  19 C      3.273688    5.977365    5.229108
  20 C      3.657297    7.202765    5.212919
  21 C     10.633065   12.011901    4.296186
  22 C      4.368932    8.313147    5.220798
  23 C      8.072678    7.338847    3.311884

Unit cell:
           periodic     x           y           z      points  spacing
  1. axis:    yes   16.000000    0.000000    0.000000    80     0.2000
  2. axis:    yes    0.000000   16.000000    0.000000    80     0.2000
  3. axis:    yes    0.000000    0.000000   10.000000    48     0.2083

Effective grid spacing dv^(1/3) = 0.2027

                     log10-error:    total        iterations:
           time      wfs    density  energy       fermi  poisson
iter:   1  14:36:54          +inf  -175.347272    2      5      
iter:   2  14:36:54         -2.87  -175.346660    2      1      
iter:   3  14:36:55         -2.99  -175.346678    2      1      
iter:   4  14:36:55         -3.14  -175.345977    2      1      
iter:   5  14:36:56         -3.33  -175.346248    2      1      
iter:   6  14:36:56         -3.52  -175.347108    1      1      
iter:   7  14:36:57         -3.64  -175.346822    2      1      
iter:   8  14:36:57         -3.76  -175.346972    2      1      
iter:   9  14:36:57         -3.97  -175.347220    2      1      
iter:  10  14:36:58         -4.04  -175.347199    2      1      

Converged after 10 iterations.

Dipole moment: (-1.584777, -0.057572, -0.270508) |e|*Ang

Energy contributions relative to reference atoms: (reference = -24663.074771)

Kinetic:       +104.064398
Potential:     -115.433366
External:        +0.000000
XC:            -166.887267
Entropy (-ST):   -0.140874
Local:           +2.979473
--------------------------
Free energy:   -175.417636
Extrapolated:  -175.347199

Fermi level: -4.93365

 Band  Eigenvalues  Occupancy
    0    -23.29900    2.00000
    1    -23.29210    2.00000
    2    -22.93390    2.00000
    3    -21.03498    2.00000
    4    -20.89862    2.00000
    5    -20.27490    2.00000
    6    -19.88518    2.00000
    7    -19.51297    2.00000
    8    -19.15662    2.00000
    9    -18.84142    2.00000
   10    -18.04578    2.00000
   11    -17.33180    2.00000
   12    -17.10674    2.00000
   13    -16.50810    2.00000
   14    -16.29649    2.00000
   15    -15.91088    2.00000
   16    -15.14525    2.00000
   17    -14.30865    2.00000
   18    -14.23539    2.00000
   19    -13.64106    2.00000
   20    -12.68518    2.00000
   21    -11.65246    2.00000
   22    -11.24755    2.00000
   23    -11.20053    2.00000
   24    -11.02988    2.00000
   25    -10.54252    2.00000
   26    -10.46987    2.00000
   27    -10.44635    2.00000
   28    -10.07507    2.00000
   29     -9.57164    2.00000
   30     -9.38585    2.00000
   31     -9.32820    2.00000
   32     -8.81813    2.00000
   33     -8.48355    2.00000
   34     -8.14710    2.00000
   35     -8.03563    2.00000
   36     -7.67688    2.00000
   37     -7.45040    2.00000
   38     -7.04576    2.00000
   39     -6.76451    2.00000
   40     -6.21228    1.99999
   41     -6.19223    1.99999
   42     -5.97690    1.99994
   43     -5.85774    1.99981
   44     -5.61813    1.99787
   45     -5.48970    1.99234
   46     -5.31996    1.95886
   47     -5.20046    1.87023
   48     -4.69436    0.16743
   49     -4.43277    0.01327
   50     -4.02742    0.00023
   51     -3.83429    0.00003
   52     -3.22612    0.00000
   53     -2.86802    0.00000
   54     -1.98462    0.00000
   55     -1.81688    0.00000
   56     -1.20407    0.00000
   57     -1.04047    0.00000
   58     -0.31824    0.00000
   59     -0.20092    0.00000
   60      0.33947    0.00000
   61      0.74411    0.00000
   62      0.82452    0.00000
   63      1.23547    0.00000
   64      1.56567    0.00000
   65      1.87193    0.00000
   66      2.71355    0.00000
   67      3.03192    0.00000
   68      3.20006    0.00000
   69      3.42084    0.00000
   70      3.82581    0.00000
   71      4.00028    0.00000
   72      4.51137    0.00000
   73      4.60321    0.00000
   74      4.98297    0.00000
   75      5.31781    0.00000
   76      5.85830    0.00000
   77      6.20784    0.00000
   78      6.42444    0.00000
   79      6.88680    0.00000
   80      7.08213    0.00000
   81      7.48179    0.00000
   82      7.56930    0.00000
   83      7.59967    0.00000
   84      7.80180    0.00000
   85      8.17337    0.00000
   86      8.33215    0.00000
   87      8.37270    0.00000
   88      8.57106    0.00000
   89      8.67044    0.00000
   90      8.75351    0.00000
   91      8.90035    0.00000
   92      8.96411    0.00000
   93      9.17736    0.00000
   94      9.21781    0.00000
   95      9.39079    0.00000
   96      9.45268    0.00000
   97      9.54277    0.00000


Forces in eV/Ang:
  0 C    -0.00728   -0.01324    0.01663
  1 C    -0.01170    0.01123   -0.02620
  2 C    -0.02428    0.00493   -0.00697
  3 C    -0.04022   -0.02541    0.03109
  4 C    -0.05500   -0.01331   -0.00152
  5 C    -0.05084    0.07094   -0.00181
  6 C    -0.01175    0.03413   -0.01310
  7 C    -0.02341   -0.00183    0.01235
  8 C     0.00603    0.05054    0.01271
  9 C    -0.02651   -0.01049    0.00349
 10 C    -0.01794   -0.01538   -0.01480
 11 C     0.05524   -0.02116    0.00637
 12 C     0.03407    0.00145    0.03373
 13 C    -0.01750    0.02835   -0.02571
 14 C     0.04771    0.00813   -0.00538
 15 C     0.02314   -0.02161    0.00338
 16 C     0.01830   -0.02515    0.00013
 17 C     0.09574   -0.00679    0.00033
 18 C    -0.01233    0.00784   -0.02864
 19 C     0.01166   -0.04623    0.02777
 20 C     0.04493    0.00267   -0.02050
 21 C     0.03231   -0.02988   -0.02948
 22 C     0.01898    0.03795    0.00591
 23 C    -0.01016   -0.01600    0.01822

