
  ___ ___ ___ _ _ _  
 |   |   |_  | | | | 
 | | | | | . | | | | 
 |__ |  _|___|_____|  1.3.0b1
 |___|_|             

User:   esb@s66n12.grendel.cscaa.dk
Date:   Thu Nov  9 10:12:34 2017
Arch:   x86_64
Pid:    114969
Python: 2.7.13
gpaw:   /home/esb/DFT/gpaw_git/gpaw
_gpaw:  /home/esb/DFT/gpaw_git/build/bin.linux-x86_64-2.7/gpaw-python
ase:    /home/esb/DFT/ase_git/ase (version 3.15.0b1)
numpy:  /comm/swstack/core/python/2.7.13/lib/python2.7/site-packages/numpy (version 1.13.3)
scipy:  /comm/swstack/core/python/2.7.13/lib/python2.7/site-packages/scipy (version 0.19.1)
units:  Angstrom and eV
cores:  16
Extra parameters: {'blacs': True}

Input parameters:
  basis: dzp
  gpts: [80 80 48]
  kpts: [1 1 1]
  maxiter: 99
  mixer: {backend: pulay,
          beta: 0.05,
          method: separate,
          nmaxold: 5,
          weight: 75}
  mode: lcao
  nbands: -50
  occupations: {name: fermi-dirac,
                width: 0.1}
  poissonsolver: {eps: 1e-07,
                  name: fd,
                  nn: 3,
                  relax: GS}
  xc: PBE

System changes: positions, numbers, cell, pbc, initial_charges, initial_magmoms 

Initialize ...

C-setup:
  name: Carbon
  id: 4aa54d4b901d75f77cc0ea3eec22967b
  Z: 6
  valence: 4
  core: 2
  charge: 0.0
  file: /home/esb/DFT/gpaw-setups-0.8.7929/C.PBE.gz
  cutoffs: 0.64(comp), 1.14(filt), 1.14(core), lmax=2
  valence states:
                energy  radius
    2s(2.00)   -13.751   0.635
    2p(2.00)    -5.284   0.635
    *s          13.461   0.635
    *p          21.927   0.635
    *d           0.000   0.635

  LCAO basis set for C:
    Name: dzp
    File: /home/esb/DFT/gpaw-setups-0.8.7929/C.dzp.basis.gz
    Number of radial functions: 5
    Number of spherical harmonics: 13
      l=0, rc=5.5469 Bohr: 2s-sz confined orbital
      l=1, rc=6.6719 Bohr: 2p-sz confined orbital
      l=0, rc=3.0312 Bohr: 2s-dz split-valence wave
      l=1, rc=3.7500 Bohr: 2p-dz split-valence wave
      l=2, rc=6.6719 Bohr: d-type Gaussian polarization

Reference energy: -24663.074771

Spin-paired calculation

Occupation numbers:
  Fermi-Dirac: width=0.1000 eV

Convergence criteria:
  Maximum total energy change: 0.0005 eV / electron
  Maximum integral of absolute density change: 0.0001 electrons
  Maximum integral of absolute eigenstate change: 4e-08 eV^2
  Maximum number of iterations: 99

Symmetries present (total): 1

  ( 1  0  0)
  ( 0  1  0)
  ( 0  0  1)

1 k-point (Gamma)
1 k-point in the irreducible part of the Brillouin zone
       k-points in crystal coordinates                weights
   0:     0.00000000    0.00000000    0.00000000          1/1

Wave functions: LCAO
  Diagonalizer: Serial LAPACK
  Atomic Correction: dense with blas
  Datatype: float
  Eigensolver: None 

LCAO using direct dense diagonalizer 

Densities:
  Coarse grid: 80*80*48 grid
  Fine grid: 160*160*96 grid
  Total Charge: 0.000000 

Density mixing:
  Method: separate
  Backend: pulay
  Linear mixing parameter: 0.05
  Mixing with 5 old densities
  Damping of long wave oscillations: 75 

Hamiltonian:
  XC and Coulomb potentials evaluated on a 160*160*96 grid
  Using the PBE Exchange-Correlation functional
  Interpolation: tri-quintic (5. degree polynomial)
  Poisson solver: Gauss-Seidel solver with 6 multi-grid levels
    Coarsest grid: 5 x 5 x 3 points
    Stencil: 6*3+1=19 point O(h^6) finite-difference Laplacian
    Max iterations: 1000
    Tolerance: 1.000000e-07 

Memory estimate:
  Process memory now: 77.56 MiB
  Calculator: 15.59 MiB
    Density: 6.13 MiB
      Arrays: 3.81 MiB
      Localized functions: 0.86 MiB
      Mixer: 1.46 MiB
    Hamiltonian: 5.40 MiB
      Arrays: 2.49 MiB
      XC: 0.00 MiB
      Poisson: 2.85 MiB
      vbar: 0.07 MiB
    Wavefunctions: 4.05 MiB
      C [qnM]: 0.23 MiB
      S, T [2 x qmm]: 1.49 MiB
      P [aqMi]: 0.01 MiB
      TCI: 0.00 MiB
      BasisFunctions: 2.33 MiB
      Eigensolver: 0.00 MiB

Total number of cores used: 16
Domain decomposition: 2 x 4 x 2

Number of atoms: 24
Number of atomic orbitals: 312
Number of bands in calculation: 98
Bands to converge: occupied states only
Number of valence electrons: 96

... initialized

Initializing position-dependent things.

Density initialized from atomic densities
           .--------------------------------------.  
          /|                                      |  
         / |                                      |  
        /  |                                      |  
       /   |                                      |  
      /    |                                      |  
     /     |                                      |  
    /      |                                      |  
   /       |                                      |  
  /        |    C     C  C                        |  
 *         |        C      C  C  C                |  
 |         |  C    C C   C  C     CC              |  
 |         .-C-C------C--------C------------------.  
 |        /          C C  C                      /   
 |       /     C C                              /    
 |      /                                      /     
 |     /                                      /      
 |    /                                      /       
 |   /                                      /        
 |  /                                      /         
 | /                                      /          
 |/                                      /           
 *--------------------------------------*            

Positions:
   0 C     10.773867    6.150322    5.188351
   1 C     11.782285    6.925386    5.174675
   2 C     11.782326    8.162507    4.597059
   3 C     10.958559    9.162022    4.984830
   4 C      9.684321    9.179426    5.015138
   5 C      5.378194    8.712916    5.802876
   6 C      7.474601    9.965105    5.679214
   7 C      6.241915    9.843237    5.865144
   8 C      7.701780    7.586696    5.400398
   9 C      6.237274    7.531132    5.555899
  10 C      3.962109    8.671975    5.906811
  11 C      8.368230    8.896932    5.361862
  12 C      3.430618    6.367236    5.224453
  13 C      4.721990    4.126056    4.903132
  14 C      4.538842    5.494375    5.231172
  15 C      5.740551    3.387568    4.956784
  16 C      3.535561    7.625926    5.527187
  17 C      7.036786    3.769117    5.384702
  18 C      5.881275    6.011394    5.643247
  19 C      7.108986    5.212934    5.743139
  20 C      8.274157    3.142138    5.558936
  21 C      9.619129    4.987979    6.268930
  22 C      8.383408    5.815244    6.177413
  23 C      9.365741    3.655230    5.932901

Unit cell:
           periodic     x           y           z      points  spacing
  1. axis:    yes   16.000000    0.000000    0.000000    80     0.2000
  2. axis:    yes    0.000000   16.000000    0.000000    80     0.2000
  3. axis:    yes    0.000000    0.000000   10.000000    48     0.2083

Effective grid spacing dv^(1/3) = 0.2027

                     log10-error:    total        iterations:
           time      wfs    density  energy       fermi  poisson
iter:   1  10:12:36          +inf  -181.943453    3      6      
iter:   2  10:12:37         -0.90  -180.948715    3      3      
iter:   3  10:12:37         -0.93  -179.374773    32     4      
iter:   4  10:12:38         -1.08  -178.945928    3      2      
iter:   5  10:12:39         -1.09  -178.880751    30     3      
iter:   6  10:12:39         -1.25  -177.835082    3      3      
iter:   7  10:12:40         -1.38  -177.785947    4      3      
iter:   8  10:12:40         -1.45  -177.429196    3      3      
iter:   9  10:12:41         -1.62  -177.290188    4      2      
iter:  10  10:12:42         -1.68  -177.129670    3      3      
iter:  11  10:12:42         -1.89  -177.145575    2      2      
iter:  12  10:12:43         -2.00  -177.124715    3      3      
iter:  13  10:12:44         -2.16  -177.092705    3      2      
iter:  14  10:12:44         -2.33  -177.096857    3      2      
iter:  15  10:12:45         -2.55  -177.097091    3      2      
iter:  16  10:12:45         -2.68  -177.093517    2      2      
iter:  17  10:12:46         -2.74  -177.087196    3      2      
iter:  18  10:12:47         -3.08  -177.094678    2      1      
iter:  19  10:12:47         -3.15  -177.088244    2      1      
iter:  20  10:12:48         -3.30  -177.091441    2      1      
iter:  21  10:12:48         -3.36  -177.108074    2      1      
iter:  22  10:12:49         -3.71  -177.092841    2      1      
iter:  23  10:12:49         -3.81  -177.091114    2      1      
iter:  24  10:12:50         -3.86  -177.093413    2      1      
iter:  25  10:12:51         -3.89  -177.090713    2      1      
iter:  26  10:12:51         -3.99  -177.090144    2      1      
iter:  27  10:12:52         -4.18  -177.091779    2      1      

Converged after 27 iterations.

Dipole moment: (0.409968, -0.036636, 0.051518) |e|*Ang

Energy contributions relative to reference atoms: (reference = -24663.074771)

Kinetic:       +100.246666
Potential:     -109.392218
External:        +0.000000
XC:            -170.846099
Entropy (-ST):   -0.169562
Local:           +2.984653
--------------------------
Free energy:   -177.176560
Extrapolated:  -177.091779

Fermi level: -4.24788

 Band  Eigenvalues  Occupancy
    0    -22.25925    2.00000
    1    -21.75233    2.00000
    2    -21.25348    2.00000
    3    -20.87568    2.00000
    4    -20.58037    2.00000
    5    -19.60825    2.00000
    6    -19.46828    2.00000
    7    -19.03574    2.00000
    8    -18.33251    2.00000
    9    -18.05294    2.00000
   10    -17.74650    2.00000
   11    -16.77221    2.00000
   12    -16.39444    2.00000
   13    -15.73354    2.00000
   14    -15.17370    2.00000
   15    -14.82422    2.00000
   16    -14.08993    2.00000
   17    -13.27561    2.00000
   18    -13.11302    2.00000
   19    -12.73705    2.00000
   20    -12.35915    2.00000
   21    -12.00454    2.00000
   22    -11.92475    2.00000
   23    -11.23816    2.00000
   24    -11.02236    2.00000
   25    -10.67399    2.00000
   26    -10.15655    2.00000
   27     -9.88926    2.00000
   28     -9.58033    2.00000
   29     -9.26104    2.00000
   30     -8.98922    2.00000
   31     -8.92793    2.00000
   32     -8.62545    2.00000
   33     -8.27016    2.00000
   34     -7.90714    2.00000
   35     -7.62011    2.00000
   36     -7.32452    2.00000
   37     -7.24879    2.00000
   38     -7.15216    2.00000
   39     -6.75440    2.00000
   40     -6.52115    2.00000
   41     -6.45892    2.00000
   42     -6.26804    2.00000
   43     -5.96439    2.00000
   44     -5.65578    2.00000
   45     -5.54437    2.00000
   46     -4.58291    1.93223
   47     -4.47776    1.81755
   48     -4.05026    0.24346
   49     -3.66454    0.00584
   50     -3.47452    0.00088
   51     -3.17329    0.00004
   52     -2.89481    0.00000
   53     -2.75361    0.00000
   54     -2.23262    0.00000
   55     -2.18281    0.00000
   56     -1.79059    0.00000
   57     -1.17200    0.00000
   58     -0.94260    0.00000
   59     -0.73472    0.00000
   60     -0.31681    0.00000
   61     -0.20456    0.00000
   62      0.62018    0.00000
   63      0.90836    0.00000
   64      1.78122    0.00000
   65      2.17583    0.00000
   66      3.32600    0.00000
   67      3.95189    0.00000
   68      4.12879    0.00000
   69      4.63406    0.00000
   70      5.07788    0.00000
   71      5.38409    0.00000
   72      5.69899    0.00000
   73      6.06215    0.00000
   74      6.55142    0.00000
   75      6.87664    0.00000
   76      7.21013    0.00000
   77      7.39845    0.00000
   78      7.92705    0.00000
   79      8.06608    0.00000
   80      8.16414    0.00000
   81      8.53957    0.00000
   82      8.72560    0.00000
   83      8.98190    0.00000
   84      9.04584    0.00000
   85      9.18090    0.00000
   86      9.30294    0.00000
   87      9.38908    0.00000
   88      9.54603    0.00000
   89      9.59311    0.00000
   90      9.75465    0.00000
   91      9.83398    0.00000
   92      9.99867    0.00000
   93     10.01274    0.00000
   94     10.03004    0.00000
   95     10.19445    0.00000
   96     10.27058    0.00000
   97     10.30417    0.00000


Forces in eV/Ang:
  0 C    -1.37056   -4.84139    2.95179
  1 C     0.35464    0.65827   -0.15991
  2 C    -0.08800    0.58388   -0.00647
  3 C     0.17224   -0.12088   -0.13484
  4 C    -0.00160   -0.02585    0.18459
  5 C     0.42025    0.73015    0.21625
  6 C     0.11329   -0.15088   -0.34111
  7 C    -0.45582   -0.18227   -0.00395
  8 C     0.18190   -0.39533    2.19320
  9 C     1.65324   -2.57548    0.89916
 10 C     3.77833    8.83943    2.63877
 11 C     0.24945    0.08590    0.21614
 12 C    -0.74723   -1.38532   -0.15848
 13 C    -0.08504   -0.20791   -0.05406
 14 C     0.92622    0.71682    0.34434
 15 C     0.18243   -0.09838    0.01241
 16 C    -3.60338   -8.83773   -2.77869
 17 C    -0.41278   -0.06027   -0.07609
 18 C     0.31435    2.07604   -1.10394
 19 C    -0.25869   -0.44285    1.02408
 20 C    -0.14970   -0.77119    0.79134
 21 C     0.40674    4.80084   -3.44188
 22 C    -1.91331    0.67322   -2.78054
 23 C     0.33850    0.93841   -0.35911

System changes: positions 

Initializing position-dependent things.

Density initialized from wave functions
           .--------------------------------------.  
          /|                                      |  
         / |                                      |  
        /  |                                      |  
       /   |                                      |  
      /    |                                      |  
     /     |                                      |  
    /      |                                      |  
   /       |                                      |  
  /        |    C     C  C                        |  
 *         |        C      C  C  C                |  
 |         |  C    C C   C  C     CC              |  
 |         .-C--C-----C--------C------------------.  
 |        /          C C  C                      /   
 |       /     C C                              /    
 |      /                                      /     
 |     /                                      /      
 |    /                                      /       
 |   /                                      /        
 |  /                                      /         
 | /                                      /          
 |/                                      /           
 *--------------------------------------*            

Positions:
   0 C     10.768368    6.130896    5.200196
   1 C     11.783708    6.928027    5.174033
   2 C     11.781973    8.164850    4.597033
   3 C     10.959251    9.161537    4.984289
   4 C      9.684315    9.179323    5.015879
   5 C      5.379880    8.715846    5.803744
   6 C      7.475055    9.964499    5.677846
   7 C      6.240086    9.842506    5.865128
   8 C      7.702510    7.585110    5.409198
   9 C      6.243908    7.520798    5.559507
  10 C      3.977270    8.707444    5.917399
  11 C      8.369231    8.897277    5.362729
  12 C      3.427619    6.361677    5.223817
  13 C      4.721648    4.125222    4.902915
  14 C      4.542558    5.497251    5.232553
  15 C      5.741283    3.387174    4.956834
  16 C      3.521102    7.590464    5.516038
  17 C      7.035130    3.768875    5.384397
  18 C      5.882536    6.019724    5.638818
  19 C      7.107948    5.211157    5.747248
  20 C      8.273556    3.139043    5.562111
  21 C      9.620761    5.007243    6.255120
  22 C      8.375730    5.817946    6.166256
  23 C      9.367099    3.658995    5.931460

Unit cell:
           periodic     x           y           z      points  spacing
  1. axis:    yes   16.000000    0.000000    0.000000    80     0.2000
  2. axis:    yes    0.000000   16.000000    0.000000    80     0.2000
  3. axis:    yes    0.000000    0.000000   10.000000    48     0.2083

Effective grid spacing dv^(1/3) = 0.2027

                     log10-error:    total        iterations:
           time      wfs    density  energy       fermi  poisson
iter:   1  10:12:54          +inf  -178.201363    3      5      
iter:   2  10:12:54         -1.93  -178.104872    3      2      
iter:   3  10:12:55         -2.06  -178.007267    2      2      
iter:   4  10:12:56         -2.17  -178.004947    2      1      
iter:   5  10:12:56         -2.26  -178.015292    2      2      
iter:   6  10:12:57         -2.47  -177.997261    2      2      
iter:   7  10:12:58         -2.45  -178.001889    3      2      
iter:   8  10:12:58         -2.86  -178.002929    2      1      
iter:   9  10:12:59         -2.93  -178.001772    2      2      
iter:  10  10:12:59         -3.28  -178.000946    2      1      
iter:  11  10:13:00         -3.37  -178.001797    2      1      
iter:  12  10:13:00         -3.52  -178.000962    2      1      
iter:  13  10:13:01         -3.65  -177.999668    2      1      
iter:  14  10:13:02         -3.77  -178.001060    2      1      
iter:  15  10:13:02         -3.91  -178.001274    1      1      
iter:  16  10:13:03         -3.96  -178.000942    2      1      
iter:  17  10:13:03         -4.27  -178.001324    2      1      

Converged after 17 iterations.

Dipole moment: (0.433024, -0.071160, 0.032047) |e|*Ang

Energy contributions relative to reference atoms: (reference = -24663.074771)

Kinetic:        +92.970031
Potential:     -104.115743
External:        +0.000000
XC:            -169.744550
Entropy (-ST):   -0.155798
Local:           +2.966837
--------------------------
Free energy:   -178.079223
Extrapolated:  -178.001324

Fermi level: -4.25735

 Band  Eigenvalues  Occupancy
    0    -22.24914    2.00000
    1    -21.71426    2.00000
    2    -21.22325    2.00000
    3    -20.87170    2.00000
    4    -20.44917    2.00000
    5    -19.62618    2.00000
    6    -19.50449    2.00000
    7    -18.98475    2.00000
    8    -18.27499    2.00000
    9    -18.05772    2.00000
   10    -17.75587    2.00000
   11    -16.83212    2.00000
   12    -16.29816    2.00000
   13    -15.76654    2.00000
   14    -15.17035    2.00000
   15    -14.81624    2.00000
   16    -14.09485    2.00000
   17    -13.28216    2.00000
   18    -13.12379    2.00000
   19    -12.76815    2.00000
   20    -12.38251    2.00000
   21    -11.98357    2.00000
   22    -11.92542    2.00000
   23    -11.17281    2.00000
   24    -10.98264    2.00000
   25    -10.68717    2.00000
   26    -10.18091    2.00000
   27     -9.88115    2.00000
   28     -9.62896    2.00000
   29     -9.24475    2.00000
   30     -9.04016    2.00000
   31     -8.92542    2.00000
   32     -8.62881    2.00000
   33     -8.20317    2.00000
   34     -7.96687    2.00000
   35     -7.61233    2.00000
   36     -7.32789    2.00000
   37     -7.14888    2.00000
   38     -7.12993    2.00000
   39     -6.74420    2.00000
   40     -6.51998    2.00000
   41     -6.41999    2.00000
   42     -6.28523    2.00000
   43     -5.94706    2.00000
   44     -5.66582    2.00000
   45     -5.57296    2.00000
   46     -4.61536    1.94577
   47     -4.49485    1.82981
   48     -4.04830    0.22005
   49     -3.62327    0.00352
   50     -3.47691    0.00082
   51     -3.17754    0.00004
   52     -2.89155    0.00000
   53     -2.78218    0.00000
   54     -2.25426    0.00000
   55     -2.13794    0.00000
   56     -1.82383    0.00000
   57     -1.17549    0.00000
   58     -0.93389    0.00000
   59     -0.86900    0.00000
   60     -0.31894    0.00000
   61     -0.19108    0.00000
   62      0.63394    0.00000
   63      0.86984    0.00000
   64      1.76080    0.00000
   65      2.10986    0.00000
   66      3.27064    0.00000
   67      3.94362    0.00000
   68      4.11925    0.00000
   69      4.63127    0.00000
   70      5.11316    0.00000
   71      5.35677    0.00000
   72      5.73432    0.00000
   73      6.04404    0.00000
   74      6.51267    0.00000
   75      6.84988    0.00000
   76      7.25279    0.00000
   77      7.42160    0.00000
   78      7.95374    0.00000
   79      8.04335    0.00000
   80      8.12178    0.00000
   81      8.54076    0.00000
   82      8.68534    0.00000
   83      8.93811    0.00000
   84      9.05069    0.00000
   85      9.19062    0.00000
   86      9.31676    0.00000
   87      9.41413    0.00000
   88      9.57265    0.00000
   89      9.61309    0.00000
   90      9.74997    0.00000
   91      9.81286    0.00000
   92      9.97279    0.00000
   93     10.00445    0.00000
   94     10.02545    0.00000
   95     10.19516    0.00000
   96     10.28178    0.00000
   97     10.31099    0.00000


Forces in eV/Ang:
  0 C    -0.48606   -4.02910    3.04738
  1 C    -0.73132   -0.18211   -0.09074
  2 C    -0.06864    0.41506   -0.02138
  3 C     0.10171   -0.05399   -0.12013
  4 C    -0.00697   -0.02323    0.18378
  5 C     0.45716    0.25178    0.09528
  6 C    -0.11348   -0.11340   -0.28448
  7 C     0.04474   -0.02017   -0.02287
  8 C     0.27716   -0.53796    2.18012
  9 C     1.49736   -2.10777    0.83071
 10 C     0.72344    2.97767    0.57744
 11 C     0.24079    0.05302    0.23003
 12 C    -0.65260   -2.42231   -0.39097
 13 C    -0.02446   -0.07429    0.00843
 14 C     0.98951    0.24542    0.23504
 15 C     0.08432   -0.04087    0.01023
 16 C    -0.96263   -1.40573   -0.32508
 17 C    -0.29205   -0.06379    0.00449
 18 C     0.27736    1.64740   -1.01496
 19 C    -0.45831   -0.44035    0.82492
 20 C     0.12256   -0.54914    0.86728
 21 C     0.50901    4.48062   -3.69156
 22 C    -1.71042    0.85826   -2.70640
 23 C     0.14376    1.08155   -0.35341

System changes: positions 

Initializing position-dependent things.

Density initialized from wave functions
           .--------------------------------------.  
          /|                                      |  
         / |                                      |  
        /  |                                      |  
       /   |                                      |  
      /    |                                      |  
     /     |                                      |  
    /      |                                      |  
   /       |                                      |  
  /        |    C     C  C                        |  
 *         |        C      C  C  C                |  
 |         |  C    C C   C  C     CC              |  
 |         .-C--C-----C--------C------------------.  
 |        /         C  C  C                      /   
 |       /     C C                              /    
 |      /                                      /     
 |     /                                      /      
 |    /                                      /       
 |   /                                      /        
 |  /                                      /         
 | /                                      /          
 |/                                      /           
 *--------------------------------------*            

Positions:
   0 C     10.765699    6.103818    5.221215
   1 C     11.777856    6.926137    5.173462
   2 C     11.781515    8.167575    4.596875
   3 C     10.959896    9.161216    4.983475
   4 C      9.684263    9.179165    5.017141
   5 C      5.383050    8.717213    5.804307
   6 C      7.474103    9.963748    5.675933
   7 C      6.240774    9.842490    5.864956
   8 C      7.704488    7.581303    5.424174
   9 C      6.254082    7.506665    5.565165
  10 C      3.979921    8.723457    5.919802
  11 C      8.370880    8.897616    5.364321
  12 C      3.423205    6.344238    5.220953
  13 C      4.721526    4.124813    4.903020
  14 C      4.549408    5.498580    5.234086
  15 C      5.741788    3.386936    4.956903
  16 C      3.516492    7.586449    5.515668
  17 C      7.033214    3.768434    5.384489
  18 C      5.884415    6.030722    5.631909
  19 C      7.104646    5.208132    5.752767
  20 C      8.274605    3.135437    5.568130
  21 C      9.624338    5.037799    6.229555
  22 C      8.364128    5.823986    6.147709
  23 C      9.367940    3.666538    5.929035

Unit cell:
           periodic     x           y           z      points  spacing
  1. axis:    yes   16.000000    0.000000    0.000000    80     0.2000
  2. axis:    yes    0.000000   16.000000    0.000000    80     0.2000
  3. axis:    yes    0.000000    0.000000   10.000000    48     0.2083

Effective grid spacing dv^(1/3) = 0.2027

                     log10-error:    total        iterations:
           time      wfs    density  energy       fermi  poisson
iter:   1  10:13:05          +inf  -178.905024    3      5      
iter:   2  10:13:06         -1.91  -178.803051    3      2      
iter:   3  10:13:07         -2.07  -178.702095    2      2      
iter:   4  10:13:07         -2.26  -178.704152    2      1      
iter:   5  10:13:08         -2.40  -178.716993    2      2      
iter:   6  10:13:08         -2.56  -178.699102    2      2      
iter:   7  10:13:09         -2.62  -178.705055    2      2      
iter:   8  10:13:10         -2.97  -178.704819    2      1      
iter:   9  10:13:10         -3.04  -178.703930    2      2      
iter:  10  10:13:11         -3.38  -178.704270    2      1      
iter:  11  10:13:11         -3.46  -178.704140    2      1      
iter:  12  10:13:12         -3.60  -178.703747    2      1      
iter:  13  10:13:13         -3.76  -178.703892    2      1      
iter:  14  10:13:13         -3.84  -178.703712    2      1      
iter:  15  10:13:14         -4.04  -178.703933    2      1      

Converged after 15 iterations.

Dipole moment: (0.460621, -0.070562, 0.032569) |e|*Ang

Energy contributions relative to reference atoms: (reference = -24663.074771)

Kinetic:        +88.229870
Potential:     -100.638387
External:        +0.000000
XC:            -169.182366
Entropy (-ST):   -0.143355
Local:           +2.958629
--------------------------
Free energy:   -178.775610
Extrapolated:  -178.703933

Fermi level: -4.24754

 Band  Eigenvalues  Occupancy
    0    -22.25588    2.00000
    1    -21.69119    2.00000
    2    -21.19382    2.00000
    3    -20.84706    2.00000
    4    -20.38301    2.00000
    5    -19.68599    2.00000
    6    -19.48093    2.00000
    7    -18.97146    2.00000
    8    -18.22166    2.00000
    9    -18.07620    2.00000
   10    -17.76444    2.00000
   11    -16.83062    2.00000
   12    -16.28158    2.00000
   13    -15.78677    2.00000
   14    -15.18854    2.00000
   15    -14.80182    2.00000
   16    -14.08548    2.00000
   17    -13.28538    2.00000
   18    -13.14407    2.00000
   19    -12.75101    2.00000
   20    -12.41228    2.00000
   21    -11.96437    2.00000
   22    -11.91372    2.00000
   23    -11.21257    2.00000
   24    -10.91583    2.00000
   25    -10.71236    2.00000
   26    -10.22666    2.00000
   27     -9.90314    2.00000
   28     -9.68504    2.00000
   29     -9.24918    2.00000
   30     -9.10590    2.00000
   31     -8.91570    2.00000
   32     -8.61854    2.00000
   33     -8.19046    2.00000
   34     -8.04568    2.00000
   35     -7.63617    2.00000
   36     -7.30092    2.00000
   37     -7.15148    2.00000
   38     -7.04430    2.00000
   39     -6.72960    2.00000
   40     -6.53131    2.00000
   41     -6.40991    2.00000
   42     -6.30690    2.00000
   43     -5.94743    2.00000
   44     -5.67865    2.00000
   45     -5.60416    2.00000
   46     -4.63501    1.95932
   47     -4.49088    1.83868
   48     -4.02707    0.19866
   49     -3.57853    0.00248
   50     -3.46634    0.00081
   51     -3.17859    0.00005
   52     -2.90164    0.00000
   53     -2.79681    0.00000
   54     -2.23834    0.00000
   55     -2.08836    0.00000
   56     -1.81990    0.00000
   57     -1.14780    0.00000
   58     -0.95087    0.00000
   59     -0.90467    0.00000
   60     -0.30618    0.00000
   61     -0.10811    0.00000
   62      0.67864    0.00000
   63      0.86684    0.00000
   64      1.76477    0.00000
   65      2.12681    0.00000
   66      3.22695    0.00000
   67      3.93436    0.00000
   68      4.13234    0.00000
   69      4.60288    0.00000
   70      5.12237    0.00000
   71      5.41427    0.00000
   72      5.76609    0.00000
   73      6.02580    0.00000
   74      6.46209    0.00000
   75      6.82413    0.00000
   76      7.23989    0.00000
   77      7.44898    0.00000
   78      7.92865    0.00000
   79      7.99227    0.00000
   80      8.13379    0.00000
   81      8.58647    0.00000
   82      8.67140    0.00000
   83      8.88770    0.00000
   84      9.07272    0.00000
   85      9.19452    0.00000
   86      9.34217    0.00000
   87      9.42317    0.00000
   88      9.56225    0.00000
   89      9.63893    0.00000
   90      9.74680    0.00000
   91      9.80717    0.00000
   92      9.93694    0.00000
   93     10.01055    0.00000
   94     10.04322    0.00000
   95     10.19468    0.00000
   96     10.30345    0.00000
   97     10.33272    0.00000


Forces in eV/Ang:
  0 C     0.01825   -3.38544    3.15458
  1 C    -1.57710   -0.63393   -0.05209
  2 C     0.00349    0.03639   -0.03969
  3 C    -0.01693   -0.01069   -0.06028
  4 C     0.07168    0.00235    0.17021
  5 C     0.47700   -0.02110    0.05446
  6 C     0.03761   -0.11236   -0.30034
  7 C     0.00756   -0.04208   -0.00413
  8 C     0.55163   -0.63518    2.12983
  9 C     1.07975   -1.36488    0.78173
 10 C     0.15266    1.64736    0.11730
 11 C     0.11609   -0.04971    0.28677
 12 C    -0.65293   -1.20462   -0.10595
 13 C     0.09298   -0.09919    0.04128
 14 C     0.88044    0.17728    0.16032
 15 C    -0.02054   -0.00880   -0.00746
 16 C    -0.44258   -1.11492   -0.11656
 17 C    -0.12477   -0.08675    0.13563
 18 C     0.35293    1.05444   -0.87407
 19 C    -0.64923   -0.41933    0.57585
 20 C     0.26148   -0.28943    0.87820
 21 C     0.66273    4.04347   -3.95100
 22 C    -1.40815    1.15410   -2.59927
 23 C     0.05148    1.34837   -0.31108

System changes: positions 

Initializing position-dependent things.

Density initialized from wave functions
           .--------------------------------------.  
          /|                                      |  
         / |                                      |  
        /  |                                      |  
       /   |                                      |  
      /    |                                      |  
     /     |                                      |  
    /      |                                      |  
   /       |                                      |  
  /        |    C     C  C                        |  
 *         |        C      C  C  C                |  
 |         |  C    C C   C  C     CC              |  
 |         .-C--C-----C--------C------------------.  
 |        /         C  C  C                      /   
 |       /     C C                              /    
 |      /                                      /     
 |     /                                      /      
 |    /                                      /       
 |   /                                      /        
 |  /                                      /         
 | /                                      /          
 |/                                      /           
 *--------------------------------------*            

Positions:
   0 C     10.766297    6.080539    5.243519
   1 C     11.766008    6.921246    5.173131
   2 C     11.781595    8.167537    4.596580
   3 C     10.959683    9.161180    4.983095
   4 C      9.684824    9.179200    5.018330
   5 C      5.386428    8.716810    5.804646
   6 C      7.474451    9.962962    5.673813
   7 C      6.240859    9.842197    5.864939
   8 C      7.708583    7.576743    5.439135
   9 C      6.261365    7.497647    5.570627
  10 C      3.980223    8.733403    5.920052
  11 C      8.371606    8.897188    5.366383
  12 C      3.418618    6.336516    5.220386
  13 C      4.722273    4.124112    4.903342
  14 C      4.555537    5.499724    5.235148
  15 C      5.741556    3.386905    4.956837
  16 C      3.514063    7.579684    5.515287
  17 C      7.032471    3.767806    5.385549
  18 C      5.886950    6.037667    5.625866
  19 C      7.099912    5.205195    5.756618
  20 C      8.276580    3.133614    5.574331
  21 C      9.629128    5.065919    6.201514
  22 C      8.354454    5.832349    6.129491
  23 C      9.368212    3.676244    5.926876

Unit cell:
           periodic     x           y           z      points  spacing
  1. axis:    yes   16.000000    0.000000    0.000000    80     0.2000
  2. axis:    yes    0.000000   16.000000    0.000000    80     0.2000
  3. axis:    yes    0.000000    0.000000   10.000000    48     0.2083

Effective grid spacing dv^(1/3) = 0.2027

                     log10-error:    total        iterations:
           time      wfs    density  energy       fermi  poisson
iter:   1  10:13:16          +inf  -179.478154    3      5      
iter:   2  10:13:16         -1.96  -179.392577    3      2      
iter:   3  10:13:17         -2.13  -179.310582    2      2      
iter:   4  10:13:18         -2.36  -179.313555    2      1      
iter:   5  10:13:18         -2.48  -179.323828    2      2      
iter:   6  10:13:19         -2.65  -179.308830    2      2      
iter:   7  10:13:19         -2.71  -179.314858    2      2      
iter:   8  10:13:20         -3.04  -179.314101    2      1      
iter:   9  10:13:21         -3.12  -179.313672    2      2      
iter:  10  10:13:21         -3.45  -179.314064    2      1      
iter:  11  10:13:22         -3.55  -179.313349    2      1      
iter:  12  10:13:22         -3.81  -179.313994    2      1      
iter:  13  10:13:23         -3.87  -179.314059    2      1      
iter:  14  10:13:24         -4.04  -179.313815    2      1      

Converged after 14 iterations.

Dipole moment: (0.485830, -0.078222, 0.033872) |e|*Ang

Energy contributions relative to reference atoms: (reference = -24663.074771)

Kinetic:        +85.622961
Potential:      -98.791388
External:        +0.000000
XC:            -169.040175
Entropy (-ST):   -0.132633
Local:           +2.961104
--------------------------
Free energy:   -179.380132
Extrapolated:  -179.313815

Fermi level: -4.23797

 Band  Eigenvalues  Occupancy
    0    -22.26640    2.00000
    1    -21.67472    2.00000
    2    -21.17209    2.00000
    3    -20.82561    2.00000
    4    -20.33870    2.00000
    5    -19.73612    2.00000
    6    -19.46059    2.00000
    7    -18.97077    2.00000
    8    -18.19491    2.00000
    9    -18.09209    2.00000
   10    -17.76611    2.00000
   11    -16.84409    2.00000
   12    -16.28534    2.00000
   13    -15.79698    2.00000
   14    -15.21363    2.00000
   15    -14.79932    2.00000
   16    -14.08102    2.00000
   17    -13.29635    2.00000
   18    -13.15318    2.00000
   19    -12.72830    2.00000
   20    -12.43346    2.00000
   21    -11.95926    2.00000
   22    -11.89443    2.00000
   23    -11.27130    2.00000
   24    -10.85328    2.00000
   25    -10.74984    2.00000
   26    -10.26874    2.00000
   27     -9.93212    2.00000
   28     -9.70389    2.00000
   29     -9.27144    2.00000
   30     -9.14047    2.00000
   31     -8.90475    2.00000
   32     -8.61295    2.00000
   33     -8.21916    2.00000
   34     -8.10300    2.00000
   35     -7.65769    2.00000
   36     -7.28309    2.00000
   37     -7.15275    2.00000
   38     -6.99935    2.00000
   39     -6.72271    2.00000
   40     -6.54354    2.00000
   41     -6.39998    2.00000
   42     -6.32765    2.00000
   43     -5.95993    2.00000
   44     -5.68756    2.00000
   45     -5.62909    2.00000
   46     -4.65792    1.97044
   47     -4.48624    1.84585
   48     -4.00731    0.18115
   49     -3.53180    0.00171
   50     -3.45514    0.00080
   51     -3.17744    0.00005
   52     -2.90224    0.00000
   53     -2.80476    0.00000
   54     -2.22632    0.00000
   55     -2.02834    0.00000
   56     -1.80385    0.00000
   57     -1.10594    0.00000
   58     -0.96690    0.00000
   59     -0.86591    0.00000
   60     -0.26799    0.00000
   61     -0.00816    0.00000
   62      0.73146    0.00000
   63      0.89620    0.00000
   64      1.78943    0.00000
   65      2.19148    0.00000
   66      3.23056    0.00000
   67      3.91867    0.00000
   68      4.13653    0.00000
   69      4.58492    0.00000
   70      5.11477    0.00000
   71      5.46150    0.00000
   72      5.78335    0.00000
   73      6.02474    0.00000
   74      6.43734    0.00000
   75      6.79255    0.00000
   76      7.23262    0.00000
   77      7.45667    0.00000
   78      7.85596    0.00000
   79      7.99819    0.00000
   80      8.15432    0.00000
   81      8.62260    0.00000
   82      8.65201    0.00000
   83      8.87206    0.00000
   84      9.09788    0.00000
   85      9.19884    0.00000
   86      9.37004    0.00000
   87      9.43126    0.00000
   88      9.56328    0.00000
   89      9.66436    0.00000
   90      9.73332    0.00000
   91      9.80186    0.00000
   92      9.91759    0.00000
   93     10.00705    0.00000
   94     10.05555    0.00000
   95     10.19837    0.00000
   96     10.31398    0.00000
   97     10.35672    0.00000


Forces in eV/Ang:
  0 C     0.00860   -3.10461    3.26463
  1 C    -1.90466   -0.68469   -0.03328
  2 C     0.02208   -0.22788   -0.03720
  3 C     0.02479   -0.07158   -0.01430
  4 C     0.02124    0.00731    0.16208
  5 C     0.35807   -0.18784    0.03601
  6 C     0.00698   -0.10125   -0.28158
  7 C     0.11151   -0.04654   -0.01117
  8 C     0.70183   -0.75215    2.10555
  9 C     0.87540   -0.87930    0.74676
 10 C    -0.10719    0.84364   -0.15276
 11 C     0.09922   -0.12711    0.31373
 12 C    -0.52800   -1.04416   -0.06471
 13 C     0.06697   -0.00959    0.06846
 14 C     0.67961    0.16952    0.09173
 15 C     0.03990   -0.05797    0.00135
 16 C    -0.09426   -0.43630    0.12913
 17 C    -0.05388   -0.11912    0.22624
 18 C     0.32096    0.65496   -0.75797
 19 C    -0.66437   -0.38488    0.39427
 20 C     0.32948   -0.08971    0.84684
 21 C     0.79862    3.68921   -4.11573
 22 C    -1.16701    1.37811   -2.52692
 23 C     0.01015    1.54290   -0.29758

System changes: positions 

Initializing position-dependent things.

Density initialized from wave functions
           .--------------------------------------.  
          /|                                      |  
         / |                                      |  
        /  |                                      |  
       /   |                                      |  
      /    |                                      |  
     /     |                                      |  
    /      |                                      |  
   /       |                                      |  
  /        |    C     C  C                        |  
 *         |        C      C  C  C                |  
 |         |  C    C C   C  C     CC              |  
 |         .-C--C-----C--------C------------------.  
 |        /         C  C  C                      /   
 |       /     C C                              /    
 |      /                                      /     
 |     /                                      /      
 |    /                                      /       
 |   /                                      /        
 |  /                                      /         
 | /                                      /          
 |/                                      /           
 *--------------------------------------*            

Positions:
   0 C     10.765454    6.057931    5.267118
   1 C     11.752802    6.917010    5.172870
   2 C     11.781722    8.165681    4.596343
   3 C     10.960108    9.160444    4.983043
   4 C      9.684780    9.179240    5.019488
   5 C      5.388674    8.715525    5.804954
   6 C      7.474387    9.962243    5.671824
   7 C      6.241723    9.841798    5.864832
   8 C      7.713697    7.571204    5.454267
   9 C      6.267620    7.491608    5.575987
  10 C      3.980751    8.741429    5.919667
  11 C      8.372399    8.896195    5.368646
  12 C      3.415087    6.328732    5.219861
  13 C      4.722552    4.124226    4.903842
  14 C      4.560001    5.501204    5.235759
  15 C      5.742136    3.386310    4.956886
  16 C      3.512543    7.574538    5.515499
  17 C      7.032046    3.766893    5.387238
  18 C      5.889125    6.042147    5.620529
  19 C      7.095370    5.202492    5.759331
  20 C      8.278860    3.133115    5.580298
  21 C      9.635014    5.092128    6.171875
  22 C      8.346280    5.842446    6.111367
  23 C      9.368360    3.687500    5.924727

Unit cell:
           periodic     x           y           z      points  spacing
  1. axis:    yes   16.000000    0.000000    0.000000    80     0.2000
  2. axis:    yes    0.000000   16.000000    0.000000    80     0.2000
  3. axis:    yes    0.000000    0.000000   10.000000    48     0.2083

Effective grid spacing dv^(1/3) = 0.2027

                     log10-error:    total        iterations:
           time      wfs    density  energy       fermi  poisson
iter:   1  10:13:26          +inf  -180.041540    3      5      
iter:   2  10:13:26         -1.99  -179.963418    3      2      
iter:   3  10:13:27         -2.16  -179.887815    2      2      
iter:   4  10:13:27         -2.40  -179.890651    2      1      
iter:   5  10:13:28         -2.51  -179.898555    2      2      
iter:   6  10:13:29         -2.71  -179.885817    2      2      
iter:   7  10:13:29         -2.75  -179.891680    2      2      
iter:   8  10:13:30         -3.06  -179.890555    2      1      
iter:   9  10:13:30         -3.17  -179.890588    2      2      
iter:  10  10:13:31         -3.46  -179.890931    2      1      
iter:  11  10:13:32         -3.56  -179.890200    2      1      
iter:  12  10:13:32         -3.84  -179.890952    2      1      
iter:  13  10:13:33         -3.91  -179.890917    2      1      
iter:  14  10:13:33         -4.11  -179.890737    2      1      

Converged after 14 iterations.

Dipole moment: (0.505784, -0.082888, 0.034650) |e|*Ang

Energy contributions relative to reference atoms: (reference = -24663.074771)

Kinetic:        +83.436377
Potential:      -97.261036
External:        +0.000000
XC:            -168.970094
Entropy (-ST):   -0.125576
Local:           +2.966804
--------------------------
Free energy:   -179.953525
Extrapolated:  -179.890737

Fermi level: -4.23554

 Band  Eigenvalues  Occupancy
    0    -22.27530    2.00000
    1    -21.66019    2.00000
    2    -21.15547    2.00000
    3    -20.80607    2.00000
    4    -20.30777    2.00000
    5    -19.77366    2.00000
    6    -19.44307    2.00000
    7    -18.98087    2.00000
    8    -18.17239    2.00000
    9    -18.10226    2.00000
   10    -17.76130    2.00000
   11    -16.85370    2.00000
   12    -16.30146    2.00000
   13    -15.80293    2.00000
   14    -15.23690    2.00000
   15    -14.79967    2.00000
   16    -14.07213    2.00000
   17    -13.30966    2.00000
   18    -13.16614    2.00000
   19    -12.71702    2.00000
   20    -12.45584    2.00000
   21    -11.95858    2.00000
   22    -11.87226    2.00000
   23    -11.35629    2.00000
   24    -10.80058    2.00000
   25    -10.78750    2.00000
   26    -10.30138    2.00000
   27     -9.95983    2.00000
   28     -9.70490    2.00000
   29     -9.29790    2.00000
   30     -9.15698    2.00000
   31     -8.89041    2.00000
   32     -8.61067    2.00000
   33     -8.28683    2.00000
   34     -8.13235    2.00000
   35     -7.67484    2.00000
   36     -7.26523    2.00000
   37     -7.14941    2.00000
   38     -6.96439    2.00000
   39     -6.71136    2.00000
   40     -6.55406    2.00000
   41     -6.39136    2.00000
   42     -6.33812    2.00000
   43     -5.96780    2.00000
   44     -5.69075    2.00000
   45     -5.64423    2.00000
   46     -4.68082    1.97698
   47     -4.48728    1.85071
   48     -3.99819    0.17044
   49     -3.48807    0.00113
   50     -3.43794    0.00069
   51     -3.17265    0.00005
   52     -2.90240    0.00000
   53     -2.80831    0.00000
   54     -2.21804    0.00000
   55     -1.98258    0.00000
   56     -1.76821    0.00000
   57     -1.08640    0.00000
   58     -0.97384    0.00000
   59     -0.81208    0.00000
   60     -0.22397    0.00000
   61      0.11830    0.00000
   62      0.78827    0.00000
   63      0.93431    0.00000
   64      1.81292    0.00000
   65      2.28364    0.00000
   66      3.25687    0.00000
   67      3.90222    0.00000
   68      4.12727    0.00000
   69      4.57006    0.00000
   70      5.12072    0.00000
   71      5.47863    0.00000
   72      5.79294    0.00000
   73      6.03261    0.00000
   74      6.41569    0.00000
   75      6.76906    0.00000
   76      7.22383    0.00000
   77      7.45774    0.00000
   78      7.79859    0.00000
   79      8.00988    0.00000
   80      8.16271    0.00000
   81      8.62527    0.00000
   82      8.65203    0.00000
   83      8.87587    0.00000
   84      9.11576    0.00000
   85      9.21149    0.00000
   86      9.40007    0.00000
   87      9.44395    0.00000
   88      9.56684    0.00000
   89      9.68755    0.00000
   90      9.71682    0.00000
   91      9.80051    0.00000
   92      9.90630    0.00000
   93     10.00314    0.00000
   94     10.07233    0.00000
   95     10.20373    0.00000
   96     10.32835    0.00000
   97     10.37801    0.00000


Forces in eV/Ang:
  0 C     0.06851   -2.69259    3.25752
  1 C    -2.20153   -0.82657    0.02649
  2 C     0.02539   -0.42935   -0.03325
  3 C    -0.02346   -0.12802    0.01310
  4 C     0.08331    0.00864    0.14284
  5 C     0.33312   -0.26424    0.02357
  6 C     0.06590   -0.10846   -0.28081
  7 C     0.09287   -0.08439   -0.00450
  8 C     0.77111   -0.82442    2.05089
  9 C     0.71417   -0.56647    0.71126
 10 C    -0.32149    0.24281   -0.35315
 11 C     0.07060   -0.19039    0.34760
 12 C    -0.46608   -0.75165    0.00228
 13 C     0.14548   -0.02734    0.09106
 14 C     0.55777    0.11962    0.03641
 15 C    -0.02336   -0.02926    0.00533
 16 C     0.15007   -0.06258    0.27590
 17 C     0.00383   -0.13862    0.29849
 18 C     0.28865    0.40006   -0.65098
 19 C    -0.63368   -0.32797    0.23660
 20 C     0.40916    0.08549    0.81324
 21 C     0.83971    3.35598   -4.13590
 22 C    -0.95494    1.60864   -2.48507
 23 C    -0.02998    1.64613   -0.29691

System changes: positions 

Initializing position-dependent things.

Density initialized from wave functions
           .--------------------------------------.  
          /|                                      |  
         / |                                      |  
        /  |                                      |  
       /   |                                      |  
      /    |                                      |  
     /     |                                      |  
    /      |                                      |  
   /       |                                      |  
  /        |    C     C  C                        |  
 *         |        C      C  C  C                |  
 |         |  C    C C   C  C     CC              |  
 |         .-C--C-----C--------C------------------.  
 |        /         C  C  C                      /   
 |       /     C C                              /    
 |      /                                      /     
 |     /                                      /      
 |    /                                      /       
 |   /                                      /        
 |  /                                      /         
 | /                                      /          
 |/                                      /           
 *--------------------------------------*            

Positions:
   0 C     10.764333    6.037192    5.291323
   1 C     11.737817    6.911899    5.173180
   2 C     11.781734    8.162646    4.596166
   3 C     10.960069    9.159081    4.983099
   4 C      9.685485    9.179245    5.020518
   5 C      5.391007    8.714233    5.805268
   6 C      7.474928    9.961364    5.669707
   7 C      6.242069    9.840935    5.864794
   8 C      7.719057    7.565022    5.469638
   9 C      6.273471    7.486481    5.581373
  10 C      3.981051    8.748268    5.918791
  11 C      8.373125    8.894768    5.371262
  12 C      3.411766    6.322046    5.219626
  13 C      4.723652    4.123906    4.904498
  14 C      4.563916    5.502404    5.236063
  15 C      5.742018    3.386092    4.956989
  16 C      3.511503    7.569524    5.515902
  17 C      7.031817    3.765824    5.389414
  18 C      5.891004    6.045864    5.615660
  19 C      7.091341    5.200207    5.761207
  20 C      8.281744    3.133700    5.586207
  21 C      9.641065    5.117342    6.141418
  22 C      8.339083    5.854697    6.092478
  23 C      9.368333    3.699590    5.922380

Unit cell:
           periodic     x           y           z      points  spacing
  1. axis:    yes   16.000000    0.000000    0.000000    80     0.2000
  2. axis:    yes    0.000000   16.000000    0.000000    80     0.2000
  3. axis:    yes    0.000000    0.000000   10.000000    48     0.2083

Effective grid spacing dv^(1/3) = 0.2027

                     log10-error:    total        iterations:
           time      wfs    density  energy       fermi  poisson
iter:   1  10:13:35          +inf  -180.591578    3      5      
iter:   2  10:13:36         -2.01  -180.516395    3      2      
iter:   3  10:13:37         -2.17  -180.441561    2      2      
iter:   4  10:13:37         -2.42  -180.444358    2      1      
iter:   5  10:13:38         -2.53  -180.451175    2      2      
iter:   6  10:13:38         -2.74  -180.439741    2      2      
iter:   7  10:13:39         -2.78  -180.445197    2      2      
iter:   8  10:13:40         -3.07  -180.443561    2      1      
iter:   9  10:13:40         -3.21  -180.444199    2      2      
iter:  10  10:13:41         -3.47  -180.444540    2      1      
iter:  11  10:13:41         -3.57  -180.443714    2      1      
iter:  12  10:13:42         -3.84  -180.444705    2      1      
iter:  13  10:13:43         -3.93  -180.444584    2      1      
iter:  14  10:13:43         -4.10  -180.444407    2      1      

Converged after 14 iterations.

Dipole moment: (0.521889, -0.087462, 0.035552) |e|*Ang

Energy contributions relative to reference atoms: (reference = -24663.074771)

Kinetic:        +81.996802
Potential:      -96.315523
External:        +0.000000
XC:            -169.038423
Entropy (-ST):   -0.120889
Local:           +2.973182
--------------------------
Free energy:   -180.504851
Extrapolated:  -180.444407

Fermi level: -4.23651

 Band  Eigenvalues  Occupancy
    0    -22.28390    2.00000
    1    -21.64606    2.00000
    2    -21.14168    2.00000
    3    -20.78806    2.00000
    4    -20.28458    2.00000
    5    -19.80844    2.00000
    6    -19.42700    2.00000
    7    -19.00172    2.00000
    8    -18.16656    2.00000
    9    -18.10113    2.00000
   10    -17.75188    2.00000
   11    -16.86551    2.00000
   12    -16.32683    2.00000
   13    -15.80557    2.00000
   14    -15.26343    2.00000
   15    -14.80176    2.00000
   16    -14.06163    2.00000
   17    -13.32460    2.00000
   18    -13.17748    2.00000
   19    -12.70759    2.00000
   20    -12.48259    2.00000
   21    -11.95953    2.00000
   22    -11.85270    2.00000
   23    -11.45475    2.00000
   24    -10.81261    2.00000
   25    -10.75446    2.00000
   26    -10.32284    2.00000
   27     -9.98574    2.00000
   28     -9.70003    2.00000
   29     -9.32142    2.00000
   30     -9.16727    2.00000
   31     -8.87511    2.00000
   32     -8.61178    2.00000
   33     -8.37168    2.00000
   34     -8.15227    2.00000
   35     -7.69160    2.00000
   36     -7.24787    2.00000
   37     -7.14857    2.00000
   38     -6.93793    2.00000
   39     -6.70118    2.00000
   40     -6.56525    2.00000
   41     -6.38196    2.00000
   42     -6.34934    2.00000
   43     -5.97518    2.00000
   44     -5.69615    2.00000
   45     -5.64968    2.00000
   46     -4.70402    1.98152
   47     -4.49013    1.85328
   48     -3.99483    0.16380
   49     -3.45882    0.00084
   50     -3.40818    0.00051
   51     -3.16618    0.00004
   52     -2.90158    0.00000
   53     -2.80411    0.00000
   54     -2.20982    0.00000
   55     -1.94209    0.00000
   56     -1.72520    0.00000
   57     -1.08104    0.00000
   58     -0.96727    0.00000
   59     -0.74746    0.00000
   60     -0.16538    0.00000
   61      0.25958    0.00000
   62      0.85121    0.00000
   63      0.99024    0.00000
   64      1.84455    0.00000
   65      2.39501    0.00000
   66      3.32049    0.00000
   67      3.88552    0.00000
   68      4.11436    0.00000
   69      4.56489    0.00000
   70      5.13290    0.00000
   71      5.48341    0.00000
   72      5.79761    0.00000
   73      6.04768    0.00000
   74      6.39955    0.00000
   75      6.74128    0.00000
   76      7.21906    0.00000
   77      7.44522    0.00000
   78      7.75598    0.00000
   79      8.01846    0.00000
   80      8.17439    0.00000
   81      8.60002    0.00000
   82      8.66575    0.00000
   83      8.88601    0.00000
   84      9.12075    0.00000
   85      9.22624    0.00000
   86      9.42647    0.00000
   87      9.46071    0.00000
   88      9.56911    0.00000
   89      9.68798    0.00000
   90      9.72853    0.00000
   91      9.80591    0.00000
   92      9.89920    0.00000
   93      9.99613    0.00000
   94     10.09288    0.00000
   95     10.20926    0.00000
   96     10.34222    0.00000
   97     10.39511    0.00000


Forces in eV/Ang:
  0 C     0.09073   -2.28297    3.11593
  1 C    -2.36018   -0.88137    0.07341
  2 C     0.02451   -0.63507   -0.01363
  3 C     0.00388   -0.19275    0.03217
  4 C     0.04115   -0.00068    0.13172
  5 C     0.28664   -0.34372    0.01238
  6 C     0.02917   -0.12806   -0.26320
  7 C     0.17507   -0.09455   -0.01128
  8 C     0.85839   -0.87668    2.00268
  9 C     0.57483   -0.31467    0.67576
 10 C    -0.48770   -0.25334   -0.51341
 11 C     0.07366   -0.24910    0.36701
 12 C    -0.40538   -0.56482    0.04627
 13 C     0.10517    0.04037    0.10975
 14 C     0.43554    0.06854   -0.01577
 15 C     0.04666   -0.07224    0.02484
 16 C     0.34127    0.28741    0.39641
 17 C     0.04230   -0.14626    0.35856
 18 C     0.24153    0.18234   -0.55963
 19 C    -0.57831   -0.26928    0.09181
 20 C     0.44691    0.22911    0.78046
 21 C     0.77823    2.96815   -4.06596
 22 C    -0.80958    1.75047   -2.41781
 23 C    -0.02610    1.74844   -0.27883

System changes: positions 

Initializing position-dependent things.

Density initialized from wave functions
           .--------------------------------------.  
          /|                                      |  
         / |                                      |  
        /  |                                      |  
       /   |                                      |  
      /    |                                      |  
     /     |                                      |  
    /      |                                      |  
   /       |                                      |  
  /        |    C     C  C                        |  
 *         |        C      C  C  C                |  
 |         |  C    C C   C  C     CC              |  
 |         .-C--C-----C--------C------------------.  
 |        /         C  C  C                      /   
 |       /     C C                              /    
 |      /                                      /     
 |     /                                      /      
 |    /                                      /       
 |   /                                      /        
 |  /                                      /         
 | /                                      /          
 |/                                      /           
 *--------------------------------------*            

Positions:
   0 C     10.762768    6.017956    5.315385
   1 C     11.721663    6.906542    5.173922
   2 C     11.781631    8.157970    4.596235
   3 C     10.960503    9.156962    4.983203
   4 C      9.685607    9.179094    5.021559
   5 C      5.393220    8.712606    5.805581
   6 C      7.474895    9.960133    5.667600
   7 C      6.243280    9.839945    5.864653
   8 C      7.725325    7.558141    5.485894
   9 C      6.279119    7.481850    5.586951
  10 C      3.981212    8.754295    5.917481
  11 C      8.374148    8.892835    5.374178
  12 C      3.408533    6.315563    5.219549
  13 C      4.724095    4.124291    4.905311
  14 C      4.567329    5.503295    5.236051
  15 C      5.742921    3.385297    4.957344
  16 C      3.510722    7.564791    5.516456
  17 C      7.031649    3.764695    5.392098
  18 C      5.892513    6.048980    5.610972
  19 C      7.087844    5.198287    5.762297
  20 C      8.284893    3.135175    5.592307
  21 C      9.646291    5.141467    6.109943
  22 C      8.331932    5.868607    6.072527
  23 C      9.368641    3.713182    5.920011

Unit cell:
           periodic     x           y           z      points  spacing
  1. axis:    yes   16.000000    0.000000    0.000000    80     0.2000
  2. axis:    yes    0.000000   16.000000    0.000000    80     0.2000
  3. axis:    yes    0.000000    0.000000   10.000000    48     0.2083

Effective grid spacing dv^(1/3) = 0.2027

                     log10-error:    total        iterations:
           time      wfs    density  energy       fermi  poisson
iter:   1  10:13:45          +inf  -181.125256    3      5      
iter:   2  10:13:46         -2.01  -181.049659    3      2      
iter:   3  10:13:46         -2.17  -180.972390    2      2      
iter:   4  10:13:47         -2.42  -180.974968    2      1      
iter:   5  10:13:48         -2.52  -180.981194    2      2      
iter:   6  10:13:48         -2.75  -180.970457    1      2      
iter:   7  10:13:49         -2.79  -180.973244    2      1      
iter:   8  10:13:49         -3.08  -180.974484    2      1      
iter:   9  10:13:50         -3.20  -180.974536    2      2      
iter:  10  10:13:51         -3.42  -180.975276    2      1      
iter:  11  10:13:51         -3.57  -180.973646    2      1      
iter:  12  10:13:52         -3.54  -180.974918    2      1      
iter:  13  10:13:52         -3.86  -180.975366    2      1      
iter:  14  10:13:53         -3.94  -180.974630    2      1      
iter:  15  10:13:54         -3.92  -180.975363    2      1      
iter:  16  10:13:54         -4.24  -180.975378    1      1      

Converged after 16 iterations.

Dipole moment: (0.534504, -0.091361, 0.035435) |e|*Ang

Energy contributions relative to reference atoms: (reference = -24663.074771)

Kinetic:        +81.052482
Potential:      -95.755150
External:        +0.000000
XC:            -169.191060
Entropy (-ST):   -0.117709
Local:           +2.977205
--------------------------
Free energy:   -181.034233
Extrapolated:  -180.975378

Fermi level: -4.24155

 Band  Eigenvalues  Occupancy
    0    -22.29289    2.00000
    1    -21.63251    2.00000
    2    -21.13172    2.00000
    3    -20.77195    2.00000
    4    -20.26881    2.00000
    5    -19.84039    2.00000
    6    -19.41409    2.00000
    7    -19.03384    2.00000
    8    -18.17571    2.00000
    9    -18.08467    2.00000
   10    -17.73961    2.00000
   11    -16.87831    2.00000
   12    -16.35711    2.00000
   13    -15.80849    2.00000
   14    -15.29088    2.00000
   15    -14.80577    2.00000
   16    -14.04957    2.00000
   17    -13.34262    2.00000
   18    -13.19083    2.00000
   19    -12.70271    2.00000
   20    -12.51886    2.00000
   21    -11.96398    2.00000
   22    -11.83333    2.00000
   23    -11.55110    2.00000
   24    -10.82320    2.00000
   25    -10.71354    2.00000
   26    -10.33708    2.00000
   27    -10.01179    2.00000
   28     -9.69121    2.00000
   29     -9.33736    2.00000
   30     -9.17649    2.00000
   31     -8.85916    2.00000
   32     -8.62247    2.00000
   33     -8.45782    2.00000
   34     -8.17308    2.00000
   35     -7.70715    2.00000
   36     -7.23176    2.00000
   37     -7.14820    2.00000
   38     -6.91786    2.00000
   39     -6.69126    2.00000
   40     -6.57317    2.00000
   41     -6.37395    2.00000
   42     -6.35332    2.00000
   43     -5.98043    2.00000
   44     -5.70418    2.00000
   45     -5.64127    2.00000
   46     -4.72750    1.98461
   47     -4.49630    1.85481
   48     -3.99700    0.15954
   49     -3.44369    0.00069
   50     -3.36743    0.00032
   51     -3.16018    0.00004
   52     -2.90683    0.00000
   53     -2.79814    0.00000
   54     -2.20693    0.00000
   55     -1.90461    0.00000
   56     -1.68312    0.00000
   57     -1.08577    0.00000
   58     -0.95531    0.00000
   59     -0.68226    0.00000
   60     -0.09411    0.00000
   61      0.40993    0.00000
   62      0.91166    0.00000
   63      1.07030    0.00000
   64      1.88397    0.00000
   65      2.49988    0.00000
   66      3.42939    0.00000
   67      3.87237    0.00000
   68      4.09705    0.00000
   69      4.57484    0.00000
   70      5.15170    0.00000
   71      5.48391    0.00000
   72      5.79745    0.00000
   73      6.07044    0.00000
   74      6.38804    0.00000
   75      6.72650    0.00000
   76      7.22224    0.00000
   77      7.42468    0.00000
   78      7.73755    0.00000
   79      8.02656    0.00000
   80      8.18135    0.00000
   81      8.57390    0.00000
   82      8.67459    0.00000
   83      8.90045    0.00000
   84      9.11953    0.00000
   85      9.23444    0.00000
   86      9.44566    0.00000
   87      9.47959    0.00000
   88      9.56545    0.00000
   89      9.68484    0.00000
   90      9.74617    0.00000
   91      9.82358    0.00000
   92      9.89996    0.00000
   93      9.99283    0.00000
   94     10.11686    0.00000
   95     10.21574    0.00000
   96     10.35701    0.00000
   97     10.40944    0.00000


Forces in eV/Ang:
  0 C     0.16559   -1.82962    2.85346
  1 C    -2.43365   -0.90285    0.11780
  2 C     0.01154   -0.79866    0.02289
  3 C    -0.03740   -0.24765    0.04542
  4 C     0.09934   -0.01005    0.10844
  5 C     0.26067   -0.39831    0.00523
  6 C     0.11285   -0.14764   -0.26596
  7 C     0.13215   -0.12794   -0.00267
  8 C     0.87234   -0.94751    1.93315
  9 C     0.45587   -0.09250    0.65928
 10 C    -0.59876   -0.68631   -0.63711
 11 C     0.05734   -0.29987    0.40154
 12 C    -0.35276   -0.38071    0.08667
 13 C     0.19584   -0.01747    0.12420
 14 C     0.31395    0.04103   -0.05836
 15 C    -0.03128   -0.03226    0.03464
 16 C     0.49348    0.56739    0.48625
 17 C     0.09484   -0.14807    0.41624
 18 C     0.21036   -0.00664   -0.46867
 19 C    -0.53296   -0.18798   -0.05287
 20 C     0.50840    0.36474    0.76053
 21 C     0.66714    2.58965   -3.83821
 22 C    -0.65707    1.86592   -2.32473
 23 C    -0.06825    1.77756   -0.29814

System changes: positions 

Initializing position-dependent things.

Density initialized from wave functions
           .--------------------------------------.  
          /|                                      |  
         / |                                      |  
        /  |                                      |  
       /   |                                      |  
      /    |                                      |  
     /     |                                      |  
    /      |                                      |  
   /       |                                      |  
  /        |    C     C  C                        |  
 *         |        C      C  C  C                |  
 |         |  C    C C   C  C     CC              |  
 |         .-C--C-----C--------C------------------.  
 |        /         C  C  C                      /   
 |       /     C C                              /    
 |      /                                      /     
 |     /                                      /      
 |    /                                      /       
 |   /                                      /        
 |  /                                      /         
 | /                                      /          
 |/                                      /           
 *--------------------------------------*            

Positions:
   0 C     10.761539    6.000306    5.338749
   1 C     11.704440    6.901042    5.175109
   2 C     11.781261    8.151799    4.596792
   3 C     10.960490    9.154099    4.983317
   4 C      9.686521    9.178785    5.022480
   5 C      5.395613    8.710732    5.805938
   6 C      7.475947    9.958510    5.665144
   7 C      6.243773    9.838470    5.864614
   8 C      7.731891    7.549889    5.503427
   9 C      6.284900    7.477559    5.593201
  10 C      3.981537    8.759496    5.915794
  11 C      8.375216    8.890356    5.377760
  12 C      3.405234    6.309096    5.219611
  13 C      4.725728    4.123714    4.906285
  14 C      4.570246    5.504203    5.235794
  15 C      5.742845    3.385019    4.957835
  16 C      3.510123    7.560258    5.517146
  17 C      7.031808    3.763515    5.395458
  18 C      5.893926    6.051651    5.606354
  19 C      7.084535    5.196989    5.762481
  20 C      8.288859    3.137672    5.599033
  21 C      9.650339    5.165373    6.078129
  22 C      8.324827    5.884606    6.051078
  23 C      9.368596    3.728022    5.917003

Unit cell:
           periodic     x           y           z      points  spacing
  1. axis:    yes   16.000000    0.000000    0.000000    80     0.2000
  2. axis:    yes    0.000000   16.000000    0.000000    80     0.2000
  3. axis:    yes    0.000000    0.000000   10.000000    48     0.2083

Effective grid spacing dv^(1/3) = 0.2027

                     log10-error:    total        iterations:
           time      wfs    density  energy       fermi  poisson
iter:   1  10:13:56          +inf  -181.624425    2      5      
iter:   2  10:13:57         -2.02  -181.551194    3      2      
iter:   3  10:13:57         -2.18  -181.474408    2      2      
iter:   4  10:13:58         -2.43  -181.477067    2      1      
iter:   5  10:13:59         -2.53  -181.482474    2      2      
iter:   6  10:13:59         -2.77  -181.472281    2      2      
iter:   7  10:14:00         -2.80  -181.474774    2      1      
iter:   8  10:14:00         -3.08  -181.475608    2      1      
iter:   9  10:14:01         -3.24  -181.476586    2      2      
iter:  10  10:14:02         -3.45  -181.477223    2      1      
iter:  11  10:14:02         -3.57  -181.475468    2      1      
iter:  12  10:14:03         -3.57  -181.476870    2      1      
iter:  13  10:14:03         -3.86  -181.477279    2      1      
iter:  14  10:14:04         -3.95  -181.476544    2      1      
iter:  15  10:14:04         -3.93  -181.477342    2      1      
iter:  16  10:14:05         -4.26  -181.477280    2      1      

Converged after 16 iterations.

Dipole moment: (0.545553, -0.093875, 0.035562) |e|*Ang

Energy contributions relative to reference atoms: (reference = -24663.074771)

Kinetic:        +80.900345
Potential:      -95.813202
External:        +0.000000
XC:            -169.486563
Entropy (-ST):   -0.115776
Local:           +2.980029
--------------------------
Free energy:   -181.535168
Extrapolated:  -181.477280

Fermi level: -4.24910

 Band  Eigenvalues  Occupancy
    0    -22.30287    2.00000
    1    -21.61840    2.00000
    2    -21.12610    2.00000
    3    -20.75899    2.00000
    4    -20.26074    2.00000
    5    -19.87413    2.00000
    6    -19.40335    2.00000
    7    -19.07619    2.00000
    8    -18.19109    2.00000
    9    -18.06647    2.00000
   10    -17.72251    2.00000
   11    -16.89542    2.00000
   12    -16.39130    2.00000
   13    -15.80959    2.00000
   14    -15.32251    2.00000
   15    -14.80975    2.00000
   16    -14.03592    2.00000
   17    -13.36302    2.00000
   18    -13.20622    2.00000
   19    -12.69921    2.00000
   20    -12.56037    2.00000
   21    -11.97081    2.00000
   22    -11.81736    2.00000
   23    -11.62867    2.00000
   24    -10.82224    2.00000
   25    -10.67612    2.00000
   26    -10.34768    2.00000
   27    -10.03896    2.00000
   28     -9.67904    2.00000
   29     -9.34574    2.00000
   30     -9.18805    2.00000
   31     -8.84687    2.00000
   32     -8.66178    2.00000
   33     -8.52627    2.00000
   34     -8.19681    2.00000
   35     -7.72450    2.00000
   36     -7.21740    2.00000
   37     -7.15136    2.00000
   38     -6.90159    2.00000
   39     -6.68527    2.00000
   40     -6.57961    2.00000
   41     -6.36390    2.00000
   42     -6.35986    2.00000
   43     -5.98504    2.00000
   44     -5.71123    2.00000
   45     -5.62841    2.00000
   46     -4.75229    1.98703
   47     -4.50383    1.85479
   48     -4.00306    0.15737
   49     -3.43288    0.00057
   50     -3.32696    0.00020
   51     -3.15350    0.00003
   52     -2.90720    0.00000
   53     -2.78553    0.00000
   54     -2.20243    0.00000
   55     -1.86603    0.00000
   56     -1.64567    0.00000
   57     -1.09504    0.00000
   58     -0.93869    0.00000
   59     -0.62002    0.00000
   60     -0.00898    0.00000
   61      0.56284    0.00000
   62      0.97046    0.00000
   63      1.19106    0.00000
   64      1.93941    0.00000
   65      2.57893    0.00000
   66      3.57432    0.00000
   67      3.85958    0.00000
   68      4.08275    0.00000
   69      4.61024    0.00000
   70      5.17852    0.00000
   71      5.48150    0.00000
   72      5.79449    0.00000
   73      6.09618    0.00000
   74      6.38569    0.00000
   75      6.71159    0.00000
   76      7.22437    0.00000
   77      7.38830    0.00000
   78      7.73744    0.00000
   79      8.03385    0.00000
   80      8.19160    0.00000
   81      8.55154    0.00000
   82      8.67881    0.00000
   83      8.91042    0.00000
   84      9.11809    0.00000
   85      9.23192    0.00000
   86      9.45983    0.00000
   87      9.48811    0.00000
   88      9.56239    0.00000
   89      9.69200    0.00000
   90      9.75164    0.00000
   91      9.84423    0.00000
   92      9.90861    0.00000
   93     10.00357    0.00000
   94     10.14552    0.00000
   95     10.22339    0.00000
   96     10.37194    0.00000
   97     10.42219    0.00000


Forces in eV/Ang:
  0 C     0.24760   -1.35585    2.52311
  1 C    -2.38803   -0.87763    0.14955
  2 C    -0.00998   -0.92368    0.06260
  3 C     0.00404   -0.29877    0.05005
  4 C     0.05078   -0.02710    0.09695
  5 C     0.22886   -0.45492    0.00345
  6 C     0.04367   -0.17454   -0.24108
  7 C     0.24409   -0.12844   -0.01684
  8 C     0.89306   -0.96208    1.85868
  9 C     0.32330    0.09104    0.64278
 10 C    -0.68918   -1.05248   -0.73456
 11 C     0.08214   -0.36839    0.42561
 12 C    -0.30128   -0.19025    0.13633
 13 C     0.11205    0.07279    0.13623
 14 C     0.22023   -0.01250   -0.10017
 15 C     0.09353   -0.10233    0.06689
 16 C     0.61952    0.78888    0.55033
 17 C     0.11902   -0.13793    0.45838
 18 C     0.17033   -0.16393   -0.40274
 19 C    -0.47328   -0.11795   -0.19064
 20 C     0.47621    0.45924    0.69501
 21 C     0.42620    2.08946   -3.48985
 22 C    -0.52285    1.94308   -2.23714
 23 C    -0.04086    1.79424   -0.28465

System changes: positions 

Initializing position-dependent things.

Density initialized from wave functions
           .--------------------------------------.  
          /|                                      |  
         / |                                      |  
        /  |                                      |  
       /   |                                      |  
      /    |                                      |  
     /     |                                      |  
    /      |                                      |  
   /       |                                      |  
  /        |    C     C  C                        |  
 *         |        C      C  C  C                |  
 |         |  C    C C   C        CC              |  
 |         .-C--C-----C-----C--C------------------.  
 |        /         C  C  C                      /   
 |       /     C C                              /    
 |      /                                      /     
 |     /                                      /      
 |    /                                      /       
 |   /                                      /        
 |  /                                      /         
 | /                                      /          
 |/                                      /           
 *--------------------------------------*            

Positions:
   0 C     10.761005    5.983867    5.361982
   1 C     11.686232    6.895425    5.176680
   2 C     11.780496    8.144059    4.597926
   3 C     10.961133    9.150359    4.983357
   4 C      9.686830    9.178196    5.023497
   5 C      5.398275    8.708287    5.806412
   6 C      7.476038    9.956275    5.662565
   7 C      6.245808    9.836868    5.864356
   8 C      7.739406    7.540447    5.523303
   9 C      6.290766    7.473199    5.600521
  10 C      3.981832    8.764011    5.913597
  11 C      8.376935    8.886832    5.382145
  12 C      3.401652    6.302851    5.220082
  13 C      4.726248    4.124243    4.907475
  14 C      4.573189    5.504736    5.235230
  15 C      5.744613    3.383692    4.958817
  16 C      3.509773    7.555536    5.517949
  17 C      7.031996    3.762365    5.399581
  18 C      5.895233    6.054163    5.601231
  19 C      7.081311    5.196105    5.761691
  20 C      8.292649    3.140945    5.606172
  21 C      9.651623    5.188550    6.045553
  22 C      8.317248    5.903438    6.026666
  23 C      9.369128    3.745056    5.913633

Unit cell:
           periodic     x           y           z      points  spacing
  1. axis:    yes   16.000000    0.000000    0.000000    80     0.2000
  2. axis:    yes    0.000000   16.000000    0.000000    80     0.2000
  3. axis:    yes    0.000000    0.000000   10.000000    48     0.2083

Effective grid spacing dv^(1/3) = 0.2027

                     log10-error:    total        iterations:
           time      wfs    density  energy       fermi  poisson
iter:   1  10:14:07          +inf  -182.102080    2      5      
iter:   2  10:14:08         -2.02  -182.029272    3      2      
iter:   3  10:14:08         -2.18  -181.951060    2      2      
iter:   4  10:14:09         -2.43  -181.953596    2      1      
iter:   5  10:14:09         -2.52  -181.958755    2      2      
iter:   6  10:14:10         -2.76  -181.948365    2      2      
iter:   7  10:14:11         -2.78  -181.951086    2      1      
iter:   8  10:14:11         -3.08  -181.951937    2      1      
iter:   9  10:14:12         -3.23  -181.952968    2      2      
iter:  10  10:14:12         -3.44  -181.953736    2      1      
iter:  11  10:14:13         -3.56  -181.951867    2      1      
iter:  12  10:14:14         -3.54  -181.953302    2      1      
iter:  13  10:14:14         -3.84  -181.953762    2      1      
iter:  14  10:14:15         -3.94  -181.952977    2      1      
iter:  15  10:14:15         -3.89  -181.953821    2      1      
iter:  16  10:14:16         -4.25  -181.953760    2      1      

Converged after 16 iterations.

Dipole moment: (0.557327, -0.094883, 0.034801) |e|*Ang

Energy contributions relative to reference atoms: (reference = -24663.074771)

Kinetic:        +81.281723
Potential:      -96.282706
External:        +0.000000
XC:            -169.877828
Entropy (-ST):   -0.115162
Local:           +2.982632
--------------------------
Free energy:   -182.011341
Extrapolated:  -181.953760

Fermi level: -4.26003

 Band  Eigenvalues  Occupancy
    0    -22.31463    2.00000
    1    -21.60387    2.00000
    2    -21.12535    2.00000
    3    -20.74920    2.00000
    4    -20.25817    2.00000
    5    -19.90900    2.00000
    6    -19.39603    2.00000
    7    -19.12598    2.00000
    8    -18.20407    2.00000
    9    -18.04847    2.00000
   10    -17.70107    2.00000
   11    -16.91748    2.00000
   12    -16.42425    2.00000
   13    -15.81215    2.00000
   14    -15.35361    2.00000
   15    -14.81554    2.00000
   16    -14.02197    2.00000
   17    -13.38931    2.00000
   18    -13.22371    2.00000
   19    -12.69851    2.00000
   20    -12.61136    2.00000
   21    -11.98165    2.00000
   22    -11.79949    2.00000
   23    -11.68057    2.00000
   24    -10.80945    2.00000
   25    -10.64059    2.00000
   26    -10.35719    2.00000
   27    -10.07198    2.00000
   28     -9.66431    2.00000
   29     -9.34431    2.00000
   30     -9.20236    2.00000
   31     -8.84121    2.00000
   32     -8.75041    2.00000
   33     -8.55744    2.00000
   34     -8.22244    2.00000
   35     -7.74253    2.00000
   36     -7.20510    2.00000
   37     -7.15387    2.00000
   38     -6.88967    2.00000
   39     -6.68362    2.00000
   40     -6.57594    2.00000
   41     -6.36010    2.00000
   42     -6.35222    2.00000
   43     -5.98616    2.00000
   44     -5.71555    2.00000
   45     -5.60823    2.00000
   46     -4.77903    1.98892
   47     -4.51339    1.85293
   48     -4.01411    0.15753
   49     -3.42326    0.00046
   50     -3.29084    0.00012
   51     -3.14613    0.00003
   52     -2.91730    0.00000
   53     -2.77478    0.00000
   54     -2.20357    0.00000
   55     -1.82405    0.00000
   56     -1.61351    0.00000
   57     -1.10469    0.00000
   58     -0.91931    0.00000
   59     -0.56380    0.00000
   60      0.07856    0.00000
   61      0.71148    0.00000
   62      1.02192    0.00000
   63      1.37794    0.00000
   64      2.01323    0.00000
   65      2.63155    0.00000
   66      3.70948    0.00000
   67      3.85769    0.00000
   68      4.07293    0.00000
   69      4.68291    0.00000
   70      5.21197    0.00000
   71      5.48758    0.00000
   72      5.79253    0.00000
   73      6.11714    0.00000
   74      6.39218    0.00000
   75      6.72440    0.00000
   76      7.23088    0.00000
   77      7.35361    0.00000
   78      7.77052    0.00000
   79      8.04344    0.00000
   80      8.19776    0.00000
   81      8.53275    0.00000
   82      8.68232    0.00000
   83      8.91887    0.00000
   84      9.11924    0.00000
   85      9.21787    0.00000
   86      9.46754    0.00000
   87      9.49202    0.00000
   88      9.56842    0.00000
   89      9.70374    0.00000
   90      9.75163    0.00000
   91      9.85222    0.00000
   92      9.91484    0.00000
   93     10.03541    0.00000
   94     10.17964    0.00000
   95     10.23315    0.00000
   96     10.38750    0.00000
   97     10.43315    0.00000


Forces in eV/Ang:
  0 C     0.38760   -0.83715    2.07447
  1 C    -2.23725   -0.82893    0.18169
  2 C    -0.03819   -0.99526    0.09103
  3 C    -0.03430   -0.32836    0.05416
  4 C     0.10394   -0.04568    0.07329
  5 C     0.20601   -0.48665    0.00695
  6 C     0.18406   -0.20524   -0.24994
  7 C     0.14373   -0.16866   -0.00102
  8 C     0.90837   -0.95671    1.73540
  9 C     0.19054    0.26884    0.60029
 10 C    -0.73562   -1.36400   -0.81630
 11 C     0.06504   -0.42458    0.46424
 12 C    -0.23276   -0.02909    0.18099
 13 C     0.25995   -0.04542    0.14733
 14 C     0.09836   -0.01867   -0.13160
 15 C    -0.04913   -0.02094    0.07800
 16 C     0.71747    0.98170    0.60076
 17 C     0.16889   -0.11443    0.48787
 18 C     0.15025   -0.31742   -0.33618
 19 C    -0.41130   -0.00891   -0.32221
 20 C     0.53643    0.58898    0.66321
 21 C     0.10695    1.61962   -3.03591
 22 C    -0.45448    1.95871   -2.10864
 23 C    -0.12765    1.74349   -0.30903

System changes: positions 

Initializing position-dependent things.

Density initialized from wave functions
           .--------------------------------------.  
          /|                                      |  
         / |                                      |  
        /  |                                      |  
       /   |                                      |  
      /    |                                      |  
     /     |                                      |  
[...]

Kinetic:       +115.037124
Potential:     -123.795630
External:        +0.000000
XC:            -178.756996
Entropy (-ST):   -0.091101
Local:           +3.036555
--------------------------
Free energy:   -184.570048
Extrapolated:  -184.524498

Fermi level: -4.26374

 Band  Eigenvalues  Occupancy
    0    -22.59143    2.00000
    1    -21.66670    2.00000
    2    -21.40650    2.00000
    3    -20.92573    2.00000
    4    -20.46592    2.00000
    5    -20.19442    2.00000
    6    -19.58428    2.00000
    7    -19.38117    2.00000
    8    -18.34626    2.00000
    9    -18.17545    2.00000
   10    -17.53773    2.00000
   11    -17.23190    2.00000
   12    -16.54077    2.00000
   13    -15.99071    2.00000
   14    -15.55774    2.00000
   15    -14.95842    2.00000
   16    -14.02410    2.00000
   17    -13.73265    2.00000
   18    -13.28899    2.00000
   19    -12.90614    2.00000
   20    -12.72991    2.00000
   21    -12.05534    2.00000
   22    -11.82795    2.00000
   23    -11.75785    2.00000
   24    -10.79391    2.00000
   25    -10.73002    2.00000
   26    -10.43697    2.00000
   27    -10.42214    2.00000
   28     -9.61614    2.00000
   29     -9.47094    2.00000
   30     -9.37615    2.00000
   31     -9.25257    2.00000
   32     -8.97898    2.00000
   33     -8.71242    2.00000
   34     -8.41271    2.00000
   35     -7.92114    2.00000
   36     -7.31591    2.00000
   37     -7.20148    2.00000
   38     -6.90958    2.00000
   39     -6.75433    2.00000
   40     -6.52969    2.00000
   41     -6.31832    2.00000
   42     -6.27564    2.00000
   43     -6.07862    2.00000
   44     -5.75128    2.00000
   45     -5.47934    1.99999
   46     -5.00420    1.99878
   47     -4.54087    1.88221
   48     -3.98754    0.11883
   49     -3.32242    0.00016
   50     -3.13307    0.00002
   51     -2.98848    0.00001
   52     -2.75251    0.00000
   53     -2.72253    0.00000
   54     -2.18609    0.00000
   55     -1.74241    0.00000
   56     -1.28495    0.00000
   57     -1.02790    0.00000
   58     -0.81470    0.00000
   59      0.11660    0.00000
   60      0.39526    0.00000
   61      1.15845    0.00000
   62      1.40745    0.00000
   63      2.51891    0.00000
   64      3.41923    0.00000
   65      4.02938    0.00000
   66      4.15926    0.00000
   67      4.62416    0.00000
   68      4.85423    0.00000
   69      4.98789    0.00000
   70      5.80013    0.00000
   71      5.99973    0.00000
   72      6.11033    0.00000
   73      6.32491    0.00000
   74      6.75784    0.00000
   75      6.99097    0.00000
   76      7.35593    0.00000
   77      7.80422    0.00000
   78      7.96440    0.00000
   79      8.24499    0.00000
   80      8.64378    0.00000
   81      8.81633    0.00000
   82      8.89409    0.00000
   83      8.95014    0.00000
   84      9.04835    0.00000
   85      9.24548    0.00000
   86      9.52375    0.00000
   87      9.53872    0.00000
   88      9.64505    0.00000
   89      9.78767    0.00000
   90      9.84311    0.00000
   91      9.90445    0.00000
   92     10.11592    0.00000
   93     10.20035    0.00000
   94     10.30333    0.00000
   95     10.34861    0.00000
   96     10.43449    0.00000
   97     10.54587    0.00000


Forces in eV/Ang:
  0 C    -0.13067   -0.11393    0.01480
  1 C     0.18068    0.05548   -0.00205
  2 C    -0.05002    0.01724   -0.02933
  3 C     0.03383    0.05101    0.03694
  4 C    -0.08535    0.01923    0.06783
  5 C     0.02222   -0.01138   -0.01148
  6 C     0.01030    0.00062   -0.04323
  7 C     0.01981    0.00464   -0.02302
  8 C     0.01056    0.02314   -0.01498
  9 C     0.02847   -0.01476   -0.02106
 10 C     0.00956    0.04262    0.04524
 11 C     0.03394    0.01926   -0.00728
 12 C     0.01502   -0.08364   -0.02515
 13 C    -0.00696    0.01046   -0.00902
 14 C    -0.05333   -0.00783   -0.01454
 15 C    -0.05179   -0.05676    0.01569
 16 C    -0.02051    0.06060    0.03871
 17 C     0.00623    0.02174    0.01431
 18 C     0.01242    0.00239    0.00073
 19 C     0.03388    0.02491   -0.02061
 20 C     0.02688   -0.01590   -0.01507
 21 C    -0.09660   -0.01744    0.01255
 22 C    -0.02279    0.02796    0.01209
 23 C     0.04789   -0.01975   -0.00941

System changes: positions 

Initializing position-dependent things.

Density initialized from wave functions
           .--------------------------------------.  
          /|                                      |  
         / |                                      |  
        /  |                                      |  
       /   |                                      |  
      /    |                                      |  
     /     |                                      |  
    /      |                                      |  
   /       |                                      |  
  /        |          C   C                       |  
 *         |    C   C      C  C   C               |  
 |         |  C      C   C        CC              |  
 |         .-C-C---C-C---C--C--C------------------.  
 |        /    C C  C  C  C                      /   
 |       /                                      /    
 |      /                                      /     
 |     /                                      /      
 |    /                                      /       
 |   /                                      /        
 |  /                                      /         
 | /                                      /          
 |/                                      /           
 *--------------------------------------*            

Positions:
   0 C     10.782684    6.036464    5.477723
   1 C     11.782214    6.814204    5.455518
   2 C     11.896088    8.025365    4.830223
   3 C     11.024476    9.007444    5.172785
   4 C      9.755597    9.078818    5.184491
   5 C      5.405197    8.720483    5.688989
   6 C      7.527518    9.913607    5.765434
   7 C      6.279500    9.833595    5.840999
   8 C      7.727218    7.537391    5.527342
   9 C      6.255777    7.513993    5.563316
  10 C      3.988399    8.708020    5.621744
  11 C      8.422104    8.832249    5.501817
  12 C      3.236754    6.224286    5.403407
  13 C      4.650759    4.083364    5.359684
  14 C      4.465998    5.493896    5.411678
  15 C      5.665941    3.339723    5.356553
  16 C      3.483091    7.509306    5.489462
  17 C      6.988101    3.836004    5.420933
  18 C      5.812536    6.108426    5.468714
  19 C      7.009244    5.300703    5.450208
  20 C      8.301573    3.326725    5.477045
  21 C      9.516001    5.453276    5.506135
  22 C      8.203993    6.129992    5.496627
  23 C      9.330809    4.045823    5.483184

Unit cell:
           periodic     x           y           z      points  spacing
  1. axis:    yes   16.000000    0.000000    0.000000    80     0.2000
  2. axis:    yes    0.000000   16.000000    0.000000    80     0.2000
  3. axis:    yes    0.000000    0.000000   10.000000    48     0.2083

Effective grid spacing dv^(1/3) = 0.2027

                     log10-error:    total        iterations:
           time      wfs    density  energy       fermi  poisson
iter:   1  10:20:20          +inf  -184.529609    2      5      
iter:   2  10:20:21         -3.03  -184.528353    2      1      
iter:   3  10:20:22         -3.14  -184.526291    1      1      
iter:   4  10:20:22         -3.31  -184.526973    2      1      
iter:   5  10:20:23         -3.49  -184.524911    2      1      
iter:   6  10:20:23         -3.42  -184.525222    2      1      
iter:   7  10:20:24         -3.93  -184.526489    2      1      
iter:   8  10:20:25         -3.75  -184.525826    2      1      
iter:   9  10:20:25         -4.36  -184.525633    1      1      

Converged after 9 iterations.

Dipole moment: (0.701059, -0.047076, 0.063664) |e|*Ang

Energy contributions relative to reference atoms: (reference = -24663.074771)

Kinetic:       +114.847895
Potential:     -123.629305
External:        +0.000000
XC:            -178.716903
Entropy (-ST):   -0.089187
Local:           +3.017273
--------------------------
Free energy:   -184.570226
Extrapolated:  -184.525633

Fermi level: -4.25588

 Band  Eigenvalues  Occupancy
    0    -22.59083    2.00000
    1    -21.66537    2.00000
    2    -21.41027    2.00000
    3    -20.92801    2.00000
    4    -20.46582    2.00000
    5    -20.19287    2.00000
    6    -19.58477    2.00000
    7    -19.38381    2.00000
    8    -18.34566    2.00000
    9    -18.17832    2.00000
   10    -17.53754    2.00000
   11    -17.23109    2.00000
   12    -16.53940    2.00000
   13    -15.98993    2.00000
   14    -15.55522    2.00000
   15    -14.96169    2.00000
   16    -14.02455    2.00000
   17    -13.73200    2.00000
   18    -13.28935    2.00000
   19    -12.90704    2.00000
   20    -12.72885    2.00000
   21    -12.06118    2.00000
   22    -11.82650    2.00000
   23    -11.75658    2.00000
   24    -10.79485    2.00000
   25    -10.72593    2.00000
   26    -10.43696    2.00000
   27    -10.41971    2.00000
   28     -9.61602    2.00000
   29     -9.47162    2.00000
   30     -9.37683    2.00000
   31     -9.25011    2.00000
   32     -8.98576    2.00000
   33     -8.71337    2.00000
   34     -8.41234    2.00000
   35     -7.91873    2.00000
   36     -7.31575    2.00000
   37     -7.20327    2.00000
   38     -6.90378    2.00000
   39     -6.76145    2.00000
   40     -6.53163    2.00000
   41     -6.31938    2.00000
   42     -6.27525    2.00000
   43     -6.07637    2.00000
   44     -5.75023    2.00000
   45     -5.47857    1.99999
   46     -5.00520    1.99889
   47     -4.53600    1.88548
   48     -3.97661    0.11543
   49     -3.32357    0.00018
   50     -3.13619    0.00003
   51     -2.98734    0.00001
   52     -2.75284    0.00000
   53     -2.72127    0.00000
   54     -2.20066    0.00000
   55     -1.75035    0.00000
   56     -1.29211    0.00000
   57     -1.02497    0.00000
   58     -0.82673    0.00000
   59      0.11541    0.00000
   60      0.39613    0.00000
   61      1.15472    0.00000
   62      1.40992    0.00000
   63      2.51923    0.00000
   64      3.42023    0.00000
   65      4.02849    0.00000
   66      4.14962    0.00000
   67      4.62340    0.00000
   68      4.85641    0.00000
   69      4.98834    0.00000
   70      5.80268    0.00000
   71      5.99667    0.00000
   72      6.09521    0.00000
   73      6.32367    0.00000
   74      6.75660    0.00000
   75      6.98532    0.00000
   76      7.35445    0.00000
   77      7.80124    0.00000
   78      7.95670    0.00000
   79      8.24710    0.00000
   80      8.64432    0.00000
   81      8.81596    0.00000
   82      8.89492    0.00000
   83      8.95075    0.00000
   84      9.04742    0.00000
   85      9.24684    0.00000
   86      9.52611    0.00000
   87      9.53761    0.00000
   88      9.64935    0.00000
   89      9.78835    0.00000
   90      9.84865    0.00000
   91      9.89973    0.00000
   92     10.11370    0.00000
   93     10.19823    0.00000
   94     10.29743    0.00000
   95     10.34802    0.00000
   96     10.43341    0.00000
   97     10.54286    0.00000


Forces in eV/Ang:
  0 C    -0.08169   -0.07753    0.01165
  1 C     0.12050    0.00656   -0.00479
  2 C    -0.04780    0.02242   -0.01991
  3 C     0.04573    0.03525    0.03859
  4 C    -0.05977    0.01180    0.05638
  5 C     0.02437    0.00490   -0.01430
  6 C     0.00079   -0.00656   -0.04182
  7 C     0.01069   -0.00817   -0.02478
  8 C    -0.00876    0.02648   -0.01190
  9 C     0.01434   -0.01272   -0.00752
 10 C     0.01779    0.04772    0.03762
 11 C     0.00481    0.01470    0.00517
 12 C    -0.00206   -0.04565   -0.01351
 13 C    -0.00773   -0.01067   -0.00142
 14 C    -0.01139   -0.00559    0.00212
 15 C    -0.04539   -0.03358    0.01659
 16 C    -0.02737    0.02067    0.02812
 17 C    -0.01898    0.00941    0.01762
 18 C     0.00588    0.01977    0.00306
 19 C     0.02146    0.02234   -0.02424
 20 C     0.02278   -0.01049   -0.01212
 21 C    -0.06140    0.00497   -0.01516
 22 C    -0.01191    0.02133   -0.00085
 23 C     0.05721   -0.01253   -0.01259

System changes: positions 

Initializing position-dependent things.

Density initialized from wave functions
           .--------------------------------------.  
          /|                                      |  
         / |                                      |  
        /  |                                      |  
       /   |                                      |  
      /    |                                      |  
     /     |                                      |  
    /      |                                      |  
   /       |                                      |  
  /        |          C   C                       |  
 *         |    C   C      C  C   C               |  
 |         |  C      C   C        CC              |  
 |         .-C-C---C-C---C--C--C------------------.  
 |        /    C C  C  C  C                      /   
 |       /                                      /    
 |      /                                      /     
 |     /                                      /      
 |    /                                      /       
 |   /                                      /        
 |  /                                      /         
 | /                                      /          
 |/                                      /           
 *--------------------------------------*            

Positions:
   0 C     10.781034    6.038939    5.477191
   1 C     11.788331    6.811605    5.458679
   2 C     11.893490    8.024287    4.833284
   3 C     11.028044    9.011372    5.179083
   4 C      9.758182    9.078984    5.190981
   5 C      5.405317    8.721229    5.685631
   6 C      7.529235    9.913218    5.765671
   7 C      6.280703    9.834480    5.837217
   8 C      7.727364    7.538595    5.522244
   9 C      6.255830    7.514830    5.558113
  10 C      3.987420    8.708039    5.621763
  11 C      8.424069    8.832575    5.500678
  12 C      3.232529    6.222388    5.404428
  13 C      4.648336    4.083842    5.365185
  14 C      4.462541    5.494339    5.413845
  15 C      5.662442    3.338419    5.363979
  16 C      3.481027    7.509270    5.492007
  17 C      6.986875    3.836130    5.419932
  18 C      5.811360    6.108898    5.467848
  19 C      7.008338    5.301214    5.448808
  20 C      8.302403    3.328393    5.472725
  21 C      9.512620    5.455780    5.502827
  22 C      8.202076    6.131790    5.495179
  23 C      9.332361    4.047370    5.476029

Unit cell:
           periodic     x           y           z      points  spacing
  1. axis:    yes   16.000000    0.000000    0.000000    80     0.2000
  2. axis:    yes    0.000000   16.000000    0.000000    80     0.2000
  3. axis:    yes    0.000000    0.000000   10.000000    48     0.2083

Effective grid spacing dv^(1/3) = 0.2027

                     log10-error:    total        iterations:
           time      wfs    density  energy       fermi  poisson
iter:   1  10:20:27          +inf  -184.534623    2      4      
iter:   2  10:20:28         -2.84  -184.533658    2      1      
iter:   3  10:20:28         -2.95  -184.532096    2      1      
iter:   4  10:20:29         -3.21  -184.532322    2      1      
iter:   5  10:20:30         -3.36  -184.530195    1      1      
iter:   6  10:20:30         -3.37  -184.530771    2      1      
iter:   7  10:20:31         -3.77  -184.531487    2      1      
iter:   8  10:20:31         -3.77  -184.528899    2      1      
iter:   9  10:20:32         -4.16  -184.528688    1      1      

Converged after 9 iterations.

Dipole moment: (0.714106, -0.044793, 0.060659) |e|*Ang

Energy contributions relative to reference atoms: (reference = -24663.074771)

Kinetic:       +113.790727
Potential:     -122.793680
External:        +0.000000
XC:            -178.483086
Entropy (-ST):   -0.085913
Local:           +3.000307
--------------------------
Free energy:   -184.571645
Extrapolated:  -184.528688

Fermi level: -4.24624

 Band  Eigenvalues  Occupancy
    0    -22.58793    2.00000
    1    -21.66286    2.00000
    2    -21.41094    2.00000
    3    -20.92844    2.00000
    4    -20.46144    2.00000
    5    -20.18923    2.00000
    6    -19.58472    2.00000
    7    -19.38251    2.00000
    8    -18.34147    2.00000
    9    -18.17910    2.00000
   10    -17.53706    2.00000
   11    -17.23064    2.00000
   12    -16.53261    2.00000
   13    -15.98767    2.00000
   14    -15.54788    2.00000
   15    -14.96474    2.00000
   16    -14.02407    2.00000
   17    -13.73134    2.00000
   18    -13.28687    2.00000
   19    -12.90748    2.00000
   20    -12.72469    2.00000
   21    -12.06445    2.00000
   22    -11.82375    2.00000
   23    -11.75178    2.00000
   24    -10.79252    2.00000
   25    -10.71759    2.00000
   26    -10.43684    2.00000
   27    -10.41516    2.00000
   28     -9.61823    2.00000
   29     -9.46901    2.00000
   30     -9.37820    2.00000
   31     -9.24657    2.00000
   32     -8.99009    2.00000
   33     -8.71398    2.00000
   34     -8.40833    2.00000
   35     -7.91480    2.00000
   36     -7.31582    2.00000
   37     -7.20463    2.00000
   38     -6.89382    2.00000
   39     -6.76962    2.00000
   40     -6.53389    2.00000
   41     -6.32109    2.00000
   42     -6.27577    2.00000
   43     -6.07303    2.00000
   44     -5.75082    2.00000
   45     -5.47970    1.99999
   46     -5.00736    1.99901
   47     -4.53167    1.89108
   48     -3.96154    0.10968
   49     -3.32545    0.00020
   50     -3.14530    0.00003
   51     -2.98923    0.00001
   52     -2.75196    0.00000
   53     -2.72468    0.00000
   54     -2.22673    0.00000
   55     -1.76958    0.00000
   56     -1.30763    0.00000
   57     -1.02700    0.00000
   58     -0.84399    0.00000
   59      0.11224    0.00000
   60      0.39356    0.00000
   61      1.13555    0.00000
   62      1.40265    0.00000
   63      2.50118    0.00000
   64      3.41260    0.00000
   65      4.02400    0.00000
   66      4.14613    0.00000
   67      4.61582    0.00000
   68      4.84641    0.00000
   69      4.97014    0.00000
   70      5.80000    0.00000
   71      5.98374    0.00000
   72      6.06382    0.00000
   73      6.31220    0.00000
   74      6.74870    0.00000
   75      6.94957    0.00000
   76      7.34188    0.00000
   77      7.79564    0.00000
   78      7.93996    0.00000
   79      8.24391    0.00000
   80      8.63638    0.00000
   81      8.81058    0.00000
   82      8.89683    0.00000
   83      8.95196    0.00000
   84      9.04570    0.00000
   85      9.24478    0.00000
   86      9.52713    0.00000
   87      9.53473    0.00000
   88      9.65291    0.00000
   89      9.78861    0.00000
   90      9.85310    0.00000
   91      9.89163    0.00000
   92     10.11070    0.00000
   93     10.19342    0.00000
   94     10.28340    0.00000
   95     10.34260    0.00000
   96     10.42971    0.00000
   97     10.53554    0.00000


Forces in eV/Ang:
  0 C     0.01258    0.00979    0.00848
  1 C    -0.02984   -0.08115   -0.01291
  2 C    -0.06660    0.01664    0.01317
  3 C     0.03049    0.01943    0.03690
  4 C     0.01803    0.01369    0.03306
  5 C     0.00937    0.00644   -0.01478
  6 C    -0.02129    0.00589   -0.04945
  7 C     0.01005   -0.02915   -0.03149
  8 C    -0.01108    0.00378   -0.00050
  9 C    -0.01308   -0.00443    0.01067
 10 C     0.03920    0.01140    0.02651
 11 C    -0.03652    0.00355    0.02575
 12 C    -0.00748    0.07209    0.00808
 13 C     0.00983   -0.01854    0.00209
 14 C     0.04845   -0.00214   -0.00117
 15 C     0.05183   -0.00587    0.01168
 16 C    -0.02039   -0.04015    0.01728
 17 C    -0.04412   -0.00727    0.03247
 18 C    -0.01748    0.01978   -0.00642
 19 C    -0.02361    0.00814   -0.02234
 20 C     0.00229    0.02075   -0.01614
 21 C     0.05518    0.02606   -0.01441
 22 C    -0.00317    0.00513   -0.02761
 23 C     0.00097   -0.04288    0.00434

