
  ___ ___ ___ _ _ _  
 |   |   |_  | | | | 
 | | | | | . | | | | 
 |__ |  _|___|_____|  1.3.0b1
 |___|_|             

User:   esb@s66n14.grendel.cscaa.dk
Date:   Thu Nov  9 10:12:39 2017
Arch:   x86_64
Pid:    15316
Python: 2.7.13
gpaw:   /home/esb/DFT/gpaw_git/gpaw
_gpaw:  /home/esb/DFT/gpaw_git/build/bin.linux-x86_64-2.7/gpaw-python
ase:    /home/esb/DFT/ase_git/ase (version 3.15.0b1)
numpy:  /comm/swstack/core/python/2.7.13/lib/python2.7/site-packages/numpy (version 1.13.3)
scipy:  /comm/swstack/core/python/2.7.13/lib/python2.7/site-packages/scipy (version 0.19.1)
units:  Angstrom and eV
cores:  16
Extra parameters: {'blacs': True}

Input parameters:
  basis: dzp
  gpts: [80 80 48]
  kpts: [1 1 1]
  maxiter: 99
  mixer: {backend: pulay,
          beta: 0.05,
          method: separate,
          nmaxold: 5,
          weight: 75}
  mode: lcao
  nbands: -50
  occupations: {name: fermi-dirac,
                width: 0.1}
  poissonsolver: {eps: 1e-07,
                  name: fd,
                  nn: 3,
                  relax: GS}
  xc: PBE

System changes: positions, numbers, cell, pbc, initial_charges, initial_magmoms 

Initialize ...

C-setup:
  name: Carbon
  id: 4aa54d4b901d75f77cc0ea3eec22967b
  Z: 6
  valence: 4
  core: 2
  charge: 0.0
  file: /home/esb/DFT/gpaw-setups-0.8.7929/C.PBE.gz
  cutoffs: 0.64(comp), 1.14(filt), 1.14(core), lmax=2
  valence states:
                energy  radius
    2s(2.00)   -13.751   0.635
    2p(2.00)    -5.284   0.635
    *s          13.461   0.635
    *p          21.927   0.635
    *d           0.000   0.635

  LCAO basis set for C:
    Name: dzp
    File: /home/esb/DFT/gpaw-setups-0.8.7929/C.dzp.basis.gz
    Number of radial functions: 5
    Number of spherical harmonics: 13
      l=0, rc=5.5469 Bohr: 2s-sz confined orbital
      l=1, rc=6.6719 Bohr: 2p-sz confined orbital
      l=0, rc=3.0312 Bohr: 2s-dz split-valence wave
      l=1, rc=3.7500 Bohr: 2p-dz split-valence wave
      l=2, rc=6.6719 Bohr: d-type Gaussian polarization

Reference energy: -24663.074771

Spin-paired calculation

Occupation numbers:
  Fermi-Dirac: width=0.1000 eV

Convergence criteria:
  Maximum total energy change: 0.0005 eV / electron
  Maximum integral of absolute density change: 0.0001 electrons
  Maximum integral of absolute eigenstate change: 4e-08 eV^2
  Maximum number of iterations: 99

Symmetries present (total): 1

  ( 1  0  0)
  ( 0  1  0)
  ( 0  0  1)

1 k-point (Gamma)
1 k-point in the irreducible part of the Brillouin zone
       k-points in crystal coordinates                weights
   0:     0.00000000    0.00000000    0.00000000          1/1

Wave functions: LCAO
  Diagonalizer: Serial LAPACK
  Atomic Correction: dense with blas
  Datatype: float
  Eigensolver: None 

LCAO using direct dense diagonalizer 

Densities:
  Coarse grid: 80*80*48 grid
  Fine grid: 160*160*96 grid
  Total Charge: 0.000000 

Density mixing:
  Method: separate
  Backend: pulay
  Linear mixing parameter: 0.05
  Mixing with 5 old densities
  Damping of long wave oscillations: 75 

Hamiltonian:
  XC and Coulomb potentials evaluated on a 160*160*96 grid
  Using the PBE Exchange-Correlation functional
  Interpolation: tri-quintic (5. degree polynomial)
  Poisson solver: Gauss-Seidel solver with 6 multi-grid levels
    Coarsest grid: 5 x 5 x 3 points
    Stencil: 6*3+1=19 point O(h^6) finite-difference Laplacian
    Max iterations: 1000
    Tolerance: 1.000000e-07 

Memory estimate:
  Process memory now: 77.55 MiB
  Calculator: 15.59 MiB
    Density: 6.13 MiB
      Arrays: 3.81 MiB
      Localized functions: 0.86 MiB
      Mixer: 1.46 MiB
    Hamiltonian: 5.40 MiB
      Arrays: 2.49 MiB
      XC: 0.00 MiB
      Poisson: 2.85 MiB
      vbar: 0.07 MiB
    Wavefunctions: 4.05 MiB
      C [qnM]: 0.23 MiB
      S, T [2 x qmm]: 1.49 MiB
      P [aqMi]: 0.01 MiB
      TCI: 0.00 MiB
      BasisFunctions: 2.33 MiB
      Eigensolver: 0.00 MiB

Total number of cores used: 16
Domain decomposition: 2 x 4 x 2

Number of atoms: 24
Number of atomic orbitals: 312
Number of bands in calculation: 98
Bands to converge: occupied states only
Number of valence electrons: 96

... initialized

Initializing position-dependent things.

Density initialized from atomic densities
           .--------------------------------------.  
          /|                                      |  
         / |                                      |  
        /  |                                      |  
       /   |                                      |  
      /    |                                      |  
     /     |                                      |  
    /      |                                      |  
   /       |                                      |  
  /        |           C     C  C                 |  
 *         |C C  C  C       C   CC                |  
 |         |  C C   C     C   CC                  |  
 |         .-----------C---CC-C-------------------.  
 |        /         C     C                      /   
 |       /                                      /    
 |      /                                      /     
 |     /                                      /      
 |    /                                      /       
 |   /                                      /        
 |  /                                      /         
 | /                                      /          
 |/                                      /           
 *--------------------------------------*            

Positions:
   0 C      6.234102   10.583463    4.956606
   1 C      5.089952   10.068947    5.095744
   2 C      8.730410   11.105824    5.328144
   3 C      4.075351    9.228465    5.358003
   4 C      8.364872   10.318825    4.397835
   5 C      9.898563   10.644923    5.599173
   6 C      3.173206    8.282156    5.693216
   7 C      7.845891    9.103760    4.265853
   8 C     10.434076    9.421653    5.216394
   9 C      3.139976    6.088868    6.646039
  10 C      7.104605    8.105829    4.185388
  11 C      9.447729    8.806943    4.304330
  12 C      7.960871    4.206520    5.820503
  13 C      6.647209    3.916540    5.660217
  14 C     10.731988    5.840759    6.458928
  15 C      6.774580    4.219480    6.977434
  16 C      9.540594    5.382812    5.854151
  17 C     11.284718    6.998066    6.380354
  18 C      4.851689    4.665627    6.529217
  19 C      9.136253    6.350992    4.784174
  20 C     10.963267    8.034841    5.513893
  21 C      3.951991    5.618181    6.124947
  22 C      8.516931    7.422584    3.703278
  23 C      9.949949    7.491084    4.585505

Unit cell:
           periodic     x           y           z      points  spacing
  1. axis:    yes   16.000000    0.000000    0.000000    80     0.2000
  2. axis:    yes    0.000000   16.000000    0.000000    80     0.2000
  3. axis:    yes    0.000000    0.000000   10.000000    48     0.2083

Effective grid spacing dv^(1/3) = 0.2027

                     log10-error:    total        iterations:
           time      wfs    density  energy       fermi  poisson
iter:   1  10:12:40          +inf  -158.852105    2      6      
iter:   2  10:12:41         -0.85  -155.586783    3      3      
iter:   3  10:12:41         -0.90  -156.006123    32     3      
iter:   4  10:12:42         -0.90  -154.333231    4      2      
iter:   5  10:12:42         -0.94  -153.458009    3      2      
iter:   6  10:12:43         -0.97  -151.906159    3      3      
iter:   7  10:12:43         -1.13  -151.545759    33     3      
iter:   8  10:12:44         -1.25  -151.200415    3      3      
iter:   9  10:12:44         -1.37  -151.030884    4      3      
iter:  10  10:12:45         -1.56  -150.933477    3      3      
iter:  11  10:12:46         -1.71  -150.948667    3      3      
iter:  12  10:12:46         -1.78  -150.883737    3      2      
iter:  13  10:12:47         -1.96  -150.870440    3      2      
iter:  14  10:12:47         -2.16  -150.861689    3      2      
iter:  15  10:12:48         -2.28  -150.860789    3      2      
iter:  16  10:12:48         -2.41  -150.856240    3      2      
iter:  17  10:12:49         -2.64  -150.855575    3      2      
iter:  18  10:12:49         -2.80  -150.854150    3      2      
iter:  19  10:12:50         -3.00  -150.860995    3      1      
iter:  20  10:12:50         -3.10  -150.862746    3      1      
iter:  21  10:12:51         -3.32  -150.855382    2      1      
iter:  22  10:12:51         -3.43  -150.855130    2      1      
iter:  23  10:12:52         -3.56  -150.854175    2      1      
iter:  24  10:12:52         -3.68  -150.853327    2      1      
iter:  25  10:12:52         -3.88  -150.853503    2      1      
iter:  26  10:12:53         -3.93  -150.852270    2      1      
iter:  27  10:12:53         -4.09  -150.852466    2      1      

Converged after 27 iterations.

Dipole moment: (1.641031, 0.054574, -0.172941) |e|*Ang

Energy contributions relative to reference atoms: (reference = -24663.074771)

Kinetic:       +147.475707
Potential:     -135.594714
External:        +0.000000
XC:            -165.366944
Entropy (-ST):   -0.520078
Local:           +2.893524
--------------------------
Free energy:   -151.112504
Extrapolated:  -150.852466

Fermi level: -4.85884

 Band  Eigenvalues  Occupancy
    0    -25.32970    2.00000
    1    -23.21864    2.00000
    2    -22.80442    2.00000
    3    -22.35679    2.00000
    4    -21.10080    2.00000
    5    -20.71346    2.00000
    6    -20.36738    2.00000
    7    -19.10957    2.00000
    8    -18.50777    2.00000
    9    -18.29015    2.00000
   10    -17.25787    2.00000
   11    -16.94680    2.00000
   12    -16.42475    2.00000
   13    -16.31612    2.00000
   14    -14.73230    2.00000
   15    -14.21607    2.00000
   16    -14.16642    2.00000
   17    -13.76951    2.00000
   18    -13.29879    2.00000
   19    -12.68932    2.00000
   20    -12.25534    2.00000
   21    -11.88749    2.00000
   22    -11.42231    2.00000
   23    -11.13984    2.00000
   24    -10.75116    2.00000
   25    -10.20272    2.00000
   26    -10.06140    2.00000
   27     -9.30105    2.00000
   28     -9.11730    2.00000
   29     -8.78477    2.00000
   30     -8.72761    2.00000
   31     -8.57670    2.00000
   32     -8.31698    2.00000
   33     -7.77819    2.00000
   34     -7.69016    2.00000
   35     -7.63397    2.00000
   36     -7.45472    2.00000
   37     -7.13649    2.00000
   38     -6.97826    2.00000
   39     -6.80402    2.00000
   40     -6.50556    2.00000
   41     -5.68394    1.99948
   42     -5.63451    1.99914
   43     -5.50894    1.99700
   44     -5.40979    1.99194
   45     -5.10209    1.83854
   46     -4.99833    1.60274
   47     -4.92085    1.30051
   48     -4.85556    0.98362
   49     -4.67524    0.27506
   50     -4.34651    0.01184
   51     -3.88591    0.00012
   52     -3.41904    0.00000
   53     -3.29694    0.00000
   54     -3.20863    0.00000
   55     -2.22725    0.00000
   56     -2.02540    0.00000
   57     -2.00782    0.00000
   58     -1.64411    0.00000
   59     -1.37946    0.00000
   60     -0.93787    0.00000
   61     -0.63736    0.00000
   62     -0.46132    0.00000
   63     -0.16593    0.00000
   64      0.04139    0.00000
   65      0.70708    0.00000
   66      0.92140    0.00000
   67      1.19604    0.00000
   68      1.54564    0.00000
   69      2.15170    0.00000
   70      2.57639    0.00000
   71      3.16504    0.00000
   72      3.61543    0.00000
   73      3.96434    0.00000
   74      4.08813    0.00000
   75      4.21112    0.00000
   76      5.36546    0.00000
   77      6.34023    0.00000
   78      6.55587    0.00000
   79      6.68043    0.00000
   80      7.09685    0.00000
   81      7.15690    0.00000
   82      7.57726    0.00000
   83      7.85020    0.00000
   84      8.28939    0.00000
   85      8.47507    0.00000
   86      8.57640    0.00000
   87      8.66605    0.00000
   88      8.78915    0.00000
   89      9.13813    0.00000
   90      9.28393    0.00000
   91      9.31330    0.00000
   92      9.41957    0.00000
   93      9.66573    0.00000
   94      9.69826    0.00000
   95      9.81438    0.00000
   96      9.92322    0.00000
   97     10.02003    0.00000


Forces in eV/Ang:
  0 C     0.96320    1.57365   -0.58384
  1 C    -1.88800   -1.19368    0.26967
  2 C     2.34226    3.75064    2.50645
  3 C    -1.86363   -2.52194    1.29386
  4 C    -5.74201    1.75736   -3.37177
  5 C     2.72034   -1.04192    1.31546
  6 C     1.48030    1.36788   -0.50192
  7 C     4.43677    6.10984    1.03832
  8 C     0.14824   -0.41997    0.47065
  9 C   -23.69535   15.40880   13.81952
 10 C    -2.08672   -8.82867   -2.57466
 11 C     1.53887    1.84875   -1.14395
 12 C     3.18268    2.41711    2.32490
 13 C    -0.63416   -1.38204   -4.25330
 14 C    -1.68663   -2.19157   -0.04662
 15 C     0.02204    1.03128    1.98535
 16 C    -2.82754    0.47439   -2.45916
 17 C     0.37079    1.48804   -0.29874
 18 C     0.02990    0.17107    0.33682
 19 C     1.12116    1.03586   -0.52533
 20 C     0.26479   -0.49616    0.90671
 21 C    24.77589  -14.64894  -13.89252
 22 C    -5.49285   -3.25008    0.88181
 23 C     2.48546   -2.43948    2.45769

System changes: positions 

Initializing position-dependent things.

Density initialized from wave functions
           .--------------------------------------.  
          /|                                      |  
         / |                                      |  
        /  |                                      |  
       /   |                                      |  
      /    |                                      |  
     /     |                                      |  
    /      |                                      |  
   /       |                                      |  
  /        |           C     C  C                 |  
 *         |C C  C  C       C   CC                |  
 |         |  C C   C     C   CC                  |  
 |         .-----------C---CC-C-------------------.  
 |        /         C     C                      /   
 |       /                                      /    
 |      /                                      /     
 |     /                                      /      
 |    /                                      /       
 |   /                                      /        
 |  /                                      /         
 | /                                      /          
 |/                                      /           
 *--------------------------------------*            

Positions:
   0 C      6.235307   10.585432    4.955876
   1 C      5.087589   10.067453    5.096081
   2 C      8.733342   11.110518    5.331281
   3 C      4.073019    9.225308    5.359622
   4 C      8.357686   10.321024    4.393615
   5 C      9.901968   10.643619    5.600819
   6 C      3.175059    8.283868    5.692588
   7 C      7.851444    9.111406    4.267153
   8 C     10.434261    9.421127    5.216983
   9 C      3.110319    6.108153    6.663335
  10 C      7.101994    8.094780    4.182166
  11 C      9.449655    8.809257    4.302898
  12 C      7.964854    4.209545    5.823413
  13 C      6.646415    3.914810    5.654894
  14 C     10.729877    5.838016    6.458870
  15 C      6.774607    4.220771    6.979919
  16 C      9.537055    5.383406    5.851073
  17 C     11.285182    6.999928    6.379980
  18 C      4.851726    4.665841    6.529638
  19 C      9.137656    6.352288    4.783517
  20 C     10.963598    8.034220    5.515028
  21 C      3.983000    5.599847    6.107560
  22 C      8.510056    7.418516    3.704382
  23 C      9.953060    7.488031    4.588581

Unit cell:
           periodic     x           y           z      points  spacing
  1. axis:    yes   16.000000    0.000000    0.000000    80     0.2000
  2. axis:    yes    0.000000   16.000000    0.000000    80     0.2000
  3. axis:    yes    0.000000    0.000000   10.000000    48     0.2083

Effective grid spacing dv^(1/3) = 0.2027

                     log10-error:    total        iterations:
           time      wfs    density  energy       fermi  poisson
iter:   1  10:12:55          +inf  -153.419650    3      5      
iter:   2  10:12:55         -1.87  -153.314918    3      2      
iter:   3  10:12:56         -2.10  -153.301824    3      2      
iter:   4  10:12:56         -2.18  -153.286221    2      2      
iter:   5  10:12:57         -2.26  -153.274705    3      2      
iter:   6  10:12:57         -2.49  -153.262971    3      2      
iter:   7  10:12:58         -2.66  -153.264811    3      1      
iter:   8  10:12:58         -2.80  -153.265720    2      1      
iter:   9  10:12:59         -2.88  -153.260754    2      2      
iter:  10  10:12:59         -3.05  -153.262697    2      1      
iter:  11  10:13:00         -3.15  -153.262840    2      1      
iter:  12  10:13:00         -3.27  -153.263891    2      1      
iter:  13  10:13:01         -3.42  -153.261100    2      1      
iter:  14  10:13:01         -3.56  -153.261090    2      1      
iter:  15  10:13:02         -3.71  -153.260705    2      1      
iter:  16  10:13:02         -3.89  -153.260528    2      1      
iter:  17  10:13:03         -4.01  -153.260468    2      1      

Converged after 17 iterations.

Dipole moment: (1.654705, 0.050993, -0.180919) |e|*Ang

Energy contributions relative to reference atoms: (reference = -24663.074771)

Kinetic:       +133.474344
Potential:     -126.197085
External:        +0.000000
XC:            -163.113678
Entropy (-ST):   -0.490194
Local:           +2.821047
--------------------------
Free energy:   -153.505565
Extrapolated:  -153.260468

Fermi level: -4.85442

 Band  Eigenvalues  Occupancy
    0    -25.28722    2.00000
    1    -23.18779    2.00000
    2    -22.73360    2.00000
    3    -22.31646    2.00000
    4    -21.09069    2.00000
    5    -20.52445    2.00000
    6    -20.33750    2.00000
    7    -19.08283    2.00000
    8    -18.51792    2.00000
    9    -18.29855    2.00000
   10    -17.23871    2.00000
   11    -16.92376    2.00000
   12    -16.41719    2.00000
   13    -16.27354    2.00000
   14    -14.72664    2.00000
   15    -14.20643    2.00000
   16    -14.15073    2.00000
   17    -13.74968    2.00000
   18    -13.30421    2.00000
   19    -12.69004    2.00000
   20    -12.23491    2.00000
   21    -11.88096    2.00000
   22    -11.41730    2.00000
   23    -11.14986    2.00000
   24    -10.76395    2.00000
   25    -10.20879    2.00000
   26    -10.05450    2.00000
   27     -9.24999    2.00000
   28     -9.09888    2.00000
   29     -8.66775    2.00000
   30     -8.60862    2.00000
   31     -8.48678    2.00000
   32     -8.30579    2.00000
   33     -7.74641    2.00000
   34     -7.69297    2.00000
   35     -7.61824    2.00000
   36     -7.43870    2.00000
   37     -7.16448    2.00000
   38     -7.00749    2.00000
   39     -6.80156    2.00000
   40     -6.53602    2.00000
   41     -5.68399    1.99950
   42     -5.65505    1.99933
   43     -5.51497    1.99730
   44     -5.41698    1.99282
   45     -5.11652    1.86441
   46     -4.99027    1.59105
   47     -4.95005    1.44478
   48     -4.83098    0.88335
   49     -4.64247    0.21444
   50     -4.35115    0.01296
   51     -3.80744    0.00006
   52     -3.43966    0.00000
   53     -3.26046    0.00000
   54     -3.20674    0.00000
   55     -2.21695    0.00000
   56     -2.02125    0.00000
   57     -1.98452    0.00000
   58     -1.64934    0.00000
   59     -1.38597    0.00000
   60     -0.92880    0.00000
   61     -0.60372    0.00000
   62     -0.45620    0.00000
   63     -0.22905    0.00000
   64      0.00540    0.00000
   65      0.31945    0.00000
   66      0.89135    0.00000
   67      1.14948    0.00000
   68      1.50391    0.00000
   69      2.17036    0.00000
   70      2.42094    0.00000
   71      3.09413    0.00000
   72      3.45127    0.00000
   73      3.78375    0.00000
   74      4.09844    0.00000
   75      4.21426    0.00000
   76      5.33430    0.00000
   77      6.30836    0.00000
   78      6.50971    0.00000
   79      6.65994    0.00000
   80      7.09303    0.00000
   81      7.11738    0.00000
   82      7.55226    0.00000
   83      7.83817    0.00000
   84      8.28501    0.00000
   85      8.45562    0.00000
   86      8.57337    0.00000
   87      8.65521    0.00000
   88      8.77164    0.00000
   89      9.11713    0.00000
   90      9.28497    0.00000
   91      9.32047    0.00000
   92      9.42150    0.00000
   93      9.67258    0.00000
   94      9.71824    0.00000
   95      9.83096    0.00000
   96      9.96191    0.00000
   97     10.05501    0.00000


Forces in eV/Ang:
  0 C     0.63312    1.43279   -0.54301
  1 C    -1.56420   -1.09834    0.26774
  2 C     2.36287    3.27122    2.09995
  3 C    -1.64672   -2.16891    1.12812
  4 C    -5.41792    2.67982   -2.74437
  5 C     2.44824   -0.87201    1.24973
  6 C     1.38238    1.07653   -0.40998
  7 C     3.53649    4.31897    0.78455
  8 C     0.15913   -0.45588    0.39161
  9 C   -13.29671    9.21335    7.27578
 10 C    -1.09271   -7.56096   -2.51255
 11 C     1.47944    1.63866   -1.03458
 12 C     2.91676    2.33374    2.12749
 13 C    -0.02208   -1.33921   -3.95097
 14 C    -1.59087   -1.87869   -0.08450
 15 C    -0.40797    0.90528    1.63243
 16 C    -2.80137    0.39543   -2.29537
 17 C     0.23773    1.09525   -0.21997
 18 C     0.63011    0.01796    0.78560
 19 C     1.10571    1.08418   -0.61223
 20 C     0.26392   -0.44417    0.86159
 21 C    13.77908   -8.13778   -7.61084
 22 C    -5.55494   -3.25590    1.06273
 23 C     2.39645   -2.23541    2.30585

System changes: positions 

Initializing position-dependent things.

Density initialized from wave functions
           .--------------------------------------.  
          /|                                      |  
         / |                                      |  
        /  |                                      |  
       /   |                                      |  
      /    |                                      |  
     /     |                                      |  
    /      |                                      |  
   /       |                                      |  
  /        |           C     C  C                 |  
 *         |C C  C  C       C   CC                |  
 |         |  C C   C     C   CC                  |  
 |         .-----------C---CC-C-------------------.  
 |        /         C     C                      /   
 |       /                                      /    
 |      /                                      /     
 |     /                                      /      
 |    /                                      /       
 |   /                                      /        
 |  /                                      /         
 | /                                      /          
 |/                                      /           
 *--------------------------------------*            

Positions:
   0 C      6.237007   10.593115    4.952885
   1 C      5.080278   10.061484    5.097671
   2 C      8.747612   11.127060    5.341274
   3 C      4.064538    9.214563    5.365324
   4 C      8.327315   10.342899    4.381163
   5 C      9.914897   10.639476    5.607882
   6 C      3.182712    8.288466    5.690716
   7 C      7.866909    9.125917    4.270241
   8 C     10.435283    9.418172    5.218826
   9 C      3.096563    6.124076    6.665459
  10 C      7.101746    8.057557    4.167523
  11 C      9.458133    8.817734    4.297399
  12 C      7.980626    4.222983    5.834895
  13 C      6.650157    3.907067    5.633164
  14 C     10.720963    5.828754    6.458124
  15 C      6.769444    4.225391    6.987454
  16 C      9.520457    5.385273    5.838374
  17 C     11.285762    7.003996    6.379162
  18 C      4.859296    4.664980    6.537180
  19 C      9.144175    6.359082    4.779303
  20 C     10.965172    8.031891    5.519898
  21 C      3.995857    5.592359    6.101773
  22 C      8.476421    7.398995    3.711887
  23 C      9.966837    7.475946    4.601419

Unit cell:
           periodic     x           y           z      points  spacing
  1. axis:    yes   16.000000    0.000000    0.000000    80     0.2000
  2. axis:    yes    0.000000   16.000000    0.000000    80     0.2000
  3. axis:    yes    0.000000    0.000000   10.000000    48     0.2083

Effective grid spacing dv^(1/3) = 0.2027

                     log10-error:    total        iterations:
           time      wfs    density  energy       fermi  poisson
iter:   1  10:13:04          +inf  -155.512601    3      5      
iter:   2  10:13:05         -1.77  -155.426338    3      2      
iter:   3  10:13:05         -1.91  -155.368315    3      2      
iter:   4  10:13:06         -2.07  -155.361595    3      2      
iter:   5  10:13:06         -2.18  -155.352694    3      2      
iter:   6  10:13:07         -2.33  -155.341677    3      2      
iter:   7  10:13:07         -2.49  -155.342349    3      2      
iter:   8  10:13:08         -2.59  -155.341527    3      2      
iter:   9  10:13:08         -2.74  -155.341976    3      2      
iter:  10  10:13:09         -2.93  -155.344567    2      1      
iter:  11  10:13:09         -3.07  -155.342877    2      1      
iter:  12  10:13:10         -3.19  -155.342591    2      1      
iter:  13  10:13:10         -3.35  -155.341494    2      1      
iter:  14  10:13:11         -3.47  -155.340184    2      1      
iter:  15  10:13:11         -3.68  -155.340527    2      1      
iter:  16  10:13:12         -3.79  -155.340188    2      1      
iter:  17  10:13:12         -3.98  -155.340314    2      1      
iter:  18  10:13:13         -4.08  -155.340228    2      1      

Converged after 18 iterations.

Dipole moment: (1.708001, 0.052145, -0.187388) |e|*Ang

Energy contributions relative to reference atoms: (reference = -24663.074771)

Kinetic:       +118.047210
Potential:     -115.504964
External:        +0.000000
XC:            -160.489615
Entropy (-ST):   -0.451974
Local:           +2.833127
--------------------------
Free energy:   -155.566215
Extrapolated:  -155.340228

Fermi level: -4.83529

 Band  Eigenvalues  Occupancy
    0    -25.10718    2.00000
    1    -23.06703    2.00000
    2    -22.39907    2.00000
    3    -22.21991    2.00000
    4    -21.06315    2.00000
    5    -20.37062    2.00000
    6    -20.24765    2.00000
    7    -19.00463    2.00000
    8    -18.54231    2.00000
    9    -18.33636    2.00000
   10    -17.18986    2.00000
   11    -16.84738    2.00000
   12    -16.36848    2.00000
   13    -16.20364    2.00000
   14    -14.70117    2.00000
   15    -14.22113    2.00000
   16    -14.10498    2.00000
   17    -13.67302    2.00000
   18    -13.28942    2.00000
   19    -12.70516    2.00000
   20    -12.14911    2.00000
   21    -11.85895    2.00000
   22    -11.43132    2.00000
   23    -11.19917    2.00000
   24    -10.80537    2.00000
   25    -10.23973    2.00000
   26    -10.02794    2.00000
   27     -9.13322    2.00000
   28     -9.06340    2.00000
   29     -8.61124    2.00000
   30     -8.54191    2.00000
   31     -8.39342    2.00000
   32     -8.27314    2.00000
   33     -7.80351    2.00000
   34     -7.67638    2.00000
   35     -7.57160    2.00000
   36     -7.40550    2.00000
   37     -7.18595    2.00000
   38     -7.12220    2.00000
   39     -6.82937    2.00000
   40     -6.62810    2.00000
   41     -5.75341    1.99979
   42     -5.70825    1.99968
   43     -5.55220    1.99846
   44     -5.43662    1.99512
   45     -5.11312    1.88298
   46     -4.97910    1.61632
   47     -4.95546    1.53765
   48     -4.79714    0.81152
   49     -4.57679    0.14022
   50     -4.36622    0.01819
   51     -3.80507    0.00007
   52     -3.53446    0.00000
   53     -3.30767    0.00000
   54     -3.12776    0.00000
   55     -2.20516    0.00000
   56     -2.03833    0.00000
   57     -1.91460    0.00000
   58     -1.67287    0.00000
   59     -1.39617    0.00000
   60     -0.97691    0.00000
   61     -0.57042    0.00000
   62     -0.43854    0.00000
   63     -0.33866    0.00000
   64     -0.09644    0.00000
   65      0.16140    0.00000
   66      0.82004    0.00000
   67      1.09829    0.00000
   68      1.40832    0.00000
   69      2.23835    0.00000
   70      2.40212    0.00000
   71      3.02799    0.00000
   72      3.45744    0.00000
   73      3.80602    0.00000
   74      4.11521    0.00000
   75      4.35795    0.00000
   76      5.26450    0.00000
   77      6.10339    0.00000
   78      6.32025    0.00000
   79      6.57034    0.00000
   80      7.00325    0.00000
   81      7.05656    0.00000
   82      7.47375    0.00000
   83      7.79665    0.00000
   84      8.24531    0.00000
   85      8.36682    0.00000
   86      8.57311    0.00000
   87      8.63078    0.00000
   88      8.71969    0.00000
   89      9.08446    0.00000
   90      9.27883    0.00000
   91      9.33878    0.00000
   92      9.41395    0.00000
   93      9.65200    0.00000
   94      9.69285    0.00000
   95      9.80872    0.00000
   96      9.96748    0.00000
   97     10.07157    0.00000


Forces in eV/Ang:
  0 C    -0.27729    1.00298   -0.46712
  1 C    -0.56316   -0.69866    0.14066
  2 C     2.40177    2.02157    1.11299
  3 C    -0.86050   -1.32125    0.80512
  4 C    -5.12930    4.34767   -1.15258
  5 C     1.73731   -0.42662    1.01793
  6 C     0.78514    0.21125   -0.08376
  7 C     2.39799    1.05652    0.25848
  8 C     0.13915   -0.46772    0.20811
  9 C   -10.02194    7.37332    5.06445
 10 C     0.93982   -4.95480   -2.44046
 11 C     1.24048    0.80191   -0.71476
 12 C     1.97372    2.18240    1.96168
 13 C     1.01203   -0.94159   -2.79586
 14 C    -1.44258   -1.03834   -0.25182
 15 C    -0.74877    0.76363    0.42868
 16 C    -2.53947    0.07442   -1.74526
 17 C    -0.17903   -0.07973    0.04308
 18 C     0.98504    0.16498    0.86160
 19 C     0.91088    1.12095   -0.96697
 20 C     0.28689   -0.26215    0.72749
 21 C    10.49455   -6.33541   -5.40287
 22 C    -5.60089   -3.30038    1.65843
 23 C     2.07812   -1.24167    1.67447

System changes: positions 

Initializing position-dependent things.

Density initialized from wave functions
           .--------------------------------------.  
          /|                                      |  
         / |                                      |  
        /  |                                      |  
       /   |                                      |  
      /    |                                      |  
     /     |                                      |  
    /      |                                      |  
   /       |                                      |  
  /        |           C     C  C                 |  
 *         |C C  C  C       C   CC                |  
 |         |  C C   C     C   CC                  |  
 |         .-----------C---CC-C-------------------.  
 |        /         C     C                      /   
 |       /                                      /    
 |      /                                      /     
 |     /                                      /      
 |    /                                      /       
 |   /                                      /        
 |  /                                      /         
 | /                                      /          
 |/                                      /           
 *--------------------------------------*            

Positions:
   0 C      6.233360   10.597774    4.950510
   1 C      5.079290   10.058311    5.098341
   2 C      8.761116   11.135337    5.345004
   3 C      4.061279    9.209340    5.368870
   4 C      8.300279   10.372269    4.378615
   5 C      9.922882   10.638160    5.613095
   6 C      3.186190    8.287738    5.690896
   7 C      7.875674    9.121816    4.270213
   8 C     10.436085    9.415409    5.219512
   9 C      3.085556    6.138544    6.665335
  10 C      7.112716    8.037260    4.154232
  11 C      9.464606    8.820650    4.294126
  12 C      7.989759    4.234683    5.844891
  13 C      6.659144    3.902326    5.619773
  14 C     10.713434    5.824939    6.456427
  15 C      6.763243    4.229018    6.987404
  16 C      9.506628    5.385098    5.829771
  17 C     11.283876    7.000975    6.379942
  18 C      4.867515    4.665403    6.543863
  19 C      9.149026    6.365556    4.773263
  20 C     10.966787    8.030793    5.523658
  21 C      4.007068    5.584924    6.098946
  22 C      8.444912    7.380538    3.722364
  23 C      9.977793    7.470685    4.609608

Unit cell:
           periodic     x           y           z      points  spacing
  1. axis:    yes   16.000000    0.000000    0.000000    80     0.2000
  2. axis:    yes    0.000000   16.000000    0.000000    80     0.2000
  3. axis:    yes    0.000000    0.000000   10.000000    48     0.2083

Effective grid spacing dv^(1/3) = 0.2027

                     log10-error:    total        iterations:
           time      wfs    density  energy       fermi  poisson
iter:   1  10:13:14          +inf  -156.895082    3      5      
iter:   2  10:13:15         -1.92  -156.814368    3      2      
iter:   3  10:13:15         -2.08  -156.792368    3      2      
iter:   4  10:13:16         -2.19  -156.770556    3      2      
iter:   5  10:13:16         -2.33  -156.771071    3      2      
iter:   6  10:13:17         -2.46  -156.760242    3      2      
iter:   7  10:13:17         -2.55  -156.762402    3      2      
iter:   8  10:13:18         -2.77  -156.762118    3      2      
iter:   9  10:13:18         -3.06  -156.762536    2      1      
iter:  10  10:13:19         -3.15  -156.762591    2      1      
iter:  11  10:13:19         -3.30  -156.762180    2      1      
iter:  12  10:13:20         -3.46  -156.761495    2      1      
iter:  13  10:13:20         -3.61  -156.761552    2      1      
iter:  14  10:13:21         -3.76  -156.761407    2      1      
iter:  15  10:13:21         -3.92  -156.761480    2      1      
iter:  16  10:13:22         -4.08  -156.761465    2      1      

Converged after 16 iterations.

Dipole moment: (1.750766, 0.047216, -0.185631) |e|*Ang

Energy contributions relative to reference atoms: (reference = -24663.074771)

Kinetic:       +109.926137
Potential:     -109.932809
External:        +0.000000
XC:            -159.370772
Entropy (-ST):   -0.419632
Local:           +2.825795
--------------------------
Free energy:   -156.971281
Extrapolated:  -156.761465

Fermi level: -4.80746

 Band  Eigenvalues  Occupancy
    0    -24.97123    2.00000
    1    -22.95364    2.00000
    2    -22.26831    2.00000
    3    -22.20726    2.00000
    4    -21.04731    2.00000
    5    -20.23860    2.00000
    6    -20.18646    2.00000
    7    -18.94780    2.00000
    8    -18.54119    2.00000
    9    -18.34541    2.00000
   10    -17.14438    2.00000
   11    -16.80907    2.00000
   12    -16.30399    2.00000
   13    -16.15592    2.00000
   14    -14.67068    2.00000
   15    -14.30738    2.00000
   16    -14.06383    2.00000
   17    -13.64336    2.00000
   18    -13.23819    2.00000
   19    -12.73160    2.00000
   20    -12.10445    2.00000
   21    -11.84711    2.00000
   22    -11.46298    2.00000
   23    -11.23827    2.00000
   24    -10.81626    2.00000
   25    -10.25147    2.00000
   26     -9.99514    2.00000
   27     -9.16205    2.00000
   28     -9.01930    2.00000
   29     -8.60729    2.00000
   30     -8.50678    2.00000
   31     -8.34293    2.00000
   32     -8.24912    2.00000
   33     -7.93483    2.00000
   34     -7.63059    2.00000
   35     -7.52822    2.00000
   36     -7.39125    2.00000
   37     -7.22822    2.00000
   38     -7.16078    2.00000
   39     -6.85648    2.00000
   40     -6.66292    2.00000
   41     -5.85279    1.99994
   42     -5.73766    1.99982
   43     -5.55792    1.99890
   44     -5.43810    1.99636
   45     -5.10437    1.90232
   46     -4.96048    1.64407
   47     -4.94805    1.60625
   48     -4.75121    0.72592
   49     -4.51940    0.10624
   50     -4.34836    0.02008
   51     -3.81207    0.00010
   52     -3.55844    0.00001
   53     -3.34533    0.00000
   54     -3.06420    0.00000
   55     -2.21173    0.00000
   56     -2.03918    0.00000
   57     -1.84733    0.00000
   58     -1.68044    0.00000
   59     -1.35799    0.00000
   60     -1.02961    0.00000
   61     -0.53466    0.00000
   62     -0.44430    0.00000
   63     -0.32090    0.00000
   64     -0.10633    0.00000
   65      0.07386    0.00000
   66      0.76216    0.00000
   67      1.19206    0.00000
   68      1.38997    0.00000
   69      2.19450    0.00000
   70      2.53902    0.00000
   71      2.98549    0.00000
   72      3.50374    0.00000
   73      3.82542    0.00000
   74      4.13771    0.00000
   75      4.49756    0.00000
   76      5.31819    0.00000
   77      5.98297    0.00000
   78      6.24241    0.00000
   79      6.57740    0.00000
   80      6.91660    0.00000
   81      7.05517    0.00000
   82      7.42497    0.00000
   83      7.77416    0.00000
   84      8.24002    0.00000
   85      8.32737    0.00000
   86      8.58048    0.00000
   87      8.63744    0.00000
   88      8.72328    0.00000
   89      9.06833    0.00000
   90      9.28440    0.00000
   91      9.35501    0.00000
   92      9.42037    0.00000
   93      9.62665    0.00000
   94      9.68249    0.00000
   95      9.82537    0.00000
   96      9.96407    0.00000
   97     10.07312    0.00000


Forces in eV/Ang:
  0 C    -0.27647    0.90144   -0.52495
  1 C    -0.33136   -0.63148    0.09820
  2 C     2.31574    1.67751    0.90457
  3 C    -0.59333   -1.03663    0.70222
  4 C    -5.96493    3.72975   -0.72647
  5 C     1.64477   -0.39874    0.87145
  6 C     0.61818   -0.15281    0.05653
  7 C     3.26834    1.46414    0.15981
  8 C     0.10408   -0.29010    0.21614
  9 C    -7.80982    6.15082    3.56164
 10 C     1.18284   -4.38035   -2.44296
 11 C     1.03149    0.33127   -0.52401
 12 C     1.65332    2.15112    1.81746
 13 C     1.48216   -0.81435   -2.32880
 14 C    -1.57817   -0.91514   -0.32314
 15 C    -1.06380    0.75683   -0.05879
 16 C    -2.37143   -0.07627   -1.41580
 17 C    -0.27547   -0.35536    0.09952
 18 C     1.25493    0.24793    0.99133
 19 C     0.69920    1.06332   -1.14874
 20 C     0.34413   -0.23973    0.73236
 21 C     8.24496   -5.07430   -3.95166
 22 C    -5.47904   -3.46408    1.99451
 23 C     1.92371   -0.58520    1.21399

System changes: positions 

Initializing position-dependent things.

Density initialized from wave functions
           .--------------------------------------.  
          /|                                      |  
         / |                                      |  
        /  |                                      |  
       /   |                                      |  
      /    |                                      |  
     /     |                                      |  
    /      |                                      |  
   /       |                                      |  
  /        |           C     C  C                 |  
 *         |C C  C  C       C   CC                |  
 |         |  C C   C     C   CC                  |  
 |         .-----------C---CC-C-------------------.  
 |        /         C     C                      /   
 |       /                                      /    
 |      /                                      /     
 |     /                                      /      
 |    /                                      /       
 |   /                                      /        
 |  /                                      /         
 | /                                      /          
 |/                                      /           
 *--------------------------------------*            

Positions:
   0 C      6.230535   10.602003    4.947704
   1 C      5.079113   10.055371    5.098769
   2 C      8.773765   11.142190    5.348115
   3 C      4.059319    9.205398    5.371971
   4 C      8.267531   10.395218    4.377649
   5 C      9.930704   10.636678    5.617394
   6 C      3.188843    8.285230    5.691786
   7 C      7.891675    9.123893    4.270012
   8 C     10.436633    9.413948    5.220406
   9 C      3.077649    6.151632    6.662691
  10 C      7.123211    8.018736    4.141051
  11 C      9.469713    8.820903    4.291953
  12 C      7.997254    4.246127    5.854012
  13 C      6.670089    3.898308    5.608960
  14 C     10.704941    5.821324    6.454386
  15 C      6.755594    4.232732    6.984939
  16 C      9.494033    5.384126    5.823143
  17 C     11.281689    6.997062    6.380893
  18 C      4.876658    4.666475    6.550824
  19 C      9.152455    6.371462    4.766336
  20 C     10.968756    8.029730    5.527495
  21 C      4.015539    5.578705    6.098608
  22 C      8.414850    7.361301    3.734500
  23 C      9.987747    7.469331    4.614959

Unit cell:
           periodic     x           y           z      points  spacing
  1. axis:    yes   16.000000    0.000000    0.000000    80     0.2000
  2. axis:    yes    0.000000   16.000000    0.000000    80     0.2000
  3. axis:    yes    0.000000    0.000000   10.000000    48     0.2083

Effective grid spacing dv^(1/3) = 0.2027

                     log10-error:    total        iterations:
           time      wfs    density  energy       fermi  poisson
iter:   1  10:13:23          +inf  -158.166730    3      5      
iter:   2  10:13:24         -1.94  -158.082174    3      2      
iter:   3  10:13:24         -2.14  -158.065907    3      2      
iter:   4  10:13:25         -2.22  -158.043738    3      2      
iter:   5  10:13:25         -2.37  -158.049955    3      2      
iter:   6  10:13:26         -2.46  -158.042601    3      1      
iter:   7  10:13:26         -2.58  -158.034175    3      2      
iter:   8  10:13:27         -2.79  -158.037463    3      1      
iter:   9  10:13:27         -2.94  -158.037338    2      2      
iter:  10  10:13:28         -3.20  -158.037705    2      1      
iter:  11  10:13:28         -3.26  -158.038241    2      1      
iter:  12  10:13:29         -3.54  -158.037340    2      1      
iter:  13  10:13:29         -3.62  -158.037310    2      1      
iter:  14  10:13:30         -3.70  -158.037310    2      1      
iter:  15  10:13:30         -3.93  -158.037342    2      1      
iter:  16  10:13:30         -4.11  -158.037358    2      1      

Converged after 16 iterations.

Dipole moment: (1.796454, 0.041193, -0.192349) |e|*Ang

Energy contributions relative to reference atoms: (reference = -24663.074771)

Kinetic:       +103.502648
Potential:     -105.545384
External:        +0.000000
XC:            -158.644944
Entropy (-ST):   -0.387469
Local:           +2.844057
--------------------------
Free energy:   -158.231092
Extrapolated:  -158.037358

Fermi level: -4.76846

 Band  Eigenvalues  Occupancy
    0    -24.87325    2.00000
    1    -22.85900    2.00000
    2    -22.19837    2.00000
    3    -22.17057    2.00000
    4    -21.03208    2.00000
    5    -20.13994    2.00000
    6    -20.11755    2.00000
    7    -18.89156    2.00000
    8    -18.56509    2.00000
    9    -18.34713    2.00000
   10    -17.08953    2.00000
   11    -16.77322    2.00000
   12    -16.26186    2.00000
   13    -16.11858    2.00000
   14    -14.65727    2.00000
   15    -14.39098    2.00000
   16    -14.01951    2.00000
   17    -13.61769    2.00000
   18    -13.20239    2.00000
   19    -12.75976    2.00000
   20    -12.10888    2.00000
   21    -11.86888    2.00000
   22    -11.49938    2.00000
   23    -11.23436    2.00000
   24    -10.81214    2.00000
   25    -10.26640    2.00000
   26     -9.96935    2.00000
   27     -9.20884    2.00000
   28     -8.98204    2.00000
   29     -8.61921    2.00000
   30     -8.47711    2.00000
   31     -8.32057    2.00000
   32     -8.22934    2.00000
   33     -8.07440    2.00000
   34     -7.58802    2.00000
   35     -7.48305    2.00000
   36     -7.38949    2.00000
   37     -7.26035    2.00000
   38     -7.18303    2.00000
   39     -6.89163    2.00000
   40     -6.70922    2.00000
   41     -5.96370    1.99999
   42     -5.76152    1.99990
   43     -5.57256    1.99936
   44     -5.43677    1.99750
   45     -5.08584    1.91967
   46     -4.93677    1.68663
   47     -4.92327    1.64930
   48     -4.69465    0.64686
   49     -4.44733    0.07749
   50     -4.32360    0.02312
   51     -3.82645    0.00016
   52     -3.57466    0.00001
   53     -3.38144    0.00000
   54     -3.01350    0.00000
   55     -2.23383    0.00000
   56     -2.04574    0.00000
   57     -1.79504    0.00000
   58     -1.67926    0.00000
   59     -1.30596    0.00000
   60     -1.10160    0.00000
   61     -0.51010    0.00000
   62     -0.45859    0.00000
   63     -0.28219    0.00000
   64     -0.09125    0.00000
   65      0.04825    0.00000
   66      0.70639    0.00000
   67      1.25076    0.00000
   68      1.47589    0.00000
   69      2.15877    0.00000
   70      2.71601    0.00000
   71      2.97241    0.00000
   72      3.55893    0.00000
   73      3.83085    0.00000
   74      4.16178    0.00000
   75      4.60171    0.00000
   76      5.36430    0.00000
   77      5.92211    0.00000
   78      6.20139    0.00000
   79      6.67460    0.00000
   80      6.85565    0.00000
   81      7.08425    0.00000
   82      7.38694    0.00000
   83      7.75753    0.00000
   84      8.24431    0.00000
   85      8.30910    0.00000
   86      8.58316    0.00000
   87      8.65195    0.00000
   88      8.72518    0.00000
   89      9.05503    0.00000
   90      9.28601    0.00000
   91      9.35960    0.00000
   92      9.43068    0.00000
   93      9.60720    0.00000
   94      9.67318    0.00000
   95      9.85550    0.00000
   96      9.96274    0.00000
   97     10.06461    0.00000


Forces in eV/Ang:
  0 C    -0.22798    0.78320   -0.60566
  1 C    -0.04832   -0.51406    0.03695
  2 C     2.17895    1.27153    0.52315
  3 C    -0.49219   -0.93617    0.67869
  4 C    -6.50685    3.99380    0.05315
  5 C     1.51104   -0.28755    0.74543
  6 C     0.59549   -0.35158    0.13704
  7 C     3.77025    0.82695   -0.11923
  8 C     0.09052   -0.19776    0.17724
  9 C    -6.45252    5.42647    2.58324
 10 C     1.43899   -3.54212   -2.36222
 11 C     0.80002    0.12241   -0.27336
 12 C     1.47595    2.12642    1.70086
 13 C     1.79487   -0.76063   -2.09657
 14 C    -1.66867   -0.81602   -0.37463
 15 C    -1.34668    0.79137   -0.35588
 16 C    -2.25382   -0.15647   -1.17677
 17 C    -0.37363   -0.56610    0.13549
 18 C     1.44426    0.36726    1.03752
 19 C     0.56381    1.03768   -1.30070
 20 C     0.39715   -0.22844    0.72214
 21 C     6.90384   -4.33059   -3.02043
 22 C    -5.29826   -3.72740    2.26268
 23 C     1.74040   -0.26494    0.81528

System changes: positions 

Initializing position-dependent things.

Density initialized from wave functions
           .--------------------------------------.  
          /|                                      |  
         / |                                      |  
        /  |                                      |  
       /   |                                      |  
      /    |                                      |  
     /     |                                      |  
    /      |                                      |  
   /       |                                      |  
  /        |           C     C  C                 |  
 *         |C C  C  C       C   CC                |  
 |         |  C C   C     C   CC                  |  
 |         .-----------C---C--C-------------------.  
 |        /         C     C                      /   
 |       /                                      /    
 |      /                                      /     
 |     /                                      /      
 |    /                                      /       
 |   /                                      /        
 |  /                                      /         
 | /                                      /          
 |/                                      /           
 *--------------------------------------*            

Positions:
   0 C      6.228820   10.605700    4.944628
   1 C      5.079598   10.052952    5.098946
   2 C      8.784878   11.147568    5.349764
   3 C      4.057160    9.201287    5.375119
   4 C      8.234647   10.417904    4.379631
   5 C      9.937862   10.635599    5.621036
   6 C      3.191825    8.282837    5.692670
   7 C      7.909271    9.123884    4.268692
   8 C     10.437126    9.412887    5.221130
   9 C      3.070647    6.163932    6.659488
  10 C      7.132707    8.003654    4.129150
  11 C      9.473579    8.821149    4.290910
  12 C      8.004320    4.256841    5.862208
  13 C      6.680716    3.894429    5.598763
  14 C     10.696544    5.817761    6.452388
  15 C      6.747529    4.236538    6.982404
  16 C      9.482541    5.383176    5.817507
  17 C     11.279490    6.993370    6.381733
  18 C      4.885582    4.668012    6.557266
  19 C      9.155290    6.376883    4.759458
  20 C     10.970815    8.028646    5.531109
  21 C      4.023366    5.572837    6.098881
  22 C      8.387678    7.342013    3.746544
  23 C      9.996407    7.468351    4.618689

Unit cell:
           periodic     x           y           z      points  spacing
  1. axis:    yes   16.000000    0.000000    0.000000    80     0.2000
  2. axis:    yes    0.000000   16.000000    0.000000    80     0.2000
  3. axis:    yes    0.000000    0.000000   10.000000    48     0.2083

Effective grid spacing dv^(1/3) = 0.2027

                     log10-error:    total        iterations:
           time      wfs    density  energy       fermi  poisson
iter:   1  10:13:32          +inf  -159.332910    3      5      
iter:   2  10:13:32         -1.99  -159.264655    3      2      
iter:   3  10:13:33         -2.17  -159.249489    3      2      
iter:   4  10:13:34         -2.25  -159.228528    3      2      
iter:   5  10:13:34         -2.41  -159.234850    3      2      
iter:   6  10:13:35         -2.53  -159.229081    3      1      
iter:   7  10:13:35         -2.63  -159.220203    3      2      
iter:   8  10:13:35         -2.85  -159.223367    3      1      
iter:   9  10:13:36         -3.00  -159.223690    2      2      
iter:  10  10:13:36         -3.25  -159.224086    2      1      
iter:  11  10:13:37         -3.32  -159.224266    2      1      
iter:  12  10:13:37         -3.60  -159.223685    2      1      
iter:  13  10:13:38         -3.66  -159.223702    2      1      
iter:  14  10:13:38         -3.75  -159.223701    2      1      
iter:  15  10:13:39         -3.99  -159.223722    2      1      
iter:  16  10:13:39         -4.17  -159.223834    2      1      

Converged after 16 iterations.

Dipole moment: (1.835918, 0.034695, -0.198037) |e|*Ang

Energy contributions relative to reference atoms: (reference = -24663.074771)

Kinetic:        +97.849006
Potential:     -101.659494
External:        +0.000000
XC:            -158.075659
Entropy (-ST):   -0.355503
Local:           +2.840065
--------------------------
Free energy:   -159.401586
Extrapolated:  -159.223834

Fermi level: -4.73063

 Band  Eigenvalues  Occupancy
    0    -24.79176    2.00000
    1    -22.77003    2.00000
    2    -22.18022    2.00000
    3    -22.09087    2.00000
    4    -21.01241    2.00000
    5    -20.09075    2.00000
    6    -20.02187    2.00000
    7    -18.83840    2.00000
    8    -18.57084    2.00000
    9    -18.34860    2.00000
   10    -17.04105    2.00000
   11    -16.74582    2.00000
   12    -16.21950    2.00000
   13    -16.08843    2.00000
   14    -14.66478    2.00000
   15    -14.46392    2.00000
   16    -13.97423    2.00000
   17    -13.59270    2.00000
   18    -13.16612    2.00000
   19    -12.78389    2.00000
   20    -12.13355    2.00000
   21    -11.89859    2.00000
   22    -11.51921    2.00000
   23    -11.21614    2.00000
   24    -10.79389    2.00000
   25    -10.27292    2.00000
   26     -9.94104    2.00000
   27     -9.26569    2.00000
   28     -8.94797    2.00000
   29     -8.65492    2.00000
   30     -8.46677    2.00000
   31     -8.31985    2.00000
   32     -8.23205    2.00000
   33     -8.15464    2.00000
   34     -7.54984    2.00000
   35     -7.43871    2.00000
   36     -7.39638    2.00000
   37     -7.26391    2.00000
   38     -7.20094    2.00000
   39     -6.92188    2.00000
   40     -6.75183    2.00000
   41     -6.06684    2.00000
   42     -5.79163    1.99995
   43     -5.60710    1.99969
   44     -5.43264    1.99821
   45     -5.07066    1.93542
   46     -4.91678    1.73095
   47     -4.89790    1.68386
   48     -4.63868    0.57010
   49     -4.37875    0.05757
   50     -4.28936    0.02395
   51     -3.84111    0.00027
   52     -3.58417    0.00002
   53     -3.40755    0.00000
   54     -2.97301    0.00000
   55     -2.26477    0.00000
   56     -2.05105    0.00000
   57     -1.75562    0.00000
   58     -1.65283    0.00000
   59     -1.24781    0.00000
   60     -1.16311    0.00000
   61     -0.51109    0.00000
   62     -0.44155    0.00000
   63     -0.26876    0.00000
   64     -0.06921    0.00000
   65      0.07728    0.00000
   66      0.67687    0.00000
   67      1.24244    0.00000
   68      1.65974    0.00000
   69      2.12379    0.00000
   70      2.87662    0.00000
   71      2.97971    0.00000
   72      3.60934    0.00000
   73      3.82683    0.00000
   74      4.18708    0.00000
   75      4.66262    0.00000
   76      5.38674    0.00000
   77      5.87565    0.00000
   78      6.17119    0.00000
   79      6.78424    0.00000
   80      6.79916    0.00000
   81      7.14843    0.00000
   82      7.36782    0.00000
   83      7.74539    0.00000
   84      8.24472    0.00000
   85      8.30564    0.00000
   86      8.58714    0.00000
   87      8.66998    0.00000
   88      8.73236    0.00000
   89      9.04454    0.00000
   90      9.27584    0.00000
   91      9.36414    0.00000
   92      9.43442    0.00000
   93      9.59986    0.00000
   94      9.66328    0.00000
   95      9.88318    0.00000
   96      9.96905    0.00000
   97     10.04942    0.00000


Forces in eV/Ang:
  0 C    -0.14767    0.63800   -0.69456
  1 C     0.22801   -0.40291   -0.02115
  2 C     2.08182    0.96848    0.27346
  3 C    -0.34212   -0.78065    0.63514
  4 C    -7.09881    3.94209    0.68733
  5 C     1.35862   -0.17712    0.62298
  6 C     0.54537   -0.57968    0.23252
  7 C     4.32717    0.55846   -0.35906
  8 C     0.09353   -0.13253    0.15337
  9 C    -5.34918    4.84829    1.82864
 10 C     1.55055   -2.88072   -2.27610
 11 C     0.56814    0.01434   -0.02298
 12 C     1.30943    2.11171    1.58209
 13 C     2.06727   -0.69283   -1.83766
 14 C    -1.69748   -0.68684   -0.41914
 15 C    -1.62199    0.81473   -0.63775
 16 C    -2.19628   -0.24172   -0.99324
 17 C    -0.46800   -0.77747    0.17623
 18 C     1.66803    0.43514    1.10645
 19 C     0.42366    0.96422   -1.40950
 20 C     0.42839   -0.20857    0.69066
 21 C     5.81984   -3.72071   -2.28784
 22 C    -5.05847   -4.04244    2.43708
 23 C     1.57742    0.00776    0.46273

System changes: positions 

Initializing position-dependent things.

Density initialized from wave functions
           .--------------------------------------.  
          /|                                      |  
         / |                                      |  
        /  |                                      |  
       /   |                                      |  
      /    |                                      |  
     /     |                                      |  
    /      |                                      |  
   /       |                                      |  
  /        |           C     C  C                 |  
 *         |C C  C  C       C   CC                |  
 |         |  C C   C     C   CC                  |  
 |         .-----------C---C--C-------------------.  
 |        /         C     C                      /   
 |       /                                      /    
 |      /                                      /     
 |     /                                      /      
 |    /                                      /       
 |   /                                      /        
 |  /                                      /         
 | /                                      /          
 |/                                      /           
 *--------------------------------------*            

Positions:
   0 C      6.227615   10.608905    4.941338
   1 C      5.080641   10.050827    5.098987
   2 C      8.795617   11.152584    5.351234
   3 C      4.055348    9.197572    5.378135
   4 C      8.201035   10.439374    4.382688
   5 C      9.944484   10.634826    5.624364
   6 C      3.194720    8.280086    5.693730
   7 C      7.927900    9.124106    4.266870
   8 C     10.437698    9.411835    5.221820
   9 C      3.063978    6.176014    6.656330
  10 C      7.141478    7.989732    4.117792
  11 C      9.476806    8.821838    4.290511
  12 C      8.011119    4.267358    5.869985
  13 C      6.691352    3.890736    5.589157
  14 C     10.688501    5.814570    6.450387
  15 C      6.739074    4.240337    6.979611
  16 C      9.471131    5.382122    5.812082
  17 C     11.277172    6.989445    6.382622
  18 C      4.894856    4.669513    6.563725
  19 C      9.157796    6.381855    4.752690
  20 C     10.972820    8.027632    5.534495
  21 C      4.030975    5.567150    6.099225
  22 C      8.361941    7.322083    3.758278
  23 C     10.004578    7.467459    4.621785

Unit cell:
           periodic     x           y           z      points  spacing
  1. axis:    yes   16.000000    0.000000    0.000000    80     0.2000
  2. axis:    yes    0.000000   16.000000    0.000000    80     0.2000
  3. axis:    yes    0.000000    0.000000   10.000000    48     0.2083

Effective grid spacing dv^(1/3) = 0.2027

                     log10-error:    total        iterations:
           time      wfs    density  energy       fermi  poisson
iter:   1  10:13:41          +inf  -160.477172    3      5      
iter:   2  10:13:41         -2.02  -160.418751    3      2      
iter:   3  10:13:42         -2.19  -160.403627    3      2      
iter:   4  10:13:42         -2.28  -160.384955    3      2      
iter:   5  10:13:43         -2.44  -160.386677    2      2      
iter:   6  10:13:43         -2.62  -160.381930    3      1      
iter:   7  10:13:44         -2.72  -160.377679    3      2      
iter:   8  10:13:44         -2.95  -160.379592    2      1      
iter:   9  10:13:45         -3.07  -160.380396    2      2      
iter:  10  10:13:45         -3.32  -160.380664    2      1      
iter:  11  10:13:46         -3.39  -160.380356    2      1      
iter:  12  10:13:46         -3.58  -160.379861    2      1      
iter:  13  10:13:47         -3.73  -160.379964    2      1      
iter:  14  10:13:47         -3.96  -160.380128    2      1      
iter:  15  10:13:48         -4.14  -160.380196    2      1      

Converged after 15 iterations.

Dipole moment: (1.864450, 0.027402, -0.202055) |e|*Ang

Energy contributions relative to reference atoms: (reference = -24663.074771)

Kinetic:        +92.288900
Potential:      -97.803387
External:        +0.000000
XC:            -157.545782
Entropy (-ST):   -0.322320
Local:           +2.841234
--------------------------
Free energy:   -160.541356
Extrapolated:  -160.380196

Fermi level: -4.69463

 Band  Eigenvalues  Occupancy
    0    -24.71542    2.00000
    1    -22.68103    2.00000
    2    -22.16225    2.00000
    3    -22.01112    2.00000
    4    -20.98314    2.00000
    5    -20.04466    2.00000
    6    -19.92982    2.00000
    7    -18.79687    2.00000
    8    -18.56243    2.00000
    9    -18.34377    2.00000
   10    -16.99833    2.00000
   11    -16.72326    2.00000
   12    -16.16931    2.00000
   13    -16.06189    2.00000
   14    -14.69771    2.00000
   15    -14.51355    2.00000
   16    -13.93353    2.00000
   17    -13.56818    2.00000
   18    -13.12589    2.00000
   19    -12.80235    2.00000
   20    -12.16813    2.00000
   21    -11.93267    2.00000
   22    -11.51943    2.00000
   23    -11.18625    2.00000
   24    -10.76732    2.00000
   25    -10.27571    2.00000
   26     -9.90925    2.00000
   27     -9.33008    2.00000
   28     -8.91817    2.00000
   29     -8.70903    2.00000
   30     -8.48441    2.00000
   31     -8.34142    2.00000
   32     -8.26105    2.00000
   33     -8.14393    2.00000
   34     -7.51702    2.00000
   35     -7.41991    2.00000
   36     -7.39486    2.00000
   37     -7.24935    2.00000
   38     -7.21724    2.00000
   39     -6.95072    2.00000
   40     -6.79417    2.00000
   41     -6.15992    2.00000
   42     -5.82340    1.99997
   43     -5.66073    1.99987
   44     -5.42616    1.99867
   45     -5.06424    1.95156
   46     -4.89831    1.76921
   47     -4.87551    1.71844
   48     -4.58382    0.49647
   49     -4.31649    0.04457
   50     -4.23899    0.02078
   51     -3.84686    0.00042
   52     -3.59070    0.00003
   53     -3.42327    0.00001
   54     -2.94033    0.00000
   55     -2.30597    0.00000
   56     -2.05666    0.00000
   57     -1.71616    0.00000
   58     -1.60874    0.00000
   59     -1.22784    0.00000
   60     -1.16377    0.00000
   61     -0.53203    0.00000
   62     -0.40477    0.00000
   63     -0.26380    0.00000
   64     -0.08539    0.00000
   65      0.15879    0.00000
   66      0.66986    0.00000
   67      1.22703    0.00000
   68      1.86619    0.00000
   69      2.10039    0.00000
   70      2.93042    0.00000
   71      3.08125    0.00000
   72      3.65088    0.00000
   73      3.82143    0.00000
   74      4.20949    0.00000
   75      4.71199    0.00000
   76      5.40054    0.00000
   77      5.82241    0.00000
   78      6.15298    0.00000
   79      6.73924    0.00000
   80      6.85351    0.00000
   81      7.22199    0.00000
   82      7.39346    0.00000
   83      7.73473    0.00000
   84      8.23417    0.00000
   85      8.32011    0.00000
   86      8.59386    0.00000
   87      8.69210    0.00000
   88      8.74134    0.00000
   89      9.03644    0.00000
   90      9.25427    0.00000
   91      9.37391    0.00000
   92      9.43181    0.00000
   93      9.59705    0.00000
   94      9.65543    0.00000
   95      9.89627    0.00000
   96      9.98059    0.00000
   97     10.03926    0.00000


Forces in eV/Ang:
  0 C    -0.01713    0.49229   -0.77688
  1 C     0.48991   -0.29008   -0.08046
  2 C     1.94843    0.68296    0.01612
  3 C    -0.21704   -0.66119    0.59218
  4 C    -7.59740    3.83691    1.26142
  5 C     1.19300   -0.07711    0.50167
  6 C     0.52013   -0.77167    0.31675
  7 C     4.79286    0.34790   -0.56890
  8 C     0.10862   -0.07388    0.13128
  9 C    -4.36131    4.33967    1.15809
 10 C     1.54215   -2.16321   -2.15054
 11 C     0.34283   -0.04888    0.21123
 12 C     1.13356    2.08128    1.42582
 13 C     2.31056   -0.60705   -1.57786
 14 C    -1.73172   -0.58729   -0.46415
 15 C    -1.87221    0.84134   -0.90536
 16 C    -2.10812   -0.28360   -0.79709
 17 C    -0.54518   -0.95533    0.20816
 18 C     1.87059    0.49995    1.14196
 19 C     0.30452    0.87908   -1.47862
 20 C     0.45447   -0.20132    0.65686
 21 C     4.84434   -3.15099   -1.63964
 22 C    -4.73577   -4.37214    2.54331
 23 C     1.37100    0.26561    0.13545

System changes: positions 

Initializing position-dependent things.

Density initialized from wave functions
           .--------------------------------------.  
          /|                                      |  
         / |                                      |  
        /  |                                      |  
       /   |                                      |  
      /    |                                      |  
     /     |                                      |  
    /      |                                      |  
   /       |                                      |  
  /        |           C     C  C                 |  
 *         |C C  C  C      C    CC                |  
 |         |  C C   C     C   CC                  |  
 |         .-----------C---C--C-------------------.  
 |        /         C     C                      /   
 |       /                                      /    
 |      /                                      /     
 |     /                                      /      
 |    /                                      /       
 |   /                                      /        
 |  /                                      /         
 | /                                      /          
 |/                                      /           
 *--------------------------------------*            

Positions:
   0 C      6.227201   10.611734    4.937872
   1 C      5.082149   10.048960    5.098887
   2 C      8.805892   11.157361    5.352321
   3 C      4.053631    9.193844    5.381072
   4 C      8.166930   10.459950    4.386355
   5 C      9.950611   10.634219    5.627470
   6 C      3.197783    8.277208    5.694894
   7 C      7.946885    9.124731    4.264828
   8 C     10.438452    9.410749    5.222493
   9 C      3.057363    6.188268    6.653231
  10 C      7.148956    7.977450    4.107023
  11 C      9.479595    8.823121    4.290522
  12 C      8.017592    4.277761    5.877168
  13 C      6.702157    3.887352    5.580023
  14 C     10.680465    5.811396    6.448302
  15 C      6.730268    4.244236    6.976471
  16 C      9.459937    5.381342    5.806983
  17 C     11.274823    6.985419    6.383513
  18 C      4.904483    4.671038    6.570032
  19 C      9.160246    6.386472    4.746173
  20 C     10.974797    8.026542    5.537748
  21 C      4.038548    5.561707    6.099509
  22 C      8.337621    7.301046    3.769498
  23 C     10.012024    7.466729    4.624520

Unit cell:
           periodic     x           y           z      points  spacing
  1. axis:    yes   16.000000    0.000000    0.000000    80     0.2000
  2. axis:    yes    0.000000   16.000000    0.000000    80     0.2000
  3. axis:    yes    0.000000    0.000000   10.000000    48     0.2083

Effective grid spacing dv^(1/3) = 0.2027

                     log10-error:    total        iterations:
           time      wfs    density  energy       fermi  poisson
iter:   1  10:13:49          +inf  -161.587821    3      5      
iter:   2  10:13:50         -2.04  -161.538326    3      2      
iter:   3  10:13:50         -2.21  -161.523265    3      2      
iter:   4  10:13:51         -2.31  -161.509470    3      2      
iter:   5  10:13:51         -2.47  -161.504830    3      2      
iter:   6  10:13:52         -2.71  -161.504975    2      2      
iter:   7  10:13:52         -2.86  -161.503226    2      2      
iter:   8  10:13:53         -3.07  -161.503340    2      1      
iter:   9  10:13:53         -3.17  -161.503943    2      1      
iter:  10  10:13:54         -3.43  -161.503929    2      1      
iter:  11  10:13:54         -3.56  -161.503431    2      1      
iter:  12  10:13:55         -3.65  -161.503372    2      1      
iter:  13  10:13:55         -3.82  -161.503763    2      1      
iter:  14  10:13:56         -3.92  -161.503873    1      1      
iter:  15  10:13:56         -4.02  -161.503449    2      1      

Converged after 15 iterations.

Dipole moment: (1.876279, 0.016994, -0.201079) |e|*Ang

Energy contributions relative to reference atoms: (reference = -24663.074771)

Kinetic:        +86.743998
Potential:      -93.925866
External:        +0.000000
XC:            -157.028342
Entropy (-ST):   -0.287848
Local:           +2.850685
--------------------------
Free energy:   -161.647373
Extrapolated:  -161.503449

Fermi level: -4.66331

 Band  Eigenvalues  Occupancy
    0    -24.63596    2.00000
    1    -22.58806    2.00000
    2    -22.13016    2.00000
    3    -21.94062    2.00000
    4    -20.94228    2.00000
    5    -19.99300    2.00000
    6    -19.84606    2.00000
    7    -18.76464    2.00000
    8    -18.53578    2.00000
    9    -18.33179    2.00000
   10    -16.96415    2.00000
   11    -16.70174    2.00000
   12    -16.10884    2.00000
   13    -16.04159    2.00000
   14    -14.74767    2.00000
   15    -14.54130    2.00000
   16    -13.89845    2.00000
   17    -13.54589    2.00000
   18    -13.07988    2.00000
   19    -12.81076    2.00000
   20    -12.19630    2.00000
   21    -11.96713    2.00000
   22    -11.50016    2.00000
   23    -11.14471    2.00000
   24    -10.73517    2.00000
   25    -10.27627    2.00000
   26     -9.87377    2.00000
   27     -9.39622    2.00000
   28     -8.89666    2.00000
   29     -8.76867    2.00000
   30     -8.52718    2.00000
   31     -8.36827    2.00000
   32     -8.25674    2.00000
   33     -8.12169    2.00000
   34     -7.48914    2.00000
   35     -7.44363    2.00000
   36     -7.36600    2.00000
   37     -7.23609    2.00000
   38     -7.21982    2.00000
   39     -6.97658    2.00000
   40     -6.83126    2.00000
   41     -6.23407    2.00000
   42     -5.85914    1.99999
   43     -5.71499    1.99995
   44     -5.42233    1.99899
   45     -5.07054    1.96649
   46     -4.88457    1.80274
   47     -4.86002    1.75459
   48     -4.53247    0.42550
   49     -4.26337    0.03599
   50     -4.17629    0.01523
   51     -3.83146    0.00049
   52     -3.59888    0.00005
   53     -3.42325    0.00001
   54     -2.91621    0.00000
   55     -2.35061    0.00000
   56     -2.05977    0.00000
   57     -1.66632    0.00000
   58     -1.56227    0.00000
   59     -1.25140    0.00000
   60     -1.09849    0.00000
   61     -0.55558    0.00000
   62     -0.36425    0.00000
   63     -0.25414    0.00000
   64     -0.12092    0.00000
   65      0.25529    0.00000
   66      0.68911    0.00000
   67      1.21865    0.00000
   68      1.97787    0.00000
   69      2.19183    0.00000
   70      2.93040    0.00000
   71      3.21591    0.00000
   72      3.67979    0.00000
   73      3.82105    0.00000
   74      4.22621    0.00000
   75      4.75678    0.00000
   76      5.43338    0.00000
   77      5.76085    0.00000
   78      6.14688    0.00000
   79      6.68485    0.00000
   80      6.87790    0.00000
   81      7.23414    0.00000
   82      7.49414    0.00000
   83      7.73815    0.00000
   84      8.22175    0.00000
   85      8.34597    0.00000
   86      8.60646    0.00000
   87      8.72180    0.00000
   88      8.75217    0.00000
   89      9.03182    0.00000
   90      9.22842    0.00000
   91      9.37757    0.00000
   92      9.44064    0.00000
   93      9.59194    0.00000
   94      9.65590    0.00000
   95      9.89275    0.00000
   96      9.96178    0.00000
   97     10.05951    0.00000


Forces in eV/Ang:
  0 C     0.12811    0.34309   -0.85089
  1 C     0.73555   -0.18520   -0.13816
  2 C     1.76190    0.41768   -0.22816
  3 C    -0.07261   -0.53961    0.54367
  4 C    -7.94772    3.61940    1.85534
  5 C     1.02097    0.02023    0.39805
  6 C     0.49779   -0.96205    0.40074
  7 C     5.06921    0.20202   -0.76145
  8 C     0.13442   -0.01921    0.11990
  9 C    -3.45000    3.86684    0.56495
 10 C     1.49282   -1.46481   -2.00641
 11 C     0.14501   -0.10016    0.41555
 12 C     1.00479    2.05810    1.29599
 13 C     2.51550   -0.53686   -1.32625
 14 C    -1.74920   -0.47680   -0.48797
 15 C    -2.09605    0.87148   -1.14768
 16 C    -2.03731   -0.30649   -0.62064
 17 C    -0.61792   -1.13084    0.23916
 18 C     2.04292    0.58670    1.16037
 19 C     0.18727    0.76895   -1.50605
 20 C     0.46370   -0.19450    0.61989
 21 C     3.97113   -2.63058   -1.03326
 22 C    -4.32046   -4.64639    2.56425
 23 C     1.17957    0.52011   -0.15978

System changes: positions 

Initializing position-dependent things.

Density initialized from wave functions
           .--------------------------------------.  
          /|                                      |  
         / |                                      |  
        /  |                                      |  
       /   |                                      |  
      /    |                                      |  
     /     |                                      |  
    /      |                                      |  
   /       |                                      |  
  /        |           C     C  C                 |  
 *         |C C  C  C      C    CC                |  
 |         |  C C   C     C   CC                  |  
 |         .-----------C---C--C-------------------.  
 |        /         C     C                      /   
 |       /                                      /    
 |      /                                      /     
 |     /                                      /      
 |    /                                      /       
 |   /                                      /        
 |  /                                      /         
 | /                                      /          
 |/                                      /           
 *--------------------------------------*            

Positions:
   0 C      6.227644   10.614189    4.934148
   1 C      5.084185   10.047247    5.098628
   2 C      8.815436   11.162016    5.352987
   3 C      4.052315    9.190143    5.383943
   4 C      8.132286   10.479251    4.391574
   5 C      9.956349   10.633797    5.630604
   6 C      3.201075    8.273888    5.696285
   7 C      7.965162    9.126154    4.262501
   8 C     10.439508    9.409634    5.223282
   9 C      3.050738    6.200989    6.650188
  10 C      7.155366    7.966549    4.096612
  11 C      9.482240    8.824882    4.290748
  12 C      8.024416    4.288547    5.884344
  13 C      6.713382    3.883982    5.571111
  14 C     10.672255    5.808367    6.446266
  15 C      6.720874    4.248436    6.972893
  16 C      9.448374    5.380896    5.801946
  17 C     11.272309    6.980946    6.384475
  18 C      4.914618    4.673003    6.576311
  19 C      9.162624    6.390624    4.739976
  20 C     10.976668    8.025358    5.540962
  21 C      4.046518    5.556267    6.100027
  22 C      8.314834    7.278667    3.779936
  23 C     10.019171    7.466420    4.627071

Unit cell:
           periodic     x           y           z      points  spacing
  1. axis:    yes   16.000000    0.000000    0.000000    80     0.2000
  2. axis:    yes    0.000000   16.000000    0.000000    80     0.2000
  3. axis:    yes    0.000000    0.000000   10.000000    48     0.2083

Effective grid spacing dv^(1/3) = 0.2027

                     log10-error:    total        iterations:
           time      wfs    density  energy       fermi  poisson
iter:   1  10:13:58          +inf  -162.668703    3      5      
iter:   2  10:13:58         -2.06  -162.627621    3      2      
iter:   3  10:13:59         -2.22  -162.613170    2      2      
iter:   4  10:13:59         -2.34  -162.605903    2      2      
iter:   5  10:14:00         -2.49  -162.595983    3      2      
iter:   6  10:14:00         -2.71  -162.606578    2      2      
iter:   7  10:14:01         -2.74  -162.599686    2      2      
iter:   8  10:14:01         -3.13  -162.598943    2      1      
iter:   9  10:14:02         -3.21  -162.599257    2      1      
iter:  10  10:14:02         -3.49  -162.599398    2      1      
iter:  11  10:14:03         -3.55  -162.598589    2      1      
iter:  12  10:14:03         -3.71  -162.598907    2      1      
iter:  13  10:14:04         -3.92  -162.598778    2      1      
iter:  14  10:14:04         -4.01  -162.598986    2      1      

Converged after 14 iterations.

Dipole moment: (1.869444, 0.005469, -0.194846) |e|*Ang

Energy contributions relative to reference atoms: (reference = -24663.074771)

Kinetic:        +81.249116
Potential:      -90.062506
External:        +0.000000
XC:            -156.512857
Entropy (-ST):   -0.253804
Local:           +2.854163
--------------------------
Free energy:   -162.725888
Extrapolated:  -162.598986

Fermi level: -4.63796

 Band  Eigenvalues  Occupancy
    0    -24.55205    2.00000
    1    -22.49188    2.00000
    2    -22.08221    2.00000
    3    -21.87216    2.00000
    4    -20.89092    2.00000
    5    -19.93441    2.00000
    6    -19.77020    2.00000
    7    -18.73856    2.00000
    8    -18.49875    2.00000
    9    -18.31293    2.00000
   10    -16.93953    2.00000
   11    -16.68251    2.00000
   12    -16.04085    2.00000
   13    -16.02571    2.00000
   14    -14.80093    2.00000
   15    -14.56176    2.00000
   16    -13.87135    2.00000
   17    -13.52691    2.00000
   18    -13.02775    2.00000
   19    -12.80953    2.00000
   20    -12.21174    2.00000
   21    -12.00405    2.00000
   22    -11.46596    2.00000
   23    -11.09328    2.00000
   24    -10.69992    2.00000
   25    -10.27630    2.00000
   26     -9.83843    2.00000
   27     -9.46172    2.00000
   28     -8.88478    2.00000
   29     -8.81377    2.00000
   30     -8.57875    2.00000
   31     -8.39512    2.00000
   32     -8.24341    2.00000
   33     -8.10188    2.00000
   34     -7.47507    2.00000
   35     -7.46655    2.00000
   36     -7.34381    2.00000
   37     -7.24157    2.00000
   38     -7.19764    2.00000
   39     -6.99706    2.00000
   40     -6.86185    2.00000
   41     -6.28792    2.00000
   42     -5.90201    1.99999
   43     -5.75294    1.99997
   44     -5.42131    1.99921
   45     -5.08933    1.97832
   46     -4.87724    1.83255
   47     -4.85278    1.79100
   48     -4.48576    0.35834
   49     -4.21533    0.02879
   50     -4.12141    0.01136
   51     -3.78639    0.00040
   52     -3.60766    0.00007
   53     -3.40208    0.00001
   54     -2.89822    0.00000
   55     -2.39309    0.00000
   56     -2.05889    0.00000
   57     -1.61666    0.00000
   58     -1.50911    0.00000
   59     -1.25885    0.00000
   60     -1.02779    0.00000
   61     -0.57636    0.00000
   62     -0.32269    0.00000
   63     -0.23885    0.00000
   64     -0.16163    0.00000
   65      0.34907    0.00000
   66      0.73468    0.00000
   67      1.22163    0.00000
   68      1.95481    0.00000
   69      2.43413    0.00000
   70      2.92945    0.00000
   71      3.32594    0.00000
   72      3.69415    0.00000
   73      3.83096    0.00000
   74      4.23562    0.00000
   75      4.79279    0.00000
   76      5.49193    0.00000
   77      5.69376    0.00000
   78      6.15471    0.00000
   79      6.63405    0.00000
   80      6.87829    0.00000
   81      7.21927    0.00000
   82      7.57996    0.00000
   83      7.77000    0.00000
   84      8.21094    0.00000
   85      8.37603    0.00000
   86      8.62658    0.00000
   87      8.75507    0.00000
   88      8.76333    0.00000
   89      9.03157    0.00000
   90      9.20126    0.00000
   91      9.36729    0.00000
   92      9.46826    0.00000
   93      9.58153    0.00000
   94      9.66456    0.00000
   95      9.86624    0.00000
   96      9.91721    0.00000
   97     10.08324    0.00000


Forces in eV/Ang:
  0 C     0.27031    0.18563   -0.91510
  1 C     0.95956   -0.08960   -0.19201
  2 C     1.59917    0.14765   -0.45401
  3 C     0.06626   -0.43637    0.50743
  4 C    -8.12715    3.34529    2.37054
  5 C     0.80997    0.11120    0.27180
  6 C     0.46292   -1.13969    0.48449
  7 C     5.16527    0.08066   -0.88718
  8 C     0.16940    0.04054    0.11699
  9 C    -2.60146    3.45188    0.03163
 10 C     1.44304   -0.79853   -1.82943
 11 C    -0.01182   -0.15008    0.58040
 12 C     0.81265    2.01649    1.12573
 13 C     2.71552   -0.44912   -1.10111
 14 C    -1.75247   -0.38058   -0.49819
 15 C    -2.36023    0.90927   -1.38916
 16 C    -1.93955   -0.32115   -0.47107
 17 C    -0.67887   -1.28669    0.27621
 18 C     2.23745    0.62937    1.20021
 19 C     0.07777    0.64940   -1.49721
 20 C     0.46502   -0.18686    0.58469
 21 C     3.17241   -2.15675   -0.49428
 22 C    -3.87318   -4.86228    2.54244
 23 C     0.97945    0.74684   -0.42038

System changes: positions 

Initializing position-dependent things.

Density initialized from wave functions
           .--------------------------------------.  
[...]

Dipole moment: (0.091292, 0.045288, -0.035690) |e|*Ang

Energy contributions relative to reference atoms: (reference = -24663.074771)

Kinetic:       +106.231533
Potential:     -115.194525
External:        +0.000000
XC:            -177.374089
Entropy (-ST):   -0.001827
Local:           +3.085544
--------------------------
Free energy:   -183.253364
Extrapolated:  -183.252450

Fermi level: -3.97685

 Band  Eigenvalues  Occupancy
    0    -23.11361    2.00000
    1    -21.39611    2.00000
    2    -20.77450    2.00000
    3    -20.34406    2.00000
    4    -20.16028    2.00000
    5    -19.96072    2.00000
    6    -19.24586    2.00000
    7    -19.15500    2.00000
    8    -18.33894    2.00000
    9    -18.15923    2.00000
   10    -17.60144    2.00000
   11    -17.32470    2.00000
   12    -16.27351    2.00000
   13    -16.21288    2.00000
   14    -15.01313    2.00000
   15    -15.00679    2.00000
   16    -14.87796    2.00000
   17    -14.17340    2.00000
   18    -13.46858    2.00000
   19    -13.22286    2.00000
   20    -12.53812    2.00000
   21    -12.42485    2.00000
   22    -11.79688    2.00000
   23    -11.76546    2.00000
   24    -11.56583    2.00000
   25    -10.45636    2.00000
   26     -9.98961    2.00000
   27     -9.44862    2.00000
   28     -9.26535    2.00000
   29     -9.24300    2.00000
   30     -9.09836    2.00000
   31     -9.01678    2.00000
   32     -8.41152    2.00000
   33     -8.36504    2.00000
   34     -8.34898    2.00000
   35     -8.07914    2.00000
   36     -7.48959    2.00000
   37     -7.08463    2.00000
   38     -6.95212    2.00000
   39     -6.57823    2.00000
   40     -6.41439    2.00000
   41     -6.30172    2.00000
   42     -6.11568    2.00000
   43     -5.81331    2.00000
   44     -5.62509    2.00000
   45     -5.00581    1.99993
   46     -4.89259    1.99979
   47     -4.77428    1.99931
   48     -3.18242    0.00071
   49     -3.02359    0.00014
   50     -2.95748    0.00007
   51     -2.84886    0.00003
   52     -2.78222    0.00001
   53     -2.22246    0.00000
   54     -1.40336    0.00000
   55     -1.23480    0.00000
   56     -1.13439    0.00000
   57     -0.63689    0.00000
   58     -0.19226    0.00000
   59      0.09338    0.00000
   60      0.49329    0.00000
   61      0.80637    0.00000
   62      1.07315    0.00000
   63      1.52790    0.00000
   64      2.16850    0.00000
   65      2.80512    0.00000
   66      3.74697    0.00000
   67      3.88025    0.00000
   68      4.63496    0.00000
   69      5.46095    0.00000
   70      5.95202    0.00000
   71      6.27893    0.00000
   72      6.46080    0.00000
   73      6.93677    0.00000
   74      7.00823    0.00000
   75      7.26902    0.00000
   76      7.83160    0.00000
   77      8.06826    0.00000
   78      8.16867    0.00000
   79      8.51112    0.00000
   80      8.85168    0.00000
   81      8.86624    0.00000
   82      9.04946    0.00000
   83      9.22516    0.00000
   84      9.30573    0.00000
   85      9.38589    0.00000
   86      9.47226    0.00000
   87      9.58127    0.00000
   88      9.62667    0.00000
   89      9.71850    0.00000
   90      9.76826    0.00000
   91      9.92769    0.00000
   92      9.94604    0.00000
   93     10.05082    0.00000
   94     10.12454    0.00000
   95     10.36115    0.00000
   96     10.39768    0.00000
   97     10.45378    0.00000


Forces in eV/Ang:
  0 C    -0.06440    0.06076   -0.01910
  1 C    -0.02563    0.02324   -0.01389
  2 C    -0.00284    0.16119    0.01139
  3 C     0.00657   -0.05105    0.05220
  4 C     0.12815   -0.09865    0.01792
  5 C     0.00110   -0.08612    0.05865
  6 C     0.00386   -0.06525   -0.06149
  7 C    -0.11268    0.15590   -0.12061
  8 C    -0.00176   -0.01036   -0.03719
  9 C     0.04362   -0.01558   -0.02254
 10 C     0.03865   -0.04941   -0.00253
 11 C    -0.06321    0.00356    0.08815
 12 C     0.01293   -0.03435    0.01683
 13 C    -0.09945    0.02205    0.06681
 14 C    -0.00554   -0.05761    0.03199
 15 C    -0.07344   -0.02895    0.00985
 16 C     0.04259    0.00826   -0.07914
 17 C     0.05045    0.03178   -0.08063
 18 C    -0.04495   -0.02412    0.08385
 19 C     0.05117    0.06237    0.01483
 20 C     0.03221   -0.01481   -0.02343
 21 C     0.03561    0.03091   -0.04859
 22 C    -0.00483    0.01490    0.03953
 23 C     0.09125   -0.01409    0.00491

System changes: positions 

Initializing position-dependent things.

Density initialized from wave functions
           .--------------------------------------.  
          /|                                      |  
         / |                                      |  
        /  |                                      |  
       /   |                                      |  
      /    |                                      |  
     /     |                                      |  
    /      |                                      |  
   /       |                                      |  
  /        |     C  C  C     C  C                 |  
 *         |  CC          C     CC                |  
 |         |  C            C  CC                  |  
 |         .----C-C--C--CC--C-C-------------------.  
 |        /              C C                     /   
 |       /                                      /    
 |      /                                      /     
 |     /                                      /      
 |    /                                      /       
 |   /                                      /        
 |  /                                      /         
 | /                                      /          
 |/                                      /           
 *--------------------------------------*            

Positions:
   0 C      6.232126   10.457276    5.114522
   1 C      5.075053   10.015770    5.342688
   2 C      8.698321   11.033409    5.464276
   3 C      4.025754    9.245279    5.676993
   4 C      7.605888   10.381221    4.858719
   5 C      9.883897   10.609156    5.705407
   6 C      3.466863    8.148833    5.987428
   7 C      8.113668    9.158586    4.155168
   8 C     10.437820    9.419814    5.248391
   9 C      3.395784    6.831198    6.209757
  10 C      7.459284    7.913540    3.859220
  11 C      9.494036    8.855190    4.260339
  12 C      8.520654    4.447232    5.972846
  13 C      7.302187    4.125200    6.036850
  14 C     10.674068    5.805448    6.334767
  15 C      5.970360    4.177782    6.201368
  16 C      9.524001    5.368920    5.646021
  17 C     11.228653    6.962451    6.347049
  18 C      4.820877    4.713251    6.259124
  19 C      9.188830    6.369693    4.584858
  20 C     10.957475    8.024258    5.492270
  21 C      3.871575    5.654904    6.305367
  22 C      7.920033    6.747142    4.028776
  23 C     10.001176    7.524329    4.480233

Unit cell:
           periodic     x           y           z      points  spacing
  1. axis:    yes   16.000000    0.000000    0.000000    80     0.2000
  2. axis:    yes    0.000000   16.000000    0.000000    80     0.2000
  3. axis:    yes    0.000000    0.000000   10.000000    48     0.2083

Effective grid spacing dv^(1/3) = 0.2027

                     log10-error:    total        iterations:
           time      wfs    density  energy       fermi  poisson
iter:   1  10:22:56          +inf  -183.255083    2      4      
iter:   2  10:22:56         -3.29  -183.254978    1      1      
iter:   3  10:22:57         -3.38  -183.255075    1      1      
iter:   4  10:22:57         -3.63  -183.255078    1      1      
iter:   5  10:22:57         -3.91  -183.255043    1      1      
iter:   6  10:22:58         -3.79  -183.254688    1      1      
iter:   7  10:22:58         -4.41  -183.254754    1      1      

Converged after 7 iterations.

Dipole moment: (0.090746, 0.044404, -0.035437) |e|*Ang

Energy contributions relative to reference atoms: (reference = -24663.074771)

Kinetic:       +106.126232
Potential:     -115.108527
External:        +0.000000
XC:            -177.351237
Entropy (-ST):   -0.001823
Local:           +3.079690
--------------------------
Free energy:   -183.255666
Extrapolated:  -183.254754

Fermi level: -3.97753

 Band  Eigenvalues  Occupancy
    0    -23.11387    2.00000
    1    -21.39543    2.00000
    2    -20.77362    2.00000
    3    -20.34415    2.00000
    4    -20.15848    2.00000
    5    -19.96069    2.00000
    6    -19.24574    2.00000
    7    -19.15442    2.00000
    8    -18.33828    2.00000
    9    -18.15785    2.00000
   10    -17.60126    2.00000
   11    -17.32407    2.00000
   12    -16.27478    2.00000
   13    -16.21059    2.00000
   14    -15.01445    2.00000
   15    -15.00808    2.00000
   16    -14.87712    2.00000
   17    -14.17200    2.00000
   18    -13.46872    2.00000
   19    -13.22307    2.00000
   20    -12.53612    2.00000
   21    -12.42472    2.00000
   22    -11.79384    2.00000
   23    -11.76580    2.00000
   24    -11.56317    2.00000
   25    -10.45555    2.00000
   26     -9.98807    2.00000
   27     -9.45206    2.00000
   28     -9.26446    2.00000
   29     -9.24071    2.00000
   30     -9.09990    2.00000
   31     -9.01821    2.00000
   32     -8.41204    2.00000
   33     -8.36517    2.00000
   34     -8.34959    2.00000
   35     -8.07683    2.00000
   36     -7.49008    2.00000
   37     -7.08489    2.00000
   38     -6.95171    2.00000
   39     -6.57646    2.00000
   40     -6.41399    2.00000
   41     -6.30235    2.00000
   42     -6.11567    2.00000
   43     -5.81076    2.00000
   44     -5.62433    2.00000
   45     -5.00749    1.99993
   46     -4.89376    1.99979
   47     -4.77504    1.99931
   48     -3.18291    0.00071
   49     -3.02419    0.00014
   50     -2.95795    0.00007
   51     -2.84847    0.00002
   52     -2.78037    0.00001
   53     -2.22425    0.00000
   54     -1.40565    0.00000
   55     -1.23499    0.00000
   56     -1.13274    0.00000
   57     -0.63495    0.00000
   58     -0.19224    0.00000
   59      0.10012    0.00000
   60      0.48834    0.00000
   61      0.80165    0.00000
   62      1.06860    0.00000
   63      1.52653    0.00000
   64      2.16782    0.00000
   65      2.80127    0.00000
   66      3.74738    0.00000
   67      3.88369    0.00000
   68      4.63002    0.00000
   69      5.46745    0.00000
   70      5.95462    0.00000
   71      6.27826    0.00000
   72      6.46198    0.00000
   73      6.94224    0.00000
   74      7.00223    0.00000
   75      7.26701    0.00000
   76      7.83078    0.00000
   77      8.06639    0.00000
   78      8.16330    0.00000
   79      8.51475    0.00000
   80      8.85018    0.00000
   81      8.86501    0.00000
   82      9.05025    0.00000
   83      9.22797    0.00000
   84      9.30534    0.00000
   85      9.38562    0.00000
   86      9.47137    0.00000
   87      9.58078    0.00000
   88      9.62738    0.00000
   89      9.71847    0.00000
   90      9.76675    0.00000
   91      9.93037    0.00000
   92      9.94534    0.00000
   93     10.04873    0.00000
   94     10.12379    0.00000
   95     10.36329    0.00000
   96     10.39707    0.00000
   97     10.45352    0.00000


Forces in eV/Ang:
  0 C    -0.02919    0.06360   -0.01589
  1 C    -0.04773    0.00325   -0.00854
  2 C     0.01719    0.13354    0.01485
  3 C     0.01912   -0.02934    0.04674
  4 C     0.09756   -0.07859   -0.00963
  5 C    -0.01693   -0.06897    0.05815
  6 C     0.00641   -0.06231   -0.05868
  7 C    -0.07784    0.10442   -0.07784
  8 C    -0.00030    0.00021   -0.01969
  9 C     0.02376    0.00659   -0.01690
 10 C     0.04303   -0.04655   -0.00619
 11 C    -0.04774    0.00939    0.04880
 12 C    -0.01244   -0.02977    0.00930
 13 C    -0.06626    0.03108    0.06675
 14 C     0.01358   -0.03751    0.02621
 15 C    -0.03797   -0.03285    0.01291
 16 C     0.02426   -0.00370   -0.06242
 17 C     0.04252    0.01627   -0.06633
 18 C    -0.05547   -0.02877    0.07597
 19 C     0.04228    0.03414    0.01743
 20 C     0.03865   -0.00909   -0.02269
 21 C     0.04116    0.01403   -0.05019
 22 C    -0.01314    0.06196    0.02511
 23 C     0.04748   -0.01215   -0.00118

System changes: positions 

Initializing position-dependent things.

Density initialized from wave functions
           .--------------------------------------.  
          /|                                      |  
         / |                                      |  
        /  |                                      |  
       /   |                                      |  
      /    |                                      |  
     /     |                                      |  
    /      |                                      |  
   /       |                                      |  
  /        |     C  C  C     C  C                 |  
 *         |  CC          C     CC                |  
 |         |  C           C   CC                  |  
 |         .----C-C--C--CC--C-C-------------------.  
 |        /              C C                     /   
 |       /                                      /    
 |      /                                      /     
 |     /                                      /      
 |    /                                      /       
 |   /                                      /        
 |  /                                      /         
 | /                                      /          
 |/                                      /           
 *--------------------------------------*            

Positions:
   0 C      6.230128   10.461810    5.109464
   1 C      5.073502   10.019727    5.343270
   2 C      8.697603   11.041371    5.461728
   3 C      4.027886    9.246599    5.685017
   4 C      7.606321   10.379715    4.859021
   5 C      9.878080   10.604898    5.708329
   6 C      3.469097    8.147363    5.986617
   7 C      8.111989    9.162547    4.146853
   8 C     10.436853    9.420145    5.248687
   9 C      3.397557    6.830099    6.208326
  10 C      7.462448    7.911553    3.856734
  11 C      9.490827    8.854284    4.265756
  12 C      8.519572    4.447373    5.974720
  13 C      7.300233    4.126811    6.039952
  14 C     10.674697    5.802984    6.337164
  15 C      5.967432    4.175533    6.200684
  16 C      9.526040    5.367438    5.643647
  17 C     11.231799    6.959563    6.341541
  18 C      4.818453    4.710478    6.261793
  19 C      9.190882    6.371749    4.587175
  20 C     10.959661    8.024055    5.492423
  21 C      3.874337    5.655762    6.299837
  22 C      7.920365    6.745382    4.030627
  23 C     10.004634    7.524190    4.480499

Unit cell:
           periodic     x           y           z      points  spacing
  1. axis:    yes   16.000000    0.000000    0.000000    80     0.2000
  2. axis:    yes    0.000000   16.000000    0.000000    80     0.2000
  3. axis:    yes    0.000000    0.000000   10.000000    48     0.2083

Effective grid spacing dv^(1/3) = 0.2027

                     log10-error:    total        iterations:
           time      wfs    density  energy       fermi  poisson
iter:   1  10:23:00          +inf  -183.261602    2      4      
iter:   2  10:23:00         -2.79  -183.260461    1      1      
iter:   3  10:23:01         -2.89  -183.259809    2      1      
iter:   4  10:23:01         -3.14  -183.260136    1      1      
iter:   5  10:23:02         -3.42  -183.259976    2      1      
iter:   6  10:23:02         -3.26  -183.259208    1      1      
iter:   7  10:23:03         -3.79  -183.259390    1      1      
iter:   8  10:23:03         -3.41  -183.259324    1      1      
iter:   9  10:23:04         -4.27  -183.259285    1      1      

Converged after 9 iterations.

Dipole moment: (0.091011, 0.040436, -0.034299) |e|*Ang

Energy contributions relative to reference atoms: (reference = -24663.074771)

Kinetic:       +105.881227
Potential:     -114.920982
External:        +0.000000
XC:            -177.297455
Entropy (-ST):   -0.001809
Local:           +3.078829
--------------------------
Free energy:   -183.260189
Extrapolated:  -183.259285

Fermi level: -3.97862

 Band  Eigenvalues  Occupancy
    0    -23.11641    2.00000
    1    -21.39161    2.00000
    2    -20.76938    2.00000
    3    -20.34795    2.00000
    4    -20.15422    2.00000
    5    -19.96019    2.00000
    6    -19.24531    2.00000
    7    -19.15310    2.00000
    8    -18.33843    2.00000
    9    -18.15418    2.00000
   10    -17.60130    2.00000
   11    -17.32261    2.00000
   12    -16.27934    2.00000
   13    -16.20743    2.00000
   14    -15.02218    2.00000
   15    -15.01365    2.00000
   16    -14.87688    2.00000
   17    -14.16348    2.00000
   18    -13.46876    2.00000
   19    -13.22415    2.00000
   20    -12.52695    2.00000
   21    -12.42695    2.00000
   22    -11.78844    2.00000
   23    -11.76563    2.00000
   24    -11.54671    2.00000
   25    -10.45571    2.00000
   26     -9.98740    2.00000
   27     -9.46283    2.00000
   28     -9.26106    2.00000
   29     -9.23340    2.00000
   30     -9.10598    2.00000
   31     -9.02497    2.00000
   32     -8.41283    2.00000
   33     -8.36610    2.00000
   34     -8.35082    2.00000
   35     -8.07203    2.00000
   36     -7.49174    2.00000
   37     -7.08405    2.00000
   38     -6.95151    2.00000
   39     -6.57377    2.00000
   40     -6.41101    2.00000
   41     -6.30438    2.00000
   42     -6.11657    2.00000
   43     -5.80629    2.00000
   44     -5.62403    2.00000
   45     -5.00904    1.99993
   46     -4.89887    1.99980
   47     -4.77602    1.99931
   48     -3.18274    0.00070
   49     -3.02814    0.00015
   50     -2.95650    0.00007
   51     -2.84776    0.00002
   52     -2.77452    0.00001
   53     -2.22429    0.00000
   54     -1.41210    0.00000
   55     -1.22986    0.00000
   56     -1.13532    0.00000
   57     -0.62960    0.00000
   58     -0.19027    0.00000
   59      0.12057    0.00000
   60      0.47652    0.00000
   61      0.79258    0.00000
   62      1.05641    0.00000
   63      1.52583    0.00000
   64      2.16258    0.00000
   65      2.79031    0.00000
   66      3.74735    0.00000
   67      3.88309    0.00000
   68      4.61175    0.00000
   69      5.48623    0.00000
   70      5.95513    0.00000
   71      6.26724    0.00000
   72      6.45576    0.00000
   73      6.95990    0.00000
   74      6.98643    0.00000
   75      7.25892    0.00000
   76      7.83176    0.00000
   77      8.06118    0.00000
   78      8.15077    0.00000
   79      8.53410    0.00000
   80      8.84388    0.00000
   81      8.86452    0.00000
   82      9.05285    0.00000
   83      9.24426    0.00000
   84      9.30036    0.00000
   85      9.38675    0.00000
   86      9.47068    0.00000
   87      9.58079    0.00000
   88      9.62902    0.00000
   89      9.71548    0.00000
   90      9.76018    0.00000
   91      9.93665    0.00000
   92      9.94562    0.00000
   93     10.04520    0.00000
   94     10.12045    0.00000
   95     10.36601    0.00000
   96     10.39678    0.00000
   97     10.45260    0.00000


Forces in eV/Ang:
  0 C    -0.01780    0.04590    0.00014
  1 C    -0.00034   -0.00240   -0.00541
  2 C    -0.02355    0.05938    0.01057
  3 C     0.01586   -0.02838    0.03417
  4 C     0.03500    0.00519   -0.03206
  5 C    -0.02105   -0.02448    0.04502
  6 C     0.03281    0.00137   -0.06353
  7 C    -0.01544    0.00776    0.03771
  8 C     0.01253   -0.00556    0.01345
  9 C    -0.02803    0.08741   -0.01904
 10 C     0.03873    0.02484   -0.00285
 11 C     0.01179    0.01689   -0.04256
 12 C    -0.02069   -0.00012   -0.01608
 13 C    -0.01462    0.03491    0.05496
 14 C     0.03492   -0.01577    0.00053
 15 C     0.01298   -0.03736    0.02402
 16 C    -0.00070   -0.02379    0.01342
 17 C     0.01951   -0.04500   -0.02398
 18 C    -0.03032   -0.06314    0.05333
 19 C     0.00389   -0.03806   -0.00054
 20 C     0.02642    0.01568   -0.03766
 21 C     0.01473   -0.04953   -0.03096
 22 C     0.00252    0.04475    0.00333
 23 C    -0.03800    0.02693   -0.01059

