
  ___ ___ ___ _ _ _  
 |   |   |_  | | | | 
 | | | | | . | | | | 
 |__ |  _|___|_____|  1.3.0b1
 |___|_|             

User:   esb@s65n32.grendel.cscaa.dk
Date:   Thu Nov  9 11:42:36 2017
Arch:   x86_64
Pid:    24482
Python: 2.7.13
gpaw:   /home/esb/DFT/gpaw_git/gpaw
_gpaw:  /home/esb/DFT/gpaw_git/build/bin.linux-x86_64-2.7/gpaw-python
ase:    /home/esb/DFT/ase_git/ase (version 3.15.0b1)
numpy:  /comm/swstack/core/python/2.7.13/lib/python2.7/site-packages/numpy (version 1.13.3)
scipy:  /comm/swstack/core/python/2.7.13/lib/python2.7/site-packages/scipy (version 0.19.1)
units:  Angstrom and eV
cores:  16
Extra parameters: {'blacs': True}

Input parameters:
  basis: dzp
  gpts: [80 80 48]
  kpts: [1 1 1]
  maxiter: 99
  mixer: {backend: pulay,
          beta: 0.05,
          method: separate,
          nmaxold: 5,
          weight: 75}
  mode: lcao
  nbands: -50
  occupations: {name: fermi-dirac,
                width: 0.1}
  poissonsolver: {eps: 1e-07,
                  name: fd,
                  nn: 3,
                  relax: GS}
  xc: PBE

System changes: positions, numbers, cell, pbc, initial_charges, initial_magmoms 

Initialize ...

C-setup:
  name: Carbon
  id: 4aa54d4b901d75f77cc0ea3eec22967b
  Z: 6
  valence: 4
  core: 2
  charge: 0.0
  file: /home/esb/DFT/gpaw-setups-0.8.7929/C.PBE.gz
  cutoffs: 0.64(comp), 1.14(filt), 1.14(core), lmax=2
  valence states:
                energy  radius
    2s(2.00)   -13.751   0.635
    2p(2.00)    -5.284   0.635
    *s          13.461   0.635
    *p          21.927   0.635
    *d           0.000   0.635

  LCAO basis set for C:
    Name: dzp
    File: /home/esb/DFT/gpaw-setups-0.8.7929/C.dzp.basis.gz
    Number of radial functions: 5
    Number of spherical harmonics: 13
      l=0, rc=5.5469 Bohr: 2s-sz confined orbital
      l=1, rc=6.6719 Bohr: 2p-sz confined orbital
      l=0, rc=3.0312 Bohr: 2s-dz split-valence wave
      l=1, rc=3.7500 Bohr: 2p-dz split-valence wave
      l=2, rc=6.6719 Bohr: d-type Gaussian polarization

Reference energy: -24663.074771

Spin-paired calculation

Occupation numbers:
  Fermi-Dirac: width=0.1000 eV

Convergence criteria:
  Maximum total energy change: 0.0005 eV / electron
  Maximum integral of absolute density change: 0.0001 electrons
  Maximum integral of absolute eigenstate change: 4e-08 eV^2
  Maximum number of iterations: 99

Symmetries present (total): 1

  ( 1  0  0)
  ( 0  1  0)
  ( 0  0  1)

1 k-point (Gamma)
1 k-point in the irreducible part of the Brillouin zone
       k-points in crystal coordinates                weights
   0:     0.00000000    0.00000000    0.00000000          1/1

Wave functions: LCAO
  Diagonalizer: Serial LAPACK
  Atomic Correction: dense with blas
  Datatype: float
  Eigensolver: None 

LCAO using direct dense diagonalizer 

Densities:
  Coarse grid: 80*80*48 grid
  Fine grid: 160*160*96 grid
  Total Charge: 0.000000 

Density mixing:
  Method: separate
  Backend: pulay
  Linear mixing parameter: 0.05
  Mixing with 5 old densities
  Damping of long wave oscillations: 75 

Hamiltonian:
  XC and Coulomb potentials evaluated on a 160*160*96 grid
  Using the PBE Exchange-Correlation functional
  Interpolation: tri-quintic (5. degree polynomial)
  Poisson solver: Gauss-Seidel solver with 6 multi-grid levels
    Coarsest grid: 5 x 5 x 3 points
    Stencil: 6*3+1=19 point O(h^6) finite-difference Laplacian
    Max iterations: 1000
    Tolerance: 1.000000e-07 

Memory estimate:
  Process memory now: 77.56 MiB
  Calculator: 15.59 MiB
    Density: 6.13 MiB
      Arrays: 3.81 MiB
      Localized functions: 0.86 MiB
      Mixer: 1.46 MiB
    Hamiltonian: 5.40 MiB
      Arrays: 2.49 MiB
      XC: 0.00 MiB
      Poisson: 2.85 MiB
      vbar: 0.07 MiB
    Wavefunctions: 4.05 MiB
      C [qnM]: 0.23 MiB
      S, T [2 x qmm]: 1.49 MiB
      P [aqMi]: 0.01 MiB
      TCI: 0.00 MiB
      BasisFunctions: 2.33 MiB
      Eigensolver: 0.00 MiB

Total number of cores used: 16
Domain decomposition: 2 x 4 x 2

Number of atoms: 24
Number of atomic orbitals: 312
Number of bands in calculation: 98
Bands to converge: occupied states only
Number of valence electrons: 96

... initialized

Initializing position-dependent things.

Density initialized from atomic densities
           .--------------------------------------.  
          /|                                      |  
         / |                                      |  
        /  |                                      |  
       /   |                                      |  
      /    |                                      |  
     /     |                                      |  
    /      |                                      |  
   /       |             C                        |  
  /        |          C    C                      |  
 *     C   C  C     C   C     CC     C  C  C      |  
 |         |         C  C   C   C                 |  
 |         .-------C-C-------C--------------------.  
 |        /         C  C  C                      /   
 |       /       C                              /    
 |      /                                      /     
 |     /                                      /      
 |    /                                      /       
 |   /                                      /        
 |  /                                      /         
 | /                                      /          
 |/                                      /           
 *--------------------------------------*            

Positions:
   0 C      5.476498    8.663424    5.469577
   1 C      7.474550    9.855573    6.157935
   2 C      6.154021    9.880418    5.919194
   3 C      9.743989    8.378239    6.052891
   4 C      5.734965    6.061961    5.476717
   5 C      7.536920    7.523351    5.862838
   6 C      9.369287    6.023665    5.717151
   7 C      8.023810    6.192012    5.751022
   8 C      6.143599    7.460102    5.647753
   9 C     10.269665    7.170217    5.932189
  10 C      8.333084    8.728866    6.027784
  11 C      6.913151    5.270855    5.515602
  12 C      5.607596    3.415962    5.249252
  13 C      6.956709    3.831346    5.385978
  14 C      8.304040    3.323138    5.459763
  15 C     10.259485    4.900505    5.692558
  16 C      9.498199    3.715117    5.581164
  17 C     11.196176    5.913831    6.053422
  18 C      1.529536    9.385340    5.003415
  19 C     13.680479    9.010580    5.091573
  20 C     14.960211    9.196194    5.041715
  21 C      0.249663    9.336004    5.014442
  22 C     12.415870    8.803010    5.136421
  23 C      2.844032    9.369286    5.013262

Unit cell:
           periodic     x           y           z      points  spacing
  1. axis:    yes   16.000000    0.000000    0.000000    80     0.2000
  2. axis:    yes    0.000000   16.000000    0.000000    80     0.2000
  3. axis:    yes    0.000000    0.000000   10.000000    48     0.2083

Effective grid spacing dv^(1/3) = 0.2027

                     log10-error:    total        iterations:
           time      wfs    density  energy       fermi  poisson
iter:   1  11:42:38          +inf  -176.522726    3      6      
iter:   2  11:42:38         -0.88  -174.814298    3      3      
iter:   3  11:42:39         -0.92  -173.929071    32     3      
iter:   4  11:42:40         -0.98  -173.228993    3      2      
iter:   5  11:42:40         -1.02  -174.315656    34     4      
iter:   6  11:42:41         -1.10  -174.234381    32     3      
iter:   7  11:42:41         -1.16  -173.640135    3      3      
iter:   8  11:42:42         -1.36  -173.123153    4      2      
iter:   9  11:42:43         -1.39  -171.728571    31     3      
iter:  10  11:42:43         -1.57  -171.692286    4      2      
iter:  11  11:42:44         -1.61  -171.962161    4      3      
iter:  12  11:42:44         -1.47  -171.727788    3      3      
iter:  13  11:42:45         -1.72  -171.666819    3      3      
iter:  14  11:42:45         -1.87  -171.655465    4      2      
iter:  15  11:42:46         -1.97  -171.631824    5      2      
iter:  16  11:42:47         -2.27  -171.620203    4      2      
iter:  17  11:42:47         -2.47  -171.608604    3      2      
iter:  18  11:42:48         -2.59  -171.608853    3      2      
iter:  19  11:42:48         -2.76  -171.616014    3      1      
iter:  20  11:42:49         -2.84  -171.610182    3      2      
iter:  21  11:42:49         -3.09  -171.619152    3      1      
iter:  22  11:42:50         -3.21  -171.617061    3      1      
iter:  23  11:42:50         -3.28  -171.602070    3      1      
iter:  24  11:42:51         -3.53  -171.607581    2      1      
iter:  25  11:42:51         -3.68  -171.605597    3      1      
iter:  26  11:42:52         -3.91  -171.605983    2      1      
iter:  27  11:42:53         -4.01  -171.606729    2      1      

Converged after 27 iterations.

Dipole moment: (-15.923625, -0.129330, 0.195879) |e|*Ang

Energy contributions relative to reference atoms: (reference = -24663.074771)

Kinetic:        +99.034383
Potential:     -107.837602
External:        +0.000000
XC:            -165.526773
Entropy (-ST):   -0.497177
Local:           +2.971851
--------------------------
Free energy:   -171.855318
Extrapolated:  -171.606729

Fermi level: -4.82481

 Band  Eigenvalues  Occupancy
    0    -23.85430    2.00000
    1    -22.72226    2.00000
    2    -21.53170    2.00000
    3    -20.49565    2.00000
    4    -20.31330    2.00000
    5    -20.15108    2.00000
    6    -19.40508    2.00000
    7    -18.95443    2.00000
    8    -18.45163    2.00000
    9    -18.08094    2.00000
   10    -17.37989    2.00000
   11    -17.25451    2.00000
   12    -16.54498    2.00000
   13    -15.69246    2.00000
   14    -15.46239    2.00000
   15    -15.07075    2.00000
   16    -14.15551    2.00000
   17    -13.97379    2.00000
   18    -13.85647    2.00000
   19    -13.19459    2.00000
   20    -12.32133    2.00000
   21    -12.24154    2.00000
   22    -11.67900    2.00000
   23    -11.10905    2.00000
   24    -11.00446    2.00000
   25    -10.67163    2.00000
   26    -10.15147    2.00000
   27     -9.89681    2.00000
   28     -9.74853    2.00000
   29     -9.27097    2.00000
   30     -8.84560    2.00000
   31     -8.84345    2.00000
   32     -8.21248    2.00000
   33     -7.92443    2.00000
   34     -7.68597    2.00000
   35     -7.49297    2.00000
   36     -7.15890    2.00000
   37     -7.14659    2.00000
   38     -6.94336    2.00000
   39     -6.70830    2.00000
   40     -6.58068    2.00000
   41     -6.47766    2.00000
   42     -5.89196    1.99995
   43     -5.50392    1.99776
   44     -5.22674    1.96470
   45     -4.99665    1.69584
   46     -4.96150    1.59376
   47     -4.90355    1.37455
   48     -4.88458    1.29027
   49     -4.50204    0.07627
   50     -4.25498    0.00668
   51     -3.90812    0.00021
   52     -3.54416    0.00001
   53     -3.36264    0.00000
   54     -2.71195    0.00000
   55     -2.31274    0.00000
   56     -2.07503    0.00000
   57     -2.02752    0.00000
   58     -1.97071    0.00000
   59     -0.67776    0.00000
   60     -0.01069    0.00000
   61      0.26509    0.00000
   62      1.16920    0.00000
   63      1.64625    0.00000
   64      1.75426    0.00000
   65      2.58115    0.00000
   66      3.18360    0.00000
   67      3.74432    0.00000
   68      4.08029    0.00000
   69      4.18231    0.00000
   70      4.72737    0.00000
   71      5.13057    0.00000
   72      5.30870    0.00000
   73      5.39153    0.00000
   74      5.57306    0.00000
   75      5.79875    0.00000
   76      5.99146    0.00000
   77      6.31107    0.00000
   78      7.23560    0.00000
   79      7.67949    0.00000
   80      7.86214    0.00000
   81      8.30565    0.00000
   82      8.38113    0.00000
   83      8.73681    0.00000
   84      8.90897    0.00000
   85      8.91846    0.00000
   86      8.95041    0.00000
   87      9.10223    0.00000
   88      9.25615    0.00000
   89      9.32904    0.00000
   90      9.55670    0.00000
   91      9.60372    0.00000
   92      9.71548    0.00000
   93      9.83271    0.00000
   94      9.88591    0.00000
   95     10.01488    0.00000
   96     10.06416    0.00000
   97     10.16019    0.00000


Forces in eV/Ang:
  0 C     1.15484    4.83954    1.79636
  1 C    -2.88623   -0.58052   -1.33848
  2 C     1.42792   -3.23929   -0.62705
  3 C     0.14153   -0.13234    0.25327
  4 C     1.08250   -0.84967   -0.04018
  5 C     0.46209    0.64562    0.01996
  6 C    -0.03948    0.37724    0.15426
  7 C     0.20303   -0.59884   -0.19723
  8 C    -2.95685   -0.51551   -0.57545
  9 C    -0.41777   -0.53159    0.14295
 10 C     0.67087   -0.12348    0.28838
 11 C    -1.05011    1.74466    0.12440
 12 C     1.50420    0.23033    0.11989
 13 C    -1.18645   -1.08265   -0.15845
 14 C     0.47014    0.10296    0.00875
 15 C     0.14706   -0.02405    0.15026
 16 C    -0.06295   -0.16172   -0.00076
 17 C    -0.08578    0.20970   -0.30025
 18 C     4.42238   -0.12666    0.15484
 19 C    -0.51893    0.09039    0.10129
 20 C     2.92878    0.37592   -0.12401
 21 C    -3.89124   -0.23660   -0.02586
 22 C    -1.41279   -0.14191    0.00658
 23 C    -0.15976   -0.25531    0.05452

System changes: positions 

Initializing position-dependent things.

Density initialized from wave functions
           .--------------------------------------.  
          /|                                      |  
         / |                                      |  
        /  |                                      |  
       /   |                                      |  
      /    |                                      |  
     /     |                                      |  
    /      |                                      |  
   /       |             C                        |  
  /        |          C    C  C                   |  
 *     C   C  C     C   C      C     C  C  C      |  
 |         |         C  C   C   C                 |  
 |         .-------C-C-------C--------------------.  
 |        /         C  C  C                      /   
 |       /       C                              /    
 |      /                                      /     
 |     /                                      /      
 |    /                                      /       
 |   /                                      /        
 |  /                                      /         
 | /                                      /          
 |/                                      /           
 *--------------------------------------*            

Positions:
   0 C      5.485231    8.700020    5.483161
   1 C      7.452725    9.851183    6.147813
   2 C      6.164818    9.855924    5.914452
   3 C      9.745059    8.377238    6.054806
   4 C      5.743150    6.055536    5.476414
   5 C      7.540414    7.528233    5.862989
   6 C      9.368988    6.026517    5.718317
   7 C      8.025346    6.187484    5.749531
   8 C      6.121240    7.456204    5.643402
   9 C     10.266506    7.166198    5.933270
  10 C      8.338157    8.727932    6.029965
  11 C      6.905210    5.284047    5.516543
  12 C      5.618970    3.417704    5.250159
  13 C      6.947737    3.823159    5.384779
  14 C      8.307595    3.323916    5.459830
  15 C     10.260597    4.900323    5.693695
  16 C      9.497723    3.713894    5.581159
  17 C     11.195527    5.915417    6.051151
  18 C      1.562977    9.384382    5.004586
  19 C     13.676555    9.011263    5.092339
  20 C     14.982358    9.199037    5.040777
  21 C      0.220239    9.334215    5.014247
  22 C     12.405187    8.801937    5.136471
  23 C      2.842823    9.367356    5.013674

Unit cell:
           periodic     x           y           z      points  spacing
  1. axis:    yes   16.000000    0.000000    0.000000    80     0.2000
  2. axis:    yes    0.000000   16.000000    0.000000    80     0.2000
  3. axis:    yes    0.000000    0.000000   10.000000    48     0.2083

Effective grid spacing dv^(1/3) = 0.2027

                     log10-error:    total        iterations:
           time      wfs    density  energy       fermi  poisson
iter:   1  11:42:54          +inf  -172.740285    4      5      
iter:   2  11:42:55         -1.52  -172.380505    4      2      
iter:   3  11:42:55         -1.79  -172.261744    3      2      
iter:   4  11:42:56         -1.99  -172.177076    4      2      
iter:   5  11:42:57         -2.24  -172.171409    3      1      
iter:   6  11:42:57         -2.31  -172.165518    3      2      
iter:   7  11:42:58         -2.51  -172.164149    3      2      
iter:   8  11:42:58         -2.66  -172.164006    3      2      
iter:   9  11:42:59         -2.79  -172.163131    3      2      
iter:  10  11:42:59         -3.08  -172.161644    2      1      
iter:  11  11:43:00         -3.22  -172.162989    2      1      
iter:  12  11:43:00         -3.29  -172.161496    2      1      
iter:  13  11:43:01         -3.48  -172.162589    2      1      
iter:  14  11:43:01         -3.57  -172.164169    2      1      
iter:  15  11:43:02         -3.71  -172.163230    2      1      
iter:  16  11:43:03         -3.83  -172.162636    2      1      
iter:  17  11:43:03         -4.01  -172.164147    2      1      

Converged after 17 iterations.

Dipole moment: (-16.672929, -0.154173, 0.225454) |e|*Ang

Energy contributions relative to reference atoms: (reference = -24663.074771)

Kinetic:       +100.248361
Potential:     -108.754136
External:        +0.000000
XC:            -166.371579
Entropy (-ST):   -0.483471
Local:           +2.954944
--------------------------
Free energy:   -172.405882
Extrapolated:  -172.164147

Fermi level: -4.89714

 Band  Eigenvalues  Occupancy
    0    -23.92030    2.00000
    1    -22.76681    2.00000
    2    -21.62421    2.00000
    3    -20.68243    2.00000
    4    -20.34374    2.00000
    5    -20.02927    2.00000
    6    -19.49150    2.00000
    7    -18.66618    2.00000
    8    -18.51731    2.00000
    9    -18.23465    2.00000
   10    -17.45904    2.00000
   11    -17.38853    2.00000
   12    -16.59922    2.00000
   13    -15.52107    2.00000
   14    -15.39249    2.00000
   15    -15.18106    2.00000
   16    -14.28742    2.00000
   17    -13.91250    2.00000
   18    -13.80083    2.00000
   19    -13.26239    2.00000
   20    -12.46320    2.00000
   21    -12.27786    2.00000
   22    -11.77194    2.00000
   23    -11.16182    2.00000
   24    -11.02782    2.00000
   25    -10.74317    2.00000
   26    -10.20544    2.00000
   27     -9.94361    2.00000
   28     -9.89255    2.00000
   29     -9.32206    2.00000
   30     -8.72098    2.00000
   31     -8.71811    2.00000
   32     -8.35700    2.00000
   33     -8.01051    2.00000
   34     -7.84227    2.00000
   35     -7.50726    2.00000
   36     -7.03557    2.00000
   37     -6.94726    2.00000
   38     -6.92452    2.00000
   39     -6.76251    2.00000
   40     -6.57274    2.00000
   41     -6.53933    2.00000
   42     -5.93910    1.99994
   43     -5.57428    1.99771
   44     -5.27727    1.95629
   45     -5.08311    1.73052
   46     -5.02626    1.56870
   47     -4.98171    1.39934
   48     -4.95769    1.29381
   49     -4.53663    0.05293
   50     -4.09971    0.00069
   51     -3.88849    0.00008
   52     -3.57426    0.00000
   53     -3.38888    0.00000
   54     -2.77879    0.00000
   55     -2.30750    0.00000
   56     -1.98322    0.00000
   57     -1.69102    0.00000
   58     -1.66804    0.00000
   59     -0.63596    0.00000
   60      0.07276    0.00000
   61      0.15154    0.00000
   62      1.14483    0.00000
   63      1.66802    0.00000
   64      1.76777    0.00000
   65      2.64436    0.00000
   66      3.16179    0.00000
   67      3.68340    0.00000
   68      4.02628    0.00000
   69      4.13379    0.00000
   70      4.73780    0.00000
   71      5.19780    0.00000
   72      5.34202    0.00000
   73      5.37923    0.00000
   74      5.48813    0.00000
   75      5.78784    0.00000
   76      6.00009    0.00000
   77      6.28543    0.00000
   78      7.33082    0.00000
   79      7.43428    0.00000
   80      7.73149    0.00000
   81      8.21012    0.00000
   82      8.33503    0.00000
   83      8.70442    0.00000
   84      8.79767    0.00000
   85      8.88877    0.00000
   86      8.96007    0.00000
   87      9.15455    0.00000
   88      9.25487    0.00000
   89      9.46611    0.00000
   90      9.52578    0.00000
   91      9.58326    0.00000
   92      9.72666    0.00000
   93      9.86019    0.00000
   94      9.88429    0.00000
   95     10.08703    0.00000
   96     10.14816    0.00000
   97     10.18892    0.00000


Forces in eV/Ang:
  0 C     0.60165    2.69261    1.41225
  1 C    -0.74022   -0.80276   -0.95835
  2 C     0.31790   -1.92622   -0.56719
  3 C     0.26341   -0.09610    0.22873
  4 C     0.41606   -0.22921   -0.06355
  5 C    -0.33826    0.28755   -0.13955
  6 C     0.01908    0.08216    0.15116
  7 C    -0.06452   -0.06171   -0.14194
  8 C    -2.08821    0.28350   -0.46519
  9 C    -0.32404   -0.35062    0.15406
 10 C     0.25184    0.17247    0.24641
 11 C    -0.66482    0.51471    0.03523
 12 C     1.00713    0.07622    0.06822
 13 C    -0.29131   -0.58972   -0.01569
 14 C    -0.08552    0.09347   -0.04162
 15 C     0.10677   -0.01681    0.12160
 16 C     0.23543   -0.01183    0.03345
 17 C    -0.09466    0.15835   -0.29044
 18 C    -0.37690   -0.13494    0.15055
 19 C    -0.29452    0.11753    0.09123
 20 C    -1.43662   -0.16388   -0.00589
 21 C     2.65886    0.22238   -0.10844
 22 C    -0.58624    0.01182    0.00279
 23 C     1.41082   -0.36688    0.11837

System changes: positions 

Initializing position-dependent things.

Density initialized from wave functions
           .--------------------------------------.  
          /|                                      |  
         / |                                      |  
        /  |                                      |  
       /   |                                      |  
      /    |                                      |  
     /     |                                      |  
    /      |                                      |  
   /       |             C                        |  
  /        |          C    C  C                   |  
 *     C   C  C     C   C     C      C  C  C      |  
 |         |         C  C   C   C                 |  
 |         .-------C-C-------C--------------------.  
 |        /         C  C  C                      /   
 |       /       C                              /    
 |      /                                      /     
 |     /                                      /      
 |    /                                      /       
 |   /                                      /        
 |  /                                      /         
 | /                                      /          
 |/                                      /           
 *--------------------------------------*            

Positions:
   0 C      5.493282    8.735348    5.500105
   1 C      7.439689    9.842493    6.136060
   2 C      6.170819    9.831127    5.907849
   3 C      9.747806    8.376064    6.057470
   4 C      5.749324    6.051593    5.475738
   5 C      7.538263    7.532281    5.861737
   6 C      9.369081    6.028086    5.720050
   7 C      8.025181    6.185632    5.747792
   8 C      6.095544    7.457733    5.637855
   9 C     10.262606    7.161808    5.935005
  10 C      8.341927    8.729269    6.032868
  11 C      6.896797    5.292552    5.517135
  12 C      5.631531    3.418903    5.251048
  13 C      6.942499    3.815373    5.384295
  14 C      8.307806    3.325004    5.459462
  15 C     10.261902    4.900115    5.695144
  16 C      9.499774    3.713439    5.581467
  17 C     11.194465    5.917335    6.047815
  18 C      1.568929    9.382859    5.006314
  19 C     13.672713    9.012547    5.093402
  20 C     14.975284    9.198319    5.040458
  21 C      0.236599    9.335773    5.013185
  22 C     12.396728    8.801743    5.136511
  23 C      2.855575    9.363406    5.014889

Unit cell:
           periodic     x           y           z      points  spacing
  1. axis:    yes   16.000000    0.000000    0.000000    80     0.2000
  2. axis:    yes    0.000000   16.000000    0.000000    80     0.2000
  3. axis:    yes    0.000000    0.000000   10.000000    48     0.2083

Effective grid spacing dv^(1/3) = 0.2027

                     log10-error:    total        iterations:
           time      wfs    density  energy       fermi  poisson
iter:   1  11:43:05          +inf  -172.709512    3      5      
iter:   2  11:43:05         -1.68  -172.557358    3      2      
iter:   3  11:43:06         -1.85  -172.478573    3      2      
iter:   4  11:43:07         -2.16  -172.422913    4      2      
iter:   5  11:43:07         -2.35  -172.419804    2      1      
iter:   6  11:43:08         -2.47  -172.415464    3      2      
iter:   7  11:43:08         -2.64  -172.415892    3      2      
iter:   8  11:43:09         -2.80  -172.414313    3      1      
iter:   9  11:43:09         -2.87  -172.414134    3      2      
iter:  10  11:43:10         -3.15  -172.413096    2      1      
iter:  11  11:43:10         -3.33  -172.414398    2      1      
iter:  12  11:43:11         -3.46  -172.414507    2      1      
iter:  13  11:43:11         -3.58  -172.414334    2      1      
iter:  14  11:43:12         -3.71  -172.414445    2      1      
iter:  15  11:43:12         -3.83  -172.415014    2      1      
iter:  16  11:43:13         -4.03  -172.414987    2      1      

Converged after 16 iterations.

Dipole moment: (-16.331347, -0.104332, 0.224407) |e|*Ang

Energy contributions relative to reference atoms: (reference = -24663.074771)

Kinetic:       +101.947251
Potential:     -110.123751
External:        +0.000000
XC:            -166.967060
Entropy (-ST):   -0.474208
Local:           +2.965678
--------------------------
Free energy:   -172.652091
Extrapolated:  -172.414987

Fermi level: -4.87109

 Band  Eigenvalues  Occupancy
    0    -23.90696    2.00000
    1    -22.74569    2.00000
    2    -21.66248    2.00000
    3    -20.77169    2.00000
    4    -20.30321    2.00000
    5    -20.00316    2.00000
    6    -19.49516    2.00000
    7    -18.71571    2.00000
    8    -18.48392    2.00000
    9    -18.30192    2.00000
   10    -17.42934    2.00000
   11    -17.39213    2.00000
   12    -16.58817    2.00000
   13    -15.52677    2.00000
   14    -15.45069    2.00000
   15    -15.19811    2.00000
   16    -14.33717    2.00000
   17    -13.89480    2.00000
   18    -13.81027    2.00000
   19    -13.24166    2.00000
   20    -12.54993    2.00000
   21    -12.20888    2.00000
   22    -11.76689    2.00000
   23    -11.13525    2.00000
   24    -10.96647    2.00000
   25    -10.73731    2.00000
   26    -10.22639    2.00000
   27     -9.94068    2.00000
   28     -9.91682    2.00000
   29     -9.30893    2.00000
   30     -8.70541    2.00000
   31     -8.70231    2.00000
   32     -8.42069    2.00000
   33     -8.07713    2.00000
   34     -7.88950    2.00000
   35     -7.45429    2.00000
   36     -7.04327    2.00000
   37     -6.98531    2.00000
   38     -6.96650    2.00000
   39     -6.74501    2.00000
   40     -6.59371    2.00000
   41     -6.50745    2.00000
   42     -5.94703    1.99996
   43     -5.57190    1.99819
   44     -5.26499    1.96180
   45     -5.08141    1.78243
   46     -5.00164    1.57349
   47     -4.94822    1.36757
   48     -4.92492    1.26282
   49     -4.51155    0.05343
   50     -3.98472    0.00028
   51     -3.70151    0.00002
   52     -3.52197    0.00000
   53     -3.33943    0.00000
   54     -2.76863    0.00000
   55     -2.27066    0.00000
   56     -1.90964    0.00000
   57     -1.80227    0.00000
   58     -1.76199    0.00000
   59     -0.52208    0.00000
   60      0.12650    0.00000
   61      0.21078    0.00000
   62      1.17857    0.00000
   63      1.63268    0.00000
   64      1.74572    0.00000
   65      2.79687    0.00000
   66      3.21651    0.00000
   67      3.70122    0.00000
   68      4.04594    0.00000
   69      4.16496    0.00000
   70      4.59437    0.00000
   71      5.06859    0.00000
   72      5.32485    0.00000
   73      5.37373    0.00000
   74      5.45093    0.00000
   75      5.65682    0.00000
   76      6.04576    0.00000
   77      6.33766    0.00000
   78      7.42948    0.00000
   79      7.54921    0.00000
   80      7.75304    0.00000
   81      8.19473    0.00000
   82      8.36988    0.00000
   83      8.69857    0.00000
   84      8.77118    0.00000
   85      8.91114    0.00000
   86      8.97266    0.00000
   87      9.21270    0.00000
   88      9.30072    0.00000
   89      9.41480    0.00000
   90      9.47078    0.00000
   91      9.59328    0.00000
   92      9.77979    0.00000
   93      9.86455    0.00000
   94      9.87967    0.00000
   95     10.10129    0.00000
   96     10.11989    0.00000
   97     10.21593    0.00000


Forces in eV/Ang:
  0 C    -0.24784    0.19437    0.82882
  1 C     0.88612   -0.70860   -0.58234
  2 C    -0.10019   -0.17592   -0.26467
  3 C     0.22844   -0.07379    0.21484
  4 C    -0.21633    0.31638   -0.10085
  5 C    -0.87510    0.03650   -0.24746
  6 C    -0.10768   -0.15319    0.13491
  7 C    -0.25646    0.23750   -0.11301
  8 C    -1.19254    0.76295   -0.35674
  9 C    -0.25082   -0.13104    0.19572
 10 C    -0.01187    0.19741    0.17079
 11 C    -0.22025   -0.25003   -0.02305
 12 C     0.48755   -0.05197    0.02638
 13 C     0.39938   -0.23033    0.08299
 14 C    -0.02931    0.16334   -0.03228
 15 C     0.06378    0.01497    0.10415
 16 C     0.07811   -0.04070    0.01871
 17 C    -0.04346    0.13876   -0.27921
 18 C     0.25203   -0.11082    0.15312
 19 C    -0.45690    0.09217    0.10336
 20 C     0.31716    0.03640   -0.05203
 21 C     0.54142    0.00843   -0.07747
 22 C    -0.39520    0.03690   -0.00895
 23 C     1.09748   -0.32081    0.10312

System changes: positions 

Initializing position-dependent things.

Density initialized from wave functions
           .--------------------------------------.  
          /|                                      |  
         / |                                      |  
        /  |                                      |  
       /   |                                      |  
      /    |                                      |  
     /     |                                      |  
    /      |                                      |  
   /       |                                      |  
  /        |          C  C C  C                   |  
 *     C   C  C     C   C     C      C  C  C      |  
 |         |        C   C   C   C                 |  
 |         .-------C-C-------C--------------------.  
 |        /         C  C  C                      /   
 |       /       C                              /    
 |      /                                      /     
 |     /                                      /      
 |    /                                      /       
 |   /                                      /        
 |  /                                      /         
 | /                                      /          
 |/                                      /           
 *--------------------------------------*            

Positions:
   0 C      5.491863    8.753558    5.522336
   1 C      7.449990    9.826074    6.120373
   2 C      6.172149    9.817793    5.900408
   3 C      9.753026    8.374197    6.062557
   4 C      5.747991    6.055673    5.473585
   5 C      7.521501    7.534763    5.856704
   6 C      9.366971    6.025987    5.723252
   7 C      8.020464    6.188998    5.744954
   8 C      6.062762    7.472118    5.628946
   9 C     10.256325    7.157575    5.939366
  10 C      8.343447    8.733217    6.037207
  11 C      6.889239    5.291979    5.516991
  12 C      5.645792    3.418479    5.251918
  13 C      6.947438    3.807720    5.385576
  14 C      8.307914    3.328540    5.458767
  15 C     10.263624    4.900325    5.697683
  16 C      9.501663    3.712335    5.581897
  17 C     11.193271    5.920727    6.041269
  18 C      1.581030    9.380206    5.009867
  19 C     13.662333    9.014738    5.095773
  20 C     14.983699    9.199359    5.039216
  21 C      0.245580    9.335974    5.011415
  22 C     12.385300    8.802223    5.136356
  23 C      2.879435    9.355978    5.017227

Unit cell:
           periodic     x           y           z      points  spacing
  1. axis:    yes   16.000000    0.000000    0.000000    80     0.2000
  2. axis:    yes    0.000000   16.000000    0.000000    80     0.2000
  3. axis:    yes    0.000000    0.000000   10.000000    48     0.2083

Effective grid spacing dv^(1/3) = 0.2027

                     log10-error:    total        iterations:
           time      wfs    density  energy       fermi  poisson
iter:   1  11:43:15          +inf  -172.899247    2      5      
iter:   2  11:43:15         -1.63  -172.650114    3      2      
iter:   3  11:43:16         -1.91  -172.582668    2      2      
iter:   4  11:43:16         -2.20  -172.553756    4      2      
iter:   5  11:43:17         -2.48  -172.552187    3      1      
iter:   6  11:43:18         -2.56  -172.550507    3      2      
iter:   7  11:43:18         -2.76  -172.550382    3      2      
iter:   8  11:43:19         -2.87  -172.549423    3      1      
iter:   9  11:43:19         -3.03  -172.550046    2      2      
iter:  10  11:43:20         -3.23  -172.550054    2      1      
iter:  11  11:43:20         -3.33  -172.549650    2      1      
iter:  12  11:43:21         -3.48  -172.549186    3      1      
iter:  13  11:43:21         -3.64  -172.549949    2      1      
iter:  14  11:43:22         -3.79  -172.549899    2      1      
iter:  15  11:43:23         -3.86  -172.549496    2      1      
iter:  16  11:43:23         -4.07  -172.549843    2      1      

Converged after 16 iterations.

Dipole moment: (-16.094115, -0.123452, 0.226538) |e|*Ang

Energy contributions relative to reference atoms: (reference = -24663.074771)

Kinetic:       +101.030209
Potential:     -109.368275
External:        +0.000000
XC:            -166.932866
Entropy (-ST):   -0.467045
Local:           +2.954612
--------------------------
Free energy:   -172.783365
Extrapolated:  -172.549843

Fermi level: -4.85852

 Band  Eigenvalues  Occupancy
    0    -23.91589    2.00000
    1    -22.76014    2.00000
    2    -21.71242    2.00000
    3    -20.81423    2.00000
    4    -20.33139    2.00000
    5    -19.93242    2.00000
    6    -19.51941    2.00000
    7    -18.62187    2.00000
    8    -18.48960    2.00000
    9    -18.39100    2.00000
   10    -17.41288    2.00000
   11    -17.34957    2.00000
   12    -16.61247    2.00000
   13    -15.53553    2.00000
   14    -15.37872    2.00000
   15    -15.26489    2.00000
   16    -14.38048    2.00000
   17    -13.91404    2.00000
   18    -13.74215    2.00000
   19    -13.25870    2.00000
   20    -12.64030    2.00000
   21    -12.19413    2.00000
   22    -11.77487    2.00000
   23    -11.13704    2.00000
   24    -10.93869    2.00000
   25    -10.81725    2.00000
   26    -10.28832    2.00000
   27     -9.99114    2.00000
   28     -9.95140    2.00000
   29     -9.33686    2.00000
   30     -8.63785    2.00000
   31     -8.63477    2.00000
   32     -8.45006    2.00000
   33     -8.10863    2.00000
   34     -7.93559    2.00000
   35     -7.45899    2.00000
   36     -7.05503    2.00000
   37     -6.92191    2.00000
   38     -6.90053    2.00000
   39     -6.74948    2.00000
   40     -6.59704    2.00000
   41     -6.49809    2.00000
   42     -5.94910    1.99996
   43     -5.60199    1.99882
   44     -5.26632    1.96668
   45     -5.08229    1.80716
   46     -4.99063    1.57874
   47     -4.93463    1.36316
   48     -4.90602    1.23314
   49     -4.49639    0.05210
   50     -3.95244    0.00023
   51     -3.58631    0.00001
   52     -3.49490    0.00000
   53     -3.33215    0.00000
   54     -2.77859    0.00000
   55     -2.27596    0.00000
   56     -1.90394    0.00000
   57     -1.78673    0.00000
   58     -1.74616    0.00000
   59     -0.47106    0.00000
   60      0.12048    0.00000
   61      0.23460    0.00000
   62      1.18088    0.00000
   63      1.57120    0.00000
   64      1.70341    0.00000
   65      2.88898    0.00000
   66      3.23887    0.00000
   67      3.70148    0.00000
   68      4.01498    0.00000
   69      4.18341    0.00000
   70      4.46175    0.00000
   71      4.96155    0.00000
   72      5.15150    0.00000
   73      5.34300    0.00000
   74      5.43698    0.00000
   75      5.53772    0.00000
   76      6.09648    0.00000
   77      6.40855    0.00000
   78      7.27764    0.00000
   79      7.57789    0.00000
   80      7.72637    0.00000
   81      8.22770    0.00000
   82      8.43268    0.00000
   83      8.65695    0.00000
   84      8.77075    0.00000
   85      8.90833    0.00000
   86      8.96552    0.00000
   87      9.19169    0.00000
   88      9.37303    0.00000
   89      9.41510    0.00000
   90      9.46941    0.00000
   91      9.58740    0.00000
   92      9.80472    0.00000
   93      9.83521    0.00000
   94      9.89499    0.00000
   95     10.10526    0.00000
   96     10.14557    0.00000
   97     10.21440    0.00000


Forces in eV/Ang:
  0 C    -1.13602   -0.76156    0.32485
  1 C     0.29245   -0.11179   -0.46729
  2 C     0.88553    1.10379    0.18685
  3 C     0.03712    0.03670    0.16587
  4 C    -0.36507    0.39662   -0.12005
  5 C    -0.87414   -0.00063   -0.27324
  6 C    -0.37732   -0.18895    0.14193
  7 C    -0.42288    0.20788   -0.13947
  8 C    -0.15069    0.22977   -0.15551
  9 C    -0.12044   -0.09172    0.21683
 10 C     0.13496   -0.37975    0.01477
 11 C    -0.15443   -0.15362   -0.02720
 12 C     0.15787   -0.17991   -0.02225
 13 C     0.48303   -0.02833    0.09160
 14 C     0.26076    0.12035   -0.00193
 15 C    -0.05427   -0.00587    0.08167
 16 C     0.02592   -0.03300    0.00769
 17 C     0.06517    0.13922   -0.25314
 18 C     0.85496   -0.12822    0.16980
 19 C     0.43046    0.20135    0.07566
 20 C    -0.59900   -0.09084   -0.00410
 21 C     0.60572   -0.01108   -0.06114
 22 C    -0.24590    0.07593   -0.01624
 23 C     0.31690   -0.30525    0.10224

System changes: positions 

Initializing position-dependent things.

Density initialized from wave functions
           .--------------------------------------.  
          /|                                      |  
         / |                                      |  
        /  |                                      |  
       /   |                                      |  
      /    |                                      |  
     /     |                                      |  
    /      |                                      |  
   /       |                                      |  
  /        |          C  C C  C                   |  
 *     C   C  C     C   C     C      C  C  C      |  
 |         |        C   C   C   C                 |  
 |         .-------C-C-------C--------------------.  
 |        /         C  C  C                      /   
 |       /       C                              /    
 |      /                                      /     
 |     /                                      /      
 |    /                                      /       
 |   /                                      /        
 |  /                                      /         
 | /                                      /          
 |/                                      /           
 *--------------------------------------*            

Positions:
   0 C      5.472000    8.763084    5.549961
   1 C      7.459493    9.809144    6.096498
   2 C      6.191391    9.821194    5.896416
   3 C      9.758400    8.373095    6.070258
   4 C      5.741973    6.064976    5.469531
   5 C      7.492109    7.537832    5.847501
   6 C      9.358356    6.021366    5.728788
   7 C      8.009081    6.194765    5.739721
   8 C      6.027677    7.487691    5.617700
   9 C     10.248190    7.151456    5.947196
  10 C      8.348201    8.729539    6.041603
  11 C      6.878323    5.291298    5.516560
  12 C      5.663109    3.415202    5.252432
  13 C      6.958560    3.799089    5.388086
  14 C      8.313182    3.333820    5.458130
  15 C     10.264319    4.900339    5.701542
  16 C      9.503884    3.710647    5.582426
  17 C     11.193286    5.926437    6.030670
  18 C      1.610856    9.375415    5.016195
  19 C     13.660886    9.020430    5.099293
  20 C     14.980990    9.198750    5.037995
  21 C      0.262893    9.335949    5.008706
  22 C     12.369289    8.803853    5.135945
  23 C      2.906049    9.343670    5.021190

Unit cell:
           periodic     x           y           z      points  spacing
  1. axis:    yes   16.000000    0.000000    0.000000    80     0.2000
  2. axis:    yes    0.000000   16.000000    0.000000    80     0.2000
  3. axis:    yes    0.000000    0.000000   10.000000    48     0.2083

Effective grid spacing dv^(1/3) = 0.2027

                     log10-error:    total        iterations:
           time      wfs    density  energy       fermi  poisson
iter:   1  11:43:25          +inf  -173.057915    3      5      
iter:   2  11:43:25         -1.64  -172.777447    4      2      
iter:   3  11:43:26         -1.93  -172.723751    3      2      
iter:   4  11:43:26         -2.19  -172.700705    4      2      
iter:   5  11:43:27         -2.48  -172.698359    3      1      
iter:   6  11:43:28         -2.54  -172.695899    3      2      
iter:   7  11:43:28         -2.70  -172.696707    3      2      
iter:   8  11:43:29         -2.77  -172.695183    3      2      
iter:   9  11:43:29         -3.04  -172.695915    2      1      
iter:  10  11:43:30         -3.16  -172.696083    2      1      
iter:  11  11:43:30         -3.41  -172.694559    2      1      
iter:  12  11:43:31         -3.55  -172.694541    2      1      
iter:  13  11:43:31         -3.67  -172.694527    2      1      
iter:  14  11:43:32         -3.79  -172.694531    2      1      
iter:  15  11:43:32         -3.87  -172.694436    2      1      
iter:  16  11:43:33         -3.93  -172.694186    2      1      
iter:  17  11:43:33         -4.08  -172.694033    2      1      

Converged after 17 iterations.

Dipole moment: (-15.648446, -0.133035, 0.224932) |e|*Ang

Energy contributions relative to reference atoms: (reference = -24663.074771)

Kinetic:        +98.111780
Potential:     -107.067481
External:        +0.000000
XC:            -166.466343
Entropy (-ST):   -0.446150
Local:           +2.951086
--------------------------
Free energy:   -172.917108
Extrapolated:  -172.694033

Fermi level: -4.83513

 Band  Eigenvalues  Occupancy
    0    -23.87407    2.00000
    1    -22.75988    2.00000
    2    -21.72767    2.00000
    3    -20.80157    2.00000
    4    -20.35955    2.00000
    5    -19.83770    2.00000
    6    -19.52335    2.00000
    7    -18.59817    2.00000
    8    -18.54625    2.00000
    9    -18.36636    2.00000
   10    -17.40780    2.00000
   11    -17.28744    2.00000
   12    -16.61749    2.00000
   13    -15.54324    2.00000
   14    -15.36055    2.00000
   15    -15.28258    2.00000
   16    -14.39347    2.00000
   17    -13.92664    2.00000
   18    -13.68118    2.00000
   19    -13.24769    2.00000
   20    -12.67043    2.00000
   21    -12.18565    2.00000
   22    -11.74914    2.00000
   23    -11.12023    2.00000
   24    -10.94486    2.00000
   25    -10.84661    2.00000
   26    -10.34045    2.00000
   27    -10.01118    2.00000
   28     -9.95564    2.00000
   29     -9.35173    2.00000
   30     -8.55980    2.00000
   31     -8.55652    2.00000
   32     -8.45372    2.00000
   33     -8.10104    2.00000
   34     -7.96179    2.00000
   35     -7.46841    2.00000
   36     -7.04152    2.00000
   37     -6.91866    2.00000
   38     -6.89448    2.00000
   39     -6.75058    2.00000
   40     -6.65572    2.00000
   41     -6.52225    2.00000
   42     -5.98326    1.99998
   43     -5.58613    1.99891
   44     -5.27366    1.97539
   45     -5.07920    1.83975
   46     -4.97441    1.60206
   47     -4.91148    1.36422
   48     -4.87330    1.18855
   49     -4.41957    0.03087
   50     -3.94129    0.00026
   51     -3.54481    0.00000
   52     -3.41705    0.00000
   53     -3.31597    0.00000
   54     -2.77713    0.00000
   55     -2.24909    0.00000
   56     -1.93525    0.00000
   57     -1.85535    0.00000
   58     -1.79323    0.00000
   59     -0.45091    0.00000
   60      0.19011    0.00000
   61      0.26777    0.00000
   62      1.19953    0.00000
   63      1.50292    0.00000
   64      1.66213    0.00000
   65      2.96773    0.00000
   66      3.28208    0.00000
   67      3.73248    0.00000
   68      3.92889    0.00000
   69      4.17879    0.00000
   70      4.27846    0.00000
   71      4.77078    0.00000
   72      4.93607    0.00000
   73      5.18850    0.00000
   74      5.38711    0.00000
   75      5.52819    0.00000
   76      6.15452    0.00000
   77      6.50179    0.00000
   78      7.19490    0.00000
   79      7.48926    0.00000
   80      7.72536    0.00000
   81      8.25627    0.00000
   82      8.48213    0.00000
   83      8.62073    0.00000
   84      8.78538    0.00000
   85      8.91760    0.00000
   86      8.97564    0.00000
   87      9.17704    0.00000
   88      9.36194    0.00000
   89      9.38734    0.00000
   90      9.46668    0.00000
   91      9.58280    0.00000
   92      9.79193    0.00000
   93      9.80412    0.00000
   94      9.91208    0.00000
   95     10.13003    0.00000
   96     10.15371    0.00000
   97     10.22076    0.00000


Forces in eV/Ang:
  0 C    -1.36635   -0.14647    0.18274
  1 C     0.55990    0.29374   -0.23893
  2 C     0.07599    0.99933    0.01963
  3 C    -0.07429   -0.00276    0.12433
  4 C    -0.42384    0.21498   -0.16506
  5 C    -0.26930    0.03651   -0.17950
  6 C    -0.52072   -0.08455    0.17052
  7 C    -0.50611    0.14294   -0.13824
  8 C     0.57008   -0.24817    0.04038
  9 C    -0.09542   -0.05623    0.21943
 10 C     0.06087   -0.85312   -0.15333
 11 C    -0.26805    0.03038   -0.05250
 12 C    -0.02450   -0.24735   -0.03415
 13 C     0.30081    0.12756    0.06860
 14 C     0.19960   -0.06861   -0.00282
 15 C    -0.15040    0.07529    0.07504
 16 C     0.36849    0.09577    0.03335
 17 C     0.08019    0.07717   -0.24303
 18 C     0.14495   -0.16675    0.17597
 19 C    -0.38509    0.05581    0.10344
 20 C     0.83463    0.07027   -0.03908
 21 C    -0.15054   -0.12787   -0.01521
 22 C     0.58262    0.20249   -0.06407
 23 C     0.47519   -0.31682    0.13098

System changes: positions 

Initializing position-dependent things.

Density initialized from wave functions
           .--------------------------------------.  
          /|                                      |  
         / |                                      |  
        /  |                                      |  
       /   |                                      |  
      /    |                                      |  
     /     |                                      |  
    /      |                                      |  
   /       |                                      |  
  /        |          C  C C  C                   |  
 *      C  C  C     C   C     C      C  C  C      |  
 |         |        C   C   C   C                 |  
 |         .-------C-C-------C--------------------.  
 |        /         C  C   C                     /   
 |       /       C                              /    
 |      /                                      /     
 |     /                                      /      
 |    /                                      /       
 |   /                                      /        
 |  /                                      /         
 | /                                      /          
 |/                                      /           
 *--------------------------------------*            

Positions:
   0 C      5.443066    8.775128    5.574816
   1 C      7.472487    9.799131    6.075001
   2 C      6.204521    9.830563    5.892048
   3 C      9.761847    8.371927    6.077664
   4 C      5.733452    6.073387    5.464487
   5 C      7.468208    7.541111    5.838687
   6 C      9.346024    6.017413    5.735108
   7 C      7.994800    6.200387    5.734082
   8 C      6.005604    7.496111    5.609380
   9 C     10.240535    7.145762    5.955694
  10 C      8.352566    8.716812    6.043260
  11 C      6.865809    5.292389    5.515657
  12 C      5.677133    3.410062    5.252548
  13 C      6.969167    3.793370    5.390623
  14 C      8.318839    3.336698    5.457535
  15 C     10.263178    4.901364    5.705439
  16 C      9.510890    3.710749    5.583314
  17 C     11.194001    5.931646    6.019628
  18 C      1.631793    9.369697    5.023103
  19 C     13.652573    9.025059    5.103290
  20 C     14.989687    9.199249    5.036537
  21 C      0.276858    9.334629    5.006444
  22 C     12.364823    8.807618    5.134822
  23 C      2.934309    9.330362    5.025855

Unit cell:
           periodic     x           y           z      points  spacing
  1. axis:    yes   16.000000    0.000000    0.000000    80     0.2000
  2. axis:    yes    0.000000   16.000000    0.000000    80     0.2000
  3. axis:    yes    0.000000    0.000000   10.000000    48     0.2083

Effective grid spacing dv^(1/3) = 0.2027

                     log10-error:    total        iterations:
           time      wfs    density  energy       fermi  poisson
iter:   1  11:43:35          +inf  -172.994902    3      5      
iter:   2  11:43:36         -1.75  -172.850509    3      2      
iter:   3  11:43:36         -2.05  -172.820661    2      2      
iter:   4  11:43:37         -2.33  -172.813027    3      2      
iter:   5  11:43:38         -2.59  -172.810304    3      2      
iter:   6  11:43:38         -2.69  -172.811702    2      1      
iter:   7  11:43:39         -2.78  -172.809529    2      2      
iter:   8  11:43:39         -3.06  -172.809963    2      1      
iter:   9  11:43:40         -3.19  -172.809922    2      1      
iter:  10  11:43:40         -3.31  -172.809866    2      1      
iter:  11  11:43:41         -3.49  -172.808669    1      1      
iter:  12  11:43:41         -3.60  -172.808140    2      1      
iter:  13  11:43:42         -3.73  -172.808515    2      1      
iter:  14  11:43:42         -3.83  -172.808407    2      1      
iter:  15  11:43:43         -3.95  -172.808120    2      1      
iter:  16  11:43:43         -4.08  -172.808374    2      1      

Converged after 16 iterations.

Dipole moment: (-15.211813, -0.161195, 0.226042) |e|*Ang

Energy contributions relative to reference atoms: (reference = -24663.074771)

Kinetic:        +93.735959
Potential:     -103.604083
External:        +0.000000
XC:            -165.648706
Entropy (-ST):   -0.435287
Local:           +2.926100
--------------------------
Free energy:   -173.026018
Extrapolated:  -172.808374

Fermi level: -4.83788

 Band  Eigenvalues  Occupancy
    0    -23.83311    2.00000
    1    -22.74568    2.00000
    2    -21.72705    2.00000
    3    -20.78295    2.00000
    4    -20.38551    2.00000
    5    -19.75429    2.00000
    6    -19.53263    2.00000
    7    -18.56004    2.00000
    8    -18.53125    2.00000
    9    -18.34395    2.00000
   10    -17.40995    2.00000
   11    -17.25980    2.00000
   12    -16.63353    2.00000
   13    -15.54920    2.00000
   14    -15.31143    2.00000
   15    -15.27445    2.00000
   16    -14.40541    2.00000
   17    -13.93203    2.00000
   18    -13.60937    2.00000
   19    -13.24583    2.00000
   20    -12.64855    2.00000
   21    -12.20665    2.00000
   22    -11.71799    2.00000
   23    -11.11980    2.00000
   24    -10.98746    2.00000
   25    -10.82588    2.00000
   26    -10.38310    2.00000
   27    -10.00308    2.00000
   28     -9.95366    2.00000
   29     -9.36844    2.00000
   30     -8.48859    2.00000
   31     -8.48602    2.00000
   32     -8.45183    2.00000
   33     -8.10985    2.00000
   34     -7.98165    2.00000
   35     -7.48223    2.00000
   36     -7.03481    2.00000
   37     -6.89361    2.00000
   38     -6.85908    2.00000
   39     -6.76569    2.00000
   40     -6.72980    2.00000
   41     -6.52971    2.00000
   42     -5.98966    1.99998
   43     -5.57738    1.99877
   44     -5.28807    1.97807
   45     -5.09020    1.85150
   46     -4.98339    1.62156
   47     -4.91900    1.38474
   48     -4.86678    1.14348
   49     -4.38610    0.02159
   50     -3.95858    0.00030
   51     -3.56222    0.00001
   52     -3.41131    0.00000
   53     -3.31106    0.00000
   54     -2.80885    0.00000
   55     -2.27557    0.00000
   56     -1.94940    0.00000
   57     -1.85639    0.00000
   58     -1.79880    0.00000
   59     -0.45346    0.00000
   60      0.22075    0.00000
   61      0.27592    0.00000
   62      1.20621    0.00000
   63      1.45218    0.00000
   64      1.64405    0.00000
   65      2.96367    0.00000
   66      3.28776    0.00000
   67      3.76183    0.00000
   68      3.86219    0.00000
   69      4.03051    0.00000
   70      4.28293    0.00000
   71      4.64395    0.00000
   72      4.78434    0.00000
   73      5.03083    0.00000
   74      5.30380    0.00000
   75      5.62066    0.00000
   76      6.18335    0.00000
   77      6.55848    0.00000
   78      7.04574    0.00000
   79      7.38306    0.00000
   80      7.69516    0.00000
   81      8.24948    0.00000
   82      8.47715    0.00000
   83      8.59137    0.00000
   84      8.79068    0.00000
   85      8.91729    0.00000
   86      8.97449    0.00000
   87      9.16669    0.00000
   88      9.34838    0.00000
   89      9.38600    0.00000
   90      9.46377    0.00000
   91      9.57629    0.00000
   92      9.77992    0.00000
   93      9.80029    0.00000
   94      9.92630    0.00000
   95     10.11145    0.00000
   96     10.17962    0.00000
   97     10.23033    0.00000


Forces in eV/Ang:
  0 C    -1.09608    0.24137    0.13104
  1 C     0.36063    0.40260   -0.14326
  2 C    -0.31957    0.61168   -0.11280
  3 C    -0.04216   -0.10400    0.07662
  4 C    -0.44057    0.02230   -0.17205
  5 C     0.17400   -0.04752   -0.09691
  6 C    -0.56270    0.02437    0.22835
  7 C    -0.44241    0.01366   -0.11244
  8 C     0.69384   -0.08088    0.16449
  9 C    -0.03940   -0.12656    0.18873
 10 C    -0.12006   -0.80446   -0.26504
 11 C    -0.34098    0.02002   -0.08589
 12 C    -0.05666   -0.26743   -0.04109
 13 C     0.06169    0.23713    0.05146
 14 C     0.43320   -0.11029    0.02946
 15 C    -0.16960    0.24558    0.08963
 16 C     0.23871    0.00310    0.00342
 17 C     0.04355    0.05033   -0.26038
 18 C     0.55302   -0.20598    0.17822
 19 C     0.51749    0.17146    0.06441
 20 C     0.53564    0.02901   -0.00365
 21 C    -0.33378   -0.16952    0.01919
 22 C     0.45935    0.18781   -0.04133
 23 C    -0.07195   -0.30912    0.16237

System changes: positions 

Initializing position-dependent things.

Density initialized from wave functions
           .--------------------------------------.  
          /|                                      |  
         / |                                      |  
        /  |                                      |  
       /   |                                      |  
      /    |                                      |  
     /     |                                      |  
    /      |                                      |  
   /       |                                      |  
  /        |          C  C C  C                   |  
 *      C  C  C     C   C     C      C  C  C      |  
 |         |        C   C   C   C                 |  
 |         .-------C-C-------C--------------------.  
 |        /         C  C   C                     /   
 |       /       C                              /    
 |      /                                      /     
 |     /                                      /      
 |    /                                      /       
 |   /                                      /        
 |  /                                      /         
 | /                                      /          
 |/                                      /           
 *--------------------------------------*            

Positions:
   0 C      5.413470    8.789618    5.597490
   1 C      7.485706    9.792743    6.055768
   2 C      6.210761    9.839305    5.886366
   3 C      9.765098    8.369523    6.084371
   4 C      5.723113    6.079831    5.458990
   5 C      7.450683    7.543027    5.830827
   6 C      9.331785    6.014707    5.742431
   7 C      7.980078    6.204760    5.728652
   8 C      5.990292    7.505107    5.603677
   9 C     10.233860    7.139502    5.964091
  10 C      8.354234    8.701876    6.042547
  11 C      6.852353    5.292835    5.514103
  12 C      5.689118    3.403868    5.252382
  13 C      6.977548    3.790439    5.393100
  14 C      8.327666    3.338408    5.457371
  15 C     10.261147    4.904896    5.709524
  16 C      9.517570    3.710197    5.583917
  17 C     11.194546    5.936369    6.008189
  18 C      1.654619    9.363177    5.030260
  19 C     13.654458    9.030975    5.106931
  20 C     14.996832    9.199390    5.035501
  21 C      0.288615    9.332403    5.004738
  22 C     12.362529    8.811920    5.133771
  23 C      2.956053    9.316782    5.031168

Unit cell:
           periodic     x           y           z      points  spacing
  1. axis:    yes   16.000000    0.000000    0.000000    80     0.2000
  2. axis:    yes    0.000000   16.000000    0.000000    80     0.2000
  3. axis:    yes    0.000000    0.000000   10.000000    48     0.2083

Effective grid spacing dv^(1/3) = 0.2027

                     log10-error:    total        iterations:
           time      wfs    density  energy       fermi  poisson
iter:   1  11:43:45          +inf  -172.982380    3      5      
iter:   2  11:43:46         -1.92  -172.927044    2      2      
iter:   3  11:43:46         -2.16  -172.913681    2      1      
iter:   4  11:43:47         -2.41  -172.908278    3      2      
iter:   5  11:43:47         -2.54  -172.905572    3      2      
iter:   6  11:43:48         -2.56  -172.908221    2      1      
iter:   7  11:43:49         -2.68  -172.903464    3      2      
iter:   8  11:43:49         -3.05  -172.904334    2      1      
iter:   9  11:43:50         -3.23  -172.904730    2      1      
iter:  10  11:43:50         -3.41  -172.903925    2      1      
iter:  11  11:43:51         -3.58  -172.903281    2      1      
iter:  12  11:43:51         -3.73  -172.902654    2      1      
iter:  13  11:43:52         -3.85  -172.902984    2      1      
iter:  14  11:43:52         -3.92  -172.902885    2      1      
iter:  15  11:43:53         -4.10  -172.902711    2      1      

Converged after 15 iterations.

Dipole moment: (-14.813703, -0.179961, 0.224377) |e|*Ang

Energy contributions relative to reference atoms: (reference = -24663.074771)

Kinetic:        +89.722635
Potential:     -100.468125
External:        +0.000000
XC:            -164.870850
Entropy (-ST):   -0.427006
Local:           +2.927132
--------------------------
Free energy:   -173.116214
Extrapolated:  -172.902711

Fermi level: -4.84378

 Band  Eigenvalues  Occupancy
    0    -23.79229    2.00000
    1    -22.71648    2.00000
    2    -21.71091    2.00000
    3    -20.75643    2.00000
    4    -20.38539    2.00000
    5    -19.70013    2.00000
    6    -19.54293    2.00000
    7    -18.54309    2.00000
    8    -18.50126    2.00000
    9    -18.32270    2.00000
   10    -17.40176    2.00000
   11    -17.24492    2.00000
   12    -16.62679    2.00000
   13    -15.53468    2.00000
   14    -15.28489    2.00000
   15    -15.25283    2.00000
   16    -14.40700    2.00000
   17    -13.91097    2.00000
   18    -13.56691    2.00000
   19    -13.24211    2.00000
   20    -12.60402    2.00000
   21    -12.22150    2.00000
   22    -11.66926    2.00000
   23    -11.11865    2.00000
   24    -11.00107    2.00000
   25    -10.80726    2.00000
   26    -10.39882    2.00000
   27     -9.97615    2.00000
   28     -9.94533    2.00000
   29     -9.37216    2.00000
   30     -8.45298    2.00000
   31     -8.44162    2.00000
   32     -8.43225    2.00000
   33     -8.13573    2.00000
   34     -7.98062    2.00000
   35     -7.49493    2.00000
   36     -7.03524    2.00000
   37     -6.89443    2.00000
   38     -6.84862    2.00000
   39     -6.78726    2.00000
   40     -6.75339    2.00000
   41     -6.52132    2.00000
   42     -6.00943    1.99998
   43     -5.57128    1.99862
   44     -5.30940    1.98117
   45     -5.10190    1.85929
   46     -4.99555    1.64040
   47     -4.92895    1.40184
   48     -4.86400    1.10076
   49     -4.37138    0.01760
   50     -3.97474    0.00034
   51     -3.58135    0.00001
   52     -3.40961    0.00000
   53     -3.31591    0.00000
   54     -2.83174    0.00000
   55     -2.28829    0.00000
   56     -1.95333    0.00000
   57     -1.86909    0.00000
   58     -1.80249    0.00000
   59     -0.45264    0.00000
   60      0.22424    0.00000
   61      0.28858    0.00000
   62      1.21061    0.00000
   63      1.40252    0.00000
   64      1.63931    0.00000
   65      2.93680    0.00000
   66      3.29300    0.00000
   67      3.69648    0.00000
   68      3.90016    0.00000
   69      3.91002    0.00000
   70      4.29306    0.00000
   71      4.54514    0.00000
   72      4.68632    0.00000
   73      4.91138    0.00000
   74      5.23589    0.00000
   75      5.72716    0.00000
   76      6.17903    0.00000
   77      6.59208    0.00000
   78      6.93917    0.00000
   79      7.31050    0.00000
   80      7.65437    0.00000
   81      8.24163    0.00000
   82      8.45816    0.00000
   83      8.57191    0.00000
   84      8.78901    0.00000
   85      8.91887    0.00000
   86      8.97705    0.00000
   87      9.16122    0.00000
   88      9.31164    0.00000
   89      9.39011    0.00000
   90      9.46964    0.00000
   91      9.57278    0.00000
   92      9.76555    0.00000
   93      9.80175    0.00000
   94      9.93326    0.00000
   95     10.07661    0.00000
   96     10.18634    0.00000
   97     10.24094    0.00000


Forces in eV/Ang:
  0 C    -0.78349    0.30212    0.03624
  1 C    -0.20562    0.42143   -0.11980
  2 C    -0.14400    0.34658   -0.12317
  3 C    -0.04901   -0.17790    0.02620
  4 C    -0.43163   -0.00030   -0.16326
  5 C     0.34352   -0.06003   -0.06032
  6 C    -0.49139    0.08206    0.24431
  7 C    -0.34451   -0.14186   -0.11806
  8 C     0.67654    0.06279    0.24542
  9 C     0.00346   -0.14709    0.19350
 10 C    -0.23242   -0.52566   -0.33410
 11 C    -0.35909    0.04903   -0.10955
 12 C    -0.08446   -0.26635   -0.04634
 13 C    -0.00284    0.22512    0.02400
 14 C     0.22397   -0.16999    0.02115
 15 C    -0.24515    0.32040    0.11198
 16 C     0.36304    0.04090    0.00613
 17 C     0.04810    0.05532   -0.25381
 18 C     0.24030   -0.25116    0.19737
 19 C     0.41859    0.13611    0.06649
 20 C     0.72122    0.05027    0.00195
 21 C    -0.24265   -0.18661    0.03632
 22 C     0.73005    0.23243   -0.03665
 23 C    -0.06262   -0.31240    0.20951

System changes: positions 

Initializing position-dependent things.

Density initialized from wave functions
           .--------------------------------------.  
          /|                                      |  
         / |                                      |  
        /  |                                      |  
       /   |                                      |  
      /    |                                      |  
     /     |                                      |  
    /      |                                      |  
   /       |                                      |  
  /        |          C  C C  C                   |  
 *      C  C  C     C   C     C      C  C  C      |  
 |         |        C   C  C    C                 |  
 |         .-------C-C-------C--------------------.  
 |        /         C  C   C                     /   
 |       /       C                              /    
 |      /                                      /     
 |     /                                      /      
 |    /                                      /       
 |   /                                      /        
 |  /                                      /         
 | /                                      /          
 |/                                      /           
 *--------------------------------------*            

Positions:
   0 C      5.382784    8.804201    5.618602
   1 C      7.492512    9.788921    6.036623
   2 C      6.218274    9.848412    5.880386
   3 C      9.767948    8.365557    6.090580
   4 C      5.710408    6.086345    5.452813
   5 C      7.436386    7.544290    5.823039
   6 C      9.315859    6.012867    5.751054
   7 C      7.964640    6.206965    5.722648
   8 C      5.979203    7.516017    5.600233
   9 C     10.227832    7.132482    5.973431
  10 C      8.353443    8.687286    6.039371
  11 C      6.837353    5.293295    5.511734
  12 C      5.699849    3.396298    5.251884
  13 C      6.985634    3.788846    5.395457
  14 C      8.335422    3.338670    5.457240
  15 C     10.257069    4.910769    5.714335
  16 C      9.527168    3.710233    5.584559
  17 C     11.195432    5.941360    5.995695
  18 C      1.674814    9.355010    5.038528
  19 C     13.658122    9.037237    5.110861
  20 C     15.008229    9.199845    5.034591
  21 C      0.300886    9.329134    5.003404
  22 C     12.366825    8.817827    5.132603
  23 C      2.977085    9.301764    5.037962

Unit cell:
           periodic     x           y           z      points  spacing
  1. axis:    yes   16.000000    0.000000    0.000000    80     0.2000
  2. axis:    yes    0.000000   16.000000    0.000000    80     0.2000
  3. axis:    yes    0.000000    0.000000   10.000000    48     0.2083

Effective grid spacing dv^(1/3) = 0.2027

                     log10-error:    total        iterations:
           time      wfs    density  energy       fermi  poisson
iter:   1  11:43:55          +inf  -173.024298    3      5      
iter:   2  11:43:55         -2.13  -173.003547    2      2      
iter:   3  11:43:56         -2.34  -173.001173    2      1      
iter:   4  11:43:56         -2.47  -172.996664    2      2      
iter:   5  11:43:57         -2.61  -172.993632    3      2      
iter:   6  11:43:57         -2.73  -173.008838    2      2      
iter:   7  11:43:58         -2.33  -172.992222    3      1      
iter:   8  11:43:58         -3.16  -172.993042    2      1      
iter:   9  11:43:59         -3.13  -172.995689    3      1      
iter:  10  11:44:00         -2.92  -172.993132    3      1      
iter:  11  11:44:00         -2.62  -172.992589    2      1      
iter:  12  11:44:01         -3.59  -172.992908    2      1      
iter:  13  11:44:01         -3.47  -172.992199    2      1      
iter:  14  11:44:02         -3.57  -172.992671    2      1      
iter:  15  11:44:02         -3.53  -172.992468    2      1      
iter:  16  11:44:03         -3.71  -172.991920    2      1      
iter:  17  11:44:03         -3.36  -172.992552    2      1      
iter:  18  11:44:04         -4.12  -172.992479    2      1      

Converged after 18 iterations.

Dipole moment: (-14.351297, -0.194461, 0.222536) |e|*Ang

Energy contributions relative to reference atoms: (reference = -24663.074771)

Kinetic:        +86.027620
Potential:      -97.595692
External:        +0.000000
XC:            -164.158527
Entropy (-ST):   -0.419982
Local:           +2.944110
--------------------------
Free energy:   -173.202470
Extrapolated:  -172.992479

Fermi level: -4.85754

 Band  Eigenvalues  Occupancy
    0    -23.75322    2.00000
    1    -22.68871    2.00000
    2    -21.69444    2.00000
    3    -20.73235    2.00000
    4    -20.37029    2.00000
    5    -19.66303    2.00000
    6    -19.54522    2.00000
    7    -18.52437    2.00000
    8    -18.47691    2.00000
    9    -18.29462    2.00000
   10    -17.40554    2.00000
   11    -17.24647    2.00000
   12    -16.61533    2.00000
   13    -15.52653    2.00000
   14    -15.25565    2.00000
   15    -15.22369    2.00000
   16    -14.40336    2.00000
   17    -13.88279    2.00000
   18    -13.53469    2.00000
   19    -13.23423    2.00000
   20    -12.55573    2.00000
   21    -12.24066    2.00000
   22    -11.61469    2.00000
   23    -11.11489    2.00000
   24    -11.00104    2.00000
   25    -10.79180    2.00000
   26    -10.40649    2.00000
   27     -9.95025    2.00000
   28     -9.93647    2.00000
   29     -9.37214    2.00000
   30     -8.43857    2.00000
   31     -8.41066    2.00000
   32     -8.40826    2.00000
   33     -8.20537    2.00000
   34     -7.96507    2.00000
   35     -7.50082    2.00000
   36     -7.03334    2.00000
   37     -6.91297    2.00000
   38     -6.84715    2.00000
   39     -6.80667    2.00000
   40     -6.76414    2.00000
   41     -6.51470    2.00000
   42     -6.02173    1.99998
   43     -5.55825    1.99819
   44     -5.33211    1.98277
   45     -5.11677    1.86072
   46     -5.01589    1.65939
   47     -4.94811    1.42425
   48     -4.86971    1.06077
   49     -4.35892    0.01357
   50     -3.99313    0.00035
   51     -3.61442    0.00001
   52     -3.41205    0.00000
   53     -3.29883    0.00000
   54     -2.84417    0.00000
   55     -2.33491    0.00000
   56     -1.95743    0.00000
   57     -1.87169    0.00000
   58     -1.80399    0.00000
   59     -0.45933    0.00000
   60      0.22791    0.00000
   61      0.29635    0.00000
   62      1.21135    0.00000
   63      1.36245    0.00000
   64      1.66332    0.00000
   65      2.90234    0.00000
   66      3.28019    0.00000
   67      3.60982    0.00000
   68      3.80606    0.00000
   69      3.97637    0.00000
   70      4.30491    0.00000
   71      4.47543    0.00000
   72      4.61068    0.00000
   73      4.83122    0.00000
   74      5.18778    0.00000
   75      5.83729    0.00000
   76      6.17546    0.00000
   77      6.58758    0.00000
   78      6.84294    0.00000
   79      7.23775    0.00000
   80      7.60133    0.00000
   81      8.22168    0.00000
   82      8.43065    0.00000
   83      8.55858    0.00000
   84      8.77666    0.00000
   85      8.91914    0.00000
   86      8.98194    0.00000
   87      9.15881    0.00000
   88      9.25938    0.00000
   89      9.40025    0.00000
   90      9.48174    0.00000
   91      9.56644    0.00000
   92      9.74565    0.00000
   93      9.80191    0.00000
   94      9.93561    0.00000
   95     10.03536    0.00000
   96     10.18433    0.00000
   97     10.24823    0.00000


Forces in eV/Ang:
  0 C    -0.45672    0.36555   -0.05201
  1 C    -0.22828    0.30005   -0.02387
  2 C    -0.45886    0.03609   -0.19822
  3 C    -0.13336   -0.14757   -0.04363
  4 C    -0.40025    0.03137   -0.14879
  5 C     0.45077   -0.03717   -0.01282
  6 C    -0.39028    0.10634    0.26475
  7 C    -0.28630   -0.21507   -0.07967
  8 C     0.47242    0.15880    0.26211
  9 C     0.05441   -0.19901    0.18257
 10 C    -0.28539   -0.16572   -0.36602
 11 C    -0.38884    0.07044   -0.12461
 12 C    -0.06388   -0.25318   -0.04324
 13 C    -0.11247    0.18135   -0.00812
 14 C     0.33577   -0.11652    0.03298
 15 C    -0.27372    0.34508    0.12806
 16 C     0.15868   -0.03761   -0.02641
 17 C     0.02772    0.06106   -0.25024
 18 C     0.25991   -0.28837    0.18976
 19 C     0.63823    0.12765    0.03140
 20 C     0.60804    0.04028    0.02279
 21 C    -0.13887   -0.19677    0.05875
 22 C     0.74499    0.22384   -0.02209
 23 C    -0.15774   -0.32574    0.25908

System changes: positions 

Initializing position-dependent things.

Density initialized from wave functions
           .--------------------------------------.  
          /|                                      |  
         / |                                      |  
        /  |                                      |  
       /   |                                      |  
      /    |                                      |  
     /     |                                      |  
    /      |                                      |  
   /       |                                      |  
  /        |          C  C C  C                   |  
 *      C  C  C     C   C     C      C  C  C      |  
 |         |        C   C  C    C                 |  
 |         .-------C-C-------C--------------------.  
 |        /         C  C   C                     /   
 |       /       C                              /    
 |      /                                      /     
 |     /                                      /      
 |    /                                      /       
 |   /                                      /        
 |  /                                      /         
 | /                                      /          
 |/                                      /           
 *--------------------------------------*            

Positions:
   0 C      5.351746    8.819650    5.638551
   1 C      7.498926    9.785289    6.018135
   2 C      6.221305    9.856370    5.873136
   3 C      9.769142    8.361489    6.096000
   4 C      5.695846    6.093929    5.446015
   5 C      7.424156    7.545732    5.815400
   6 C      9.298872    6.011457    5.761113
   7 C      7.947986    6.207818    5.716565
   8 C      5.968578    7.528186    5.598005
   9 C     10.222489    7.124106    5.983680
  10 C      8.351178    8.674986    6.034261
  11 C      6.820306    5.294204    5.508658
  12 C      5.710415    3.387540    5.251192
  13 C      6.992781    3.787617    5.397535
  14 C      8.345878    3.339057    5.457348
  15 C     10.251376    4.918209    5.719908
  16 C      9.535570    3.709416    5.584787
  17 C     11.196369    5.946789    5.981976
  18 C      1.696136    9.345104    5.047682
  19 C     13.665989    9.043935    5.114664
  20 C     15.021268    9.200370    5.033959
  21 C      0.314253    9.324883    5.002502
  22 C     12.375050    8.824791    5.131421
  23 C      2.997268    9.284909    5.046482

Unit cell:
           periodic     x           y           z      points  spacing
  1. axis:    yes   16.000000    0.000000    0.000000    80     0.2000
  2. axis:    yes    0.000000   16.000000    0.000000    80     0.2000
  3. axis:    yes    0.000000    0.000000   10.000000    48     0.2083

Effective grid spacing dv^(1/3) = 0.2027

                     log10-error:    total        iterations:
           time      wfs    density  energy       fermi  poisson
iter:   1  11:44:06          +inf  -173.096095    3      5      
iter:   2  11:44:06         -2.29  -173.090589    3      1      
iter:   3  11:44:07         -2.39  -173.081588    3      2      
iter:   4  11:44:07         -2.55  -173.079851    3      2      
iter:   5  11:44:08         -2.64  -173.078078    3      2      
iter:   6  11:44:08         -2.78  -173.077961    3      2      
iter:   7  11:44:09         -2.96  -173.077241    2      1      
iter:   8  11:44:09         -3.18  -173.077877    3      1      
iter:   9  11:44:10         -3.31  -173.077044    2      1      
iter:  10  11:44:10         -3.52  -173.076718    2      1      
iter:  11  11:44:11         -3.74  -173.076757    2      1      
iter:  12  11:44:12         -3.86  -173.076212    2      1      
iter:  13  11:44:12         -3.91  -173.076346    2      1      
iter:  14  11:44:13         -4.08  -173.076480    2      1      

Converged after 14 iterations.

Dipole moment: (-13.811208, -0.205985, 0.220235) |e|*Ang

Energy contributions relative to reference atoms: (reference = -24663.074771)

Kinetic:        +82.767540
Potential:      -95.045499
External:        +0.000000
XC:            -163.518928
Entropy (-ST):   -0.414009
Local:           +2.927411
--------------------------
Free energy:   -173.283484
Extrapolated:  -173.076480

Fermi level: -4.87285

 Band  Eigenvalues  Occupancy
    0    -23.71802    2.00000
    1    -22.66023    2.00000
    2    -21.67453    2.00000
    3    -20.70393    2.00000
    4    -20.34973    2.00000
    5    -19.63527    2.00000
    6    -19.55265    2.00000
    7    -18.50127    2.00000
    8    -18.46466    2.00000
    9    -18.27144    2.00000
   10    -17.40253    2.00000
   11    -17.25443    2.00000
   12    -16.59317    2.00000
   13    -15.51010    2.00000
   14    -15.23247    2.00000
   15    -15.19863    2.00000
   16    -14.39554    2.00000
   17    -13.85299    2.00000
   18    -13.51063    2.00000
   19    -13.23094    2.00000
   20    -12.50757    2.00000
   21    -12.25790    2.00000
   22    -11.55127    2.00000
   23    -11.10967    2.00000
   24    -10.99325    2.00000
   25    -10.78024    2.00000
   26    -10.41032    2.00000
   27     -9.93180    2.00000
   28     -9.92184    2.00000
   29     -9.36778    2.00000
   30     -8.42612    2.00000
   31     -8.39844    2.00000
   32     -8.38771    2.00000
   33     -8.29165    2.00000
   34     -7.94406    2.00000
   35     -7.50970    2.00000
   36     -7.03562    2.00000
   37     -6.92910    2.00000
   38     -6.85027    2.00000
   39     -6.81317    2.00000
   40     -6.77187    2.00000
   41     -6.50284    2.00000
   42     -6.03437    1.99998
   43     -5.54900    1.99769
   44     -5.35913    1.98466
   45     -5.13221    1.86091
   46     -5.03653    1.67420
   47     -4.96916    1.44749
   48     -4.87752    1.02334
   49     -4.35658    0.01139
   50     -4.00308    0.00033
   51     -3.63996    0.00001
   52     -3.41190    0.00000
   53     -3.29059    0.00000
   54     -2.85279    0.00000
   55     -2.36547    0.00000
   56     -1.95457    0.00000
   57     -1.87336    0.00000
   58     -1.80046    0.00000
   59     -0.46780    0.00000
   60      0.21964    0.00000
   61      0.29931    0.00000
   62      1.20504    0.00000
   63      1.33128    0.00000
   64      1.71278    0.00000
   65      2.85932    0.00000
   66      3.26706    0.00000
   67      3.52981    0.00000
   68      3.71658    0.00000
   69      4.04063    0.00000
   70      4.31149    0.00000
   71      4.42245    0.00000
   72      4.53382    0.00000
   73      4.77443    0.00000
   74      5.14983    0.00000
   75      5.93438    0.00000
   76      6.14996    0.00000
   77      6.57106    0.00000
   78      6.76482    0.00000
   79      7.17777    0.00000
   80      7.52257    0.00000
   81      8.19949    0.00000
   82      8.40208    0.00000
   83      8.54102    0.00000
   84      8.76478    0.00000
   85      8.91767    0.00000
   86      8.98634    0.00000
   87      9.16657    0.00000
   88      9.21529    0.00000
   89      9.40872    0.00000
   90      9.49740    0.00000
   91      9.55470    0.00000
   92      9.72276    0.00000
   93      9.79696    0.00000
   94      9.93185    0.00000
   95     10.00485    0.00000
   96     10.17596    0.00000
   97     10.25542    0.00000


Forces in eV/Ang:
  0 C    -0.19340    0.35735   -0.19469
  1 C    -0.54126    0.27110    0.04755
  2 C    -0.44742   -0.17904   -0.20276
  3 C    -0.18016   -0.20058   -0.10856
  4 C    -0.28999    0.09434   -0.10954
  5 C     0.44684   -0.03038    0.01128
  6 C    -0.30081    0.06114    0.28371
  7 C    -0.19732   -0.23163   -0.04890
  8 C     0.32102    0.16451    0.28087
  9 C     0.04704   -0.07888    0.16435
 10 C    -0.26606    0.07702   -0.41007
 11 C    -0.39417    0.06745   -0.14059
 12 C    -0.03174   -0.23442   -0.01963
 13 C    -0.13475    0.11953   -0.03082
 14 C     0.03798   -0.10312   -0.00149
 15 C    -0.29835    0.27537    0.10779
 16 C     0.28164    0.03033   -0.02569
 17 C     0.04261    0.04569   -0.25405
 18 C     0.14281   -0.30301    0.18303
 19 C     0.71766    0.10849    0.00415
 20 C     0.57200    0.03789    0.02740
 21 C     0.00560   -0.19353    0.09622
 22 C     0.75365    0.20867    0.00860
 23 C    -0.07550   -0.32949    0.32405

System changes: positions 

[...]
    3    -20.83363    2.00000
    4    -20.32968    2.00000
    5    -19.89791    2.00000
    6    -19.45582    2.00000
    7    -19.30122    2.00000
    8    -18.37560    2.00000
    9    -18.12911    2.00000
   10    -18.11802    2.00000
   11    -17.71199    2.00000
   12    -16.51056    2.00000
   13    -16.32061    2.00000
   14    -15.49736    2.00000
   15    -15.04293    2.00000
   16    -14.76475    2.00000
   17    -14.03619    2.00000
   18    -13.64827    2.00000
   19    -13.01061    2.00000
   20    -12.87896    2.00000
   21    -12.30417    2.00000
   22    -11.44208    2.00000
   23    -11.11796    2.00000
   24    -10.73039    2.00000
   25    -10.68113    2.00000
   26    -10.61223    2.00000
   27    -10.15091    2.00000
   28     -9.89454    2.00000
   29     -9.75913    2.00000
   30     -9.63547    2.00000
   31     -9.35473    2.00000
   32     -9.02588    2.00000
   33     -8.90766    2.00000
   34     -8.63888    2.00000
   35     -8.36323    2.00000
   36     -7.96217    2.00000
   37     -7.60044    2.00000
   38     -7.36068    2.00000
   39     -6.90967    2.00000
   40     -6.36705    2.00000
   41     -6.16241    2.00000
   42     -5.94798    2.00000
   43     -5.55043    1.99991
   44     -5.53934    1.99990
   45     -5.52747    1.99989
   46     -4.86309    1.91616
   47     -4.68282    1.58050
   48     -4.44124    0.50349
   49     -3.57657    0.00012
   50     -3.46732    0.00004
   51     -2.92241    0.00000
   52     -2.72248    0.00000
   53     -2.34251    0.00000
   54     -1.50893    0.00000
   55     -1.35804    0.00000
   56     -0.76931    0.00000
   57      0.39592    0.00000
   58      0.76780    0.00000
   59      1.19420    0.00000
   60      1.55747    0.00000
   61      1.73471    0.00000
   62      1.99915    0.00000
   63      2.60907    0.00000
   64      3.26306    0.00000
   65      3.44472    0.00000
   66      3.60738    0.00000
   67      3.89449    0.00000
   68      4.53436    0.00000
   69      4.73337    0.00000
   70      4.88867    0.00000
   71      4.93664    0.00000
   72      5.36277    0.00000
   73      5.53042    0.00000
   74      5.76748    0.00000
   75      6.37299    0.00000
   76      6.60513    0.00000
   77      6.88449    0.00000
   78      7.27868    0.00000
   79      7.76071    0.00000
   80      7.99995    0.00000
   81      8.22617    0.00000
   82      8.51198    0.00000
   83      8.64113    0.00000
   84      8.71674    0.00000
   85      8.92651    0.00000
   86      8.98869    0.00000
   87      9.14097    0.00000
   88      9.45651    0.00000
   89      9.54459    0.00000
   90      9.57028    0.00000
   91      9.65293    0.00000
   92      9.70467    0.00000
   93      9.74770    0.00000
   94      9.91222    0.00000
   95      9.92322    0.00000
   96     10.05339    0.00000
   97     10.46282    0.00000


Forces in eV/Ang:
  0 C    -0.02236   -0.01962    0.02261
  1 C     0.02442    0.02105   -0.00317
  2 C    -0.00657    0.04388    0.01366
  3 C     0.03362    0.10205   -0.00693
  4 C     0.17559    0.09992    0.02397
  5 C     0.01786    0.03057   -0.02172
  6 C    -0.01067    0.03466    0.00437
  7 C     0.02034    0.02096   -0.01264
  8 C     0.01434    0.02780   -0.00074
  9 C     0.00312    0.00176    0.00979
 10 C     0.00102   -0.00313   -0.00106
 11 C     0.02991    0.02142   -0.00819
 12 C    -0.05932   -0.10867    0.00263
 13 C    -0.00276    0.01103    0.00496
 14 C     0.00112    0.04447   -0.00068
 15 C     0.01908    0.04414    0.01188
 16 C    -0.03519    0.03517    0.01089
 17 C     0.02009   -0.01678    0.00926
 18 C    -0.01835    0.01543    0.00159
 19 C    -0.00396   -0.01607    0.00165
 20 C     0.00029   -0.00187   -0.01610
 21 C     0.00033   -0.00019    0.00864
 22 C     0.00758    0.03531   -0.00295
 23 C    -0.01458   -0.00148    0.00646

System changes: positions 

Initializing position-dependent things.

Density initialized from wave functions
           .--------------------------------------.  
          /|                                      |  
         / |                                      |  
        /  |                                      |  
       /   |                                      |  
      /    |                                      |  
     /     |                                      |  
    /      |                                      |  
   /       |            C                         |  
  /        |      C  C    C   CC                  |  
 *      C  C   C    C   CC   C    C   C  C  C     |  
 |         |        C  C       C                  |  
 |         .------------C--C--C-------------------.  
 |        /             C                        /   
 |       /                                      /    
 |      /                                      /     
 |     /                                      /      
 |    /                                      /       
 |   /                                      /        
 |  /                                      /         
 | /                                      /          
 |/                                      /           
 *--------------------------------------*            

Positions:
   0 C      4.806325    8.728593    5.941083
   1 C      6.669149   10.353979    6.025049
   2 C      5.448444   10.005616    5.997273
   3 C      9.273195    9.711112    6.005362
   4 C      5.978245    6.301566    5.868379
   5 C      7.298052    8.196590    5.956122
   6 C      9.511873    7.354499    5.912380
   7 C      8.174332    7.081553    5.921657
   8 C      5.915367    7.737257    5.918820
   9 C     10.156992    8.642951    5.953876
  10 C      7.855818    9.573515    6.003097
  11 C      7.345256    5.857182    5.872200
  12 C      8.663304    3.425124    5.882020
  13 C      8.050611    4.647137    5.864340
  14 C      9.651754    4.433920    5.845058
  15 C     10.787651    6.632386    5.878393
  16 C     10.682807    5.257704    5.825523
  17 C     11.534937    7.907461    5.920342
  18 C      2.144487    8.423837    5.933991
  19 C     14.169937    8.233796    5.949205
  20 C     15.517297    8.306554    5.951572
  21 C      0.791928    8.351778    5.938842
  22 C     12.897712    8.159296    5.939715
  23 C      3.409327    8.506422    5.930626

Unit cell:
           periodic     x           y           z      points  spacing
  1. axis:    yes   16.000000    0.000000    0.000000    80     0.2000
  2. axis:    yes    0.000000   16.000000    0.000000    80     0.2000
  3. axis:    yes    0.000000    0.000000   10.000000    48     0.2083

Effective grid spacing dv^(1/3) = 0.2027

                     log10-error:    total        iterations:
           time      wfs    density  energy       fermi  poisson
iter:   1  12:18:14          +inf  -185.222936    3      5      
iter:   2  12:18:15         -2.12  -185.197671    3      2      
iter:   3  12:18:15         -2.41  -185.186131    2      1      
iter:   4  12:18:16         -2.98  -185.184558    2      1      
iter:   5  12:18:16         -3.05  -185.184173    2      1      
iter:   6  12:18:17         -3.22  -185.185298    2      1      
iter:   7  12:18:18         -2.86  -185.183019    2      1      
iter:   8  12:18:18         -3.53  -185.186472    2      1      
iter:   9  12:18:19         -2.79  -185.184562    2      1      
iter:  10  12:18:19         -3.65  -185.183887    2      1      
iter:  11  12:18:20         -3.39  -185.183698    2      1      
iter:  12  12:18:20         -3.49  -185.183834    2      1      
iter:  13  12:18:21         -4.06  -185.183707    2      1      

Converged after 13 iterations.

Dipole moment: (10.800603, 0.130555, -0.001420) |e|*Ang

Energy contributions relative to reference atoms: (reference = -24663.074771)

Kinetic:        +98.896091
Potential:     -111.230177
External:        +0.000000
XC:            -175.733518
Entropy (-ST):   -0.251652
Local:           +3.009722
--------------------------
Free energy:   -185.309533
Extrapolated:  -185.183707

Fermi level: -4.55227

 Band  Eigenvalues  Occupancy
    0    -23.19979    2.00000
    1    -22.65110    2.00000
    2    -22.13102    2.00000
    3    -20.82883    2.00000
    4    -20.33147    2.00000
    5    -19.90076    2.00000
    6    -19.45739    2.00000
    7    -19.30679    2.00000
    8    -18.37000    2.00000
    9    -18.12922    2.00000
   10    -18.11996    2.00000
   11    -17.71837    2.00000
   12    -16.50945    2.00000
   13    -16.31662    2.00000
   14    -15.50171    2.00000
   15    -15.04540    2.00000
   16    -14.76494    2.00000
   17    -14.03530    2.00000
   18    -13.65149    2.00000
   19    -13.01092    2.00000
   20    -12.88242    2.00000
   21    -12.29959    2.00000
   22    -11.43928    2.00000
   23    -11.11428    2.00000
   24    -10.73409    2.00000
   25    -10.68316    2.00000
   26    -10.60876    2.00000
   27    -10.14915    2.00000
   28     -9.89656    2.00000
   29     -9.76007    2.00000
   30     -9.63623    2.00000
   31     -9.35798    2.00000
   32     -9.02341    2.00000
   33     -8.90922    2.00000
   34     -8.64134    2.00000
   35     -8.36131    2.00000
   36     -7.96396    2.00000
   37     -7.60123    2.00000
   38     -7.36091    2.00000
   39     -6.91199    2.00000
   40     -6.36034    2.00000
   41     -6.15877    2.00000
   42     -5.95491    2.00000
   43     -5.55169    1.99991
   44     -5.53690    1.99989
   45     -5.52742    1.99988
   46     -4.86149    1.91314
   47     -4.68554    1.58259
   48     -4.44359    0.50443
   49     -3.57609    0.00012
   50     -3.47002    0.00004
   51     -2.91617    0.00000
   52     -2.72404    0.00000
   53     -2.34119    0.00000
   54     -1.50961    0.00000
   55     -1.36074    0.00000
   56     -0.77489    0.00000
   57      0.39760    0.00000
   58      0.77115    0.00000
   59      1.18129    0.00000
   60      1.55212    0.00000
   61      1.77821    0.00000
   62      1.99004    0.00000
   63      2.61055    0.00000
   64      3.25881    0.00000
   65      3.44720    0.00000
   66      3.60205    0.00000
   67      3.92288    0.00000
   68      4.52975    0.00000
   69      4.73338    0.00000
   70      4.87489    0.00000
   71      4.93666    0.00000
   72      5.35308    0.00000
   73      5.53407    0.00000
   74      5.76542    0.00000
   75      6.36955    0.00000
   76      6.62204    0.00000
   77      6.89042    0.00000
   78      7.27777    0.00000
   79      7.76093    0.00000
   80      8.00170    0.00000
   81      8.22571    0.00000
   82      8.51493    0.00000
   83      8.63902    0.00000
   84      8.72046    0.00000
   85      8.92473    0.00000
   86      8.98880    0.00000
   87      9.13573    0.00000
   88      9.45381    0.00000
   89      9.54343    0.00000
   90      9.57143    0.00000
   91      9.64720    0.00000
   92      9.70769    0.00000
   93      9.74865    0.00000
   94      9.91641    0.00000
   95      9.92306    0.00000
   96     10.05528    0.00000
   97     10.47188    0.00000


Forces in eV/Ang:
  0 C     0.01797    0.07525    0.05240
  1 C    -0.03904   -0.01845   -0.02136
  2 C     0.03504    0.01889    0.00477
  3 C    -0.03300   -0.09450   -0.00447
  4 C    -0.13757   -0.09031   -0.00317
  5 C    -0.02247   -0.01223   -0.03185
  6 C     0.10982    0.01077    0.01712
  7 C    -0.09178   -0.00776   -0.05471
  8 C     0.01658   -0.04361    0.02295
  9 C    -0.00591   -0.05862   -0.00475
 10 C    -0.08001   -0.05529   -0.00149
 11 C    -0.00884   -0.01945   -0.00741
 12 C    -0.03493   -0.09681   -0.01149
 13 C     0.01772    0.01998    0.02358
 14 C     0.00239    0.02796    0.00109
 15 C     0.01984    0.09153    0.00799
 16 C    -0.04242    0.04950    0.00812
 17 C    -0.01159   -0.03103    0.01406
 18 C     0.02936    0.01459   -0.01556
 19 C     0.02125    0.01180   -0.01626
 20 C    -0.04823   -0.00274   -0.03430
 21 C     0.03471    0.00804    0.01982
 22 C     0.01012   -0.00500   -0.00649
 23 C    -0.07546   -0.02947   -0.01773

System changes: positions 

Initializing position-dependent things.

Density initialized from wave functions
           .--------------------------------------.  
          /|                                      |  
         / |                                      |  
        /  |                                      |  
       /   |                                      |  
      /    |                                      |  
     /     |                                      |  
    /      |                                      |  
   /       |            C                         |  
  /        |      C  C    C   CC                  |  
 *      C  |C  C    C   CC   C    C   C  C  C     |  
 |         |        C  C       C                  |  
 |         .------------C--C--C-------------------.  
 |        /             C                        /   
 |       /                                      /    
 |      /                                      /     
 |     /                                      /      
 |    /                                      /       
 |   /                                      /        
 |  /                                      /         
 | /                                      /          
 |/                                      /           
 *--------------------------------------*            

Positions:
   0 C      4.809473    8.730636    5.944479
   1 C      6.673323   10.353221    6.021586
   2 C      5.452478   10.006230    5.997847
   3 C      9.276578    9.707953    6.003242
   4 C      5.978757    6.301302    5.870054
   5 C      7.300438    8.195112    5.954643
   6 C      9.514846    7.351815    5.908871
   7 C      8.175755    7.079734    5.917241
   8 C      5.917332    7.736814    5.921873
   9 C     10.160209    8.639563    5.951182
  10 C      7.858722    9.571390    6.000240
  11 C      7.346239    5.855587    5.871384
  12 C      8.664966    3.423374    5.881232
  13 C      8.052500    4.645598    5.865072
  14 C      9.655059    4.430621    5.847129
  15 C     10.790188    6.629399    5.877278
  16 C     10.685980    5.254493    5.828222
  17 C     11.537768    7.903609    5.918578
  18 C      2.147426    8.427615    5.936267
  19 C     14.172743    8.235896    5.946683
  20 C     15.519692    8.311128    5.949798
  21 C      0.794758    8.355952    5.940198
  22 C     12.900491    8.155860    5.936830
  23 C      3.411945    8.508362    5.933704

Unit cell:
           periodic     x           y           z      points  spacing
  1. axis:    yes   16.000000    0.000000    0.000000    80     0.2000
  2. axis:    yes    0.000000   16.000000    0.000000    80     0.2000
  3. axis:    yes    0.000000    0.000000   10.000000    48     0.2083

Effective grid spacing dv^(1/3) = 0.2027

                     log10-error:    total        iterations:
           time      wfs    density  energy       fermi  poisson
iter:   1  12:18:23          +inf  -185.208236    2      4      
iter:   2  12:18:24         -2.33  -185.186554    2      2      
iter:   3  12:18:24         -2.71  -185.183486    2      1      
iter:   4  12:18:25         -3.48  -185.184404    2      1      
iter:   5  12:18:25         -3.48  -185.184691    2      1      
iter:   6  12:18:26         -3.41  -185.186146    2      1      
iter:   7  12:18:26         -2.87  -185.185397    2      1      
iter:   8  12:18:27         -3.25  -185.184723    2      1      
iter:   9  12:18:28         -3.96  -185.184703    2      1      
iter:  10  12:18:28         -3.59  -185.184673    2      1      
iter:  11  12:18:29         -4.32  -185.184469    2      1      

Converged after 11 iterations.

Dipole moment: (10.927329, 0.131553, -0.001489) |e|*Ang

Energy contributions relative to reference atoms: (reference = -24663.074771)

Kinetic:        +98.794313
Potential:     -111.150978
External:        +0.000000
XC:            -175.710389
Entropy (-ST):   -0.251072
Local:           +3.008121
--------------------------
Free energy:   -185.310005
Extrapolated:  -185.184469

Fermi level: -4.55079

 Band  Eigenvalues  Occupancy
    0    -23.19663    2.00000
    1    -22.64662    2.00000
    2    -22.13314    2.00000
    3    -20.83006    2.00000
    4    -20.33025    2.00000
    5    -19.89968    2.00000
    6    -19.45691    2.00000
    7    -19.30507    2.00000
    8    -18.37102    2.00000
    9    -18.12924    2.00000
   10    -18.11792    2.00000
   11    -17.71393    2.00000
   12    -16.51083    2.00000
   13    -16.31809    2.00000
   14    -15.50016    2.00000
   15    -15.04395    2.00000
   16    -14.76472    2.00000
   17    -14.03525    2.00000
   18    -13.65020    2.00000
   19    -13.00906    2.00000
   20    -12.88180    2.00000
   21    -12.30187    2.00000
   22    -11.43974    2.00000
   23    -11.11485    2.00000
   24    -10.73236    2.00000
   25    -10.68350    2.00000
   26    -10.60982    2.00000
   27    -10.14890    2.00000
   28     -9.89586    2.00000
   29     -9.75898    2.00000
   30     -9.63550    2.00000
   31     -9.35713    2.00000
   32     -9.02411    2.00000
   33     -8.90874    2.00000
   34     -8.64072    2.00000
   35     -8.36192    2.00000
   36     -7.96314    2.00000
   37     -7.60060    2.00000
   38     -7.36149    2.00000
   39     -6.91114    2.00000
   40     -6.36354    2.00000
   41     -6.15965    2.00000
   42     -5.95274    2.00000
   43     -5.54995    1.99991
   44     -5.53767    1.99990
   45     -5.52718    1.99989
   46     -4.86141    1.91429
   47     -4.68419    1.58299
   48     -4.44170    0.50288
   49     -3.57594    0.00012
   50     -3.46991    0.00004
   51     -2.91945    0.00000
   52     -2.72398    0.00000
   53     -2.34248    0.00000
   54     -1.50880    0.00000
   55     -1.36029    0.00000
   56     -0.77444    0.00000
   57      0.39830    0.00000
   58      0.76948    0.00000
   59      1.18486    0.00000
   60      1.55452    0.00000
   61      1.76395    0.00000
   62      1.99489    0.00000
   63      2.61072    0.00000
   64      3.25859    0.00000
   65      3.44438    0.00000
   66      3.60437    0.00000
   67      3.91241    0.00000
   68      4.52783    0.00000
   69      4.73238    0.00000
   70      4.88036    0.00000
   71      4.93604    0.00000
   72      5.35661    0.00000
   73      5.53338    0.00000
   74      5.76505    0.00000
   75      6.36964    0.00000
   76      6.61286    0.00000
   77      6.88572    0.00000
   78      7.28085    0.00000
   79      7.76177    0.00000
   80      8.00147    0.00000
   81      8.22457    0.00000
   82      8.51281    0.00000
   83      8.63982    0.00000
   84      8.71898    0.00000
   85      8.92578    0.00000
   86      8.98834    0.00000
   87      9.13648    0.00000
   88      9.45445    0.00000
   89      9.54345    0.00000
   90      9.57105    0.00000
   91      9.64992    0.00000
   92      9.70622    0.00000
   93      9.74833    0.00000
   94      9.91423    0.00000
   95      9.92286    0.00000
   96     10.05278    0.00000
   97     10.46691    0.00000


Forces in eV/Ang:
  0 C    -0.00011    0.02192    0.04125
  1 C    -0.01963   -0.00582   -0.01076
  2 C     0.02046    0.02840    0.00509
  3 C    -0.02266   -0.05966   -0.00031
  4 C    -0.06626   -0.06251    0.00108
  5 C    -0.02111   -0.00423   -0.02516
  6 C     0.03770   -0.00244    0.01315
  7 C    -0.01956   -0.00161   -0.03701
  8 C     0.00723   -0.01752    0.00700
  9 C    -0.01570   -0.02469   -0.00901
 10 C    -0.03736   -0.04235   -0.00755
 11 C     0.00128   -0.02063   -0.00457
 12 C    -0.04598   -0.07620   -0.01377
 13 C     0.00721    0.01583    0.01224
 14 C    -0.01531    0.04036    0.00166
 15 C     0.02650    0.07103    0.00587
 16 C    -0.03827    0.03663    0.01855
 17 C     0.01108   -0.02530    0.01322
 18 C    -0.00068    0.02571   -0.00582
 19 C    -0.01519    0.00201   -0.01208
 20 C    -0.00602   -0.00056   -0.02508
 21 C    -0.00198    0.00557    0.00758
 22 C     0.02408    0.00291    0.00468
 23 C    -0.01958   -0.01666   -0.00479

