
  ___ ___ ___ _ _ _  
 |   |   |_  | | | | 
 | | | | | . | | | | 
 |__ |  _|___|_____|  1.3.0b1
 |___|_|             

User:   esb@s65n72.grendel.cscaa.dk
Date:   Wed Nov  8 15:13:06 2017
Arch:   x86_64
Pid:    97690
Python: 2.7.13
gpaw:   /home/esb/DFT/gpaw_git/gpaw
_gpaw:  /home/esb/DFT/gpaw_git/build/bin.linux-x86_64-2.7/gpaw-python
ase:    /home/esb/DFT/ase_git/ase (version 3.15.0b1)
numpy:  /comm/swstack/core/python/2.7.13/lib/python2.7/site-packages/numpy (version 1.13.3)
scipy:  /comm/swstack/core/python/2.7.13/lib/python2.7/site-packages/scipy (version 0.19.1)
units:  Angstrom and eV
cores:  16
Extra parameters: {'blacs': True}

Input parameters:
  basis: dzp
  gpts: [80 80 48]
  kpts: [1 1 1]
  maxiter: 99
  mixer: {backend: pulay,
          beta: 0.05,
          method: separate,
          nmaxold: 5,
          weight: 75}
  mode: lcao
  nbands: -50
  occupations: {name: fermi-dirac,
                width: 0.1}
  poissonsolver: {eps: 1e-07,
                  name: fd,
                  nn: 3,
                  relax: GS}
  xc: PBE

System changes: positions, numbers, cell, pbc, initial_charges, initial_magmoms 

Initialize ...

C-setup:
  name: Carbon
  id: 4aa54d4b901d75f77cc0ea3eec22967b
  Z: 6
  valence: 4
  core: 2
  charge: 0.0
  file: /home/esb/DFT/gpaw-setups-0.8.7929/C.PBE.gz
  cutoffs: 0.64(comp), 1.14(filt), 1.14(core), lmax=2
  valence states:
                energy  radius
    2s(2.00)   -13.751   0.635
    2p(2.00)    -5.284   0.635
    *s          13.461   0.635
    *p          21.927   0.635
    *d           0.000   0.635

  LCAO basis set for C:
    Name: dzp
    File: /home/esb/DFT/gpaw-setups-0.8.7929/C.dzp.basis.gz
    Number of radial functions: 5
    Number of spherical harmonics: 13
      l=0, rc=5.5469 Bohr: 2s-sz confined orbital
      l=1, rc=6.6719 Bohr: 2p-sz confined orbital
      l=0, rc=3.0312 Bohr: 2s-dz split-valence wave
      l=1, rc=3.7500 Bohr: 2p-dz split-valence wave
      l=2, rc=6.6719 Bohr: d-type Gaussian polarization

Reference energy: -24663.074771

Spin-paired calculation

Occupation numbers:
  Fermi-Dirac: width=0.1000 eV

Convergence criteria:
  Maximum total energy change: 0.0005 eV / electron
  Maximum integral of absolute density change: 0.0001 electrons
  Maximum integral of absolute eigenstate change: 4e-08 eV^2
  Maximum number of iterations: 99

Symmetries present (total): 1

  ( 1  0  0)
  ( 0  1  0)
  ( 0  0  1)

1 k-point (Gamma)
1 k-point in the irreducible part of the Brillouin zone
       k-points in crystal coordinates                weights
   0:     0.00000000    0.00000000    0.00000000          1/1

Wave functions: LCAO
  Diagonalizer: Serial LAPACK
  Atomic Correction: dense with blas
  Datatype: float
  Eigensolver: None 

LCAO using direct dense diagonalizer 

Densities:
  Coarse grid: 80*80*48 grid
  Fine grid: 160*160*96 grid
  Total Charge: 0.000000 

Density mixing:
  Method: separate
  Backend: pulay
  Linear mixing parameter: 0.05
  Mixing with 5 old densities
  Damping of long wave oscillations: 75 

Hamiltonian:
  XC and Coulomb potentials evaluated on a 160*160*96 grid
  Using the PBE Exchange-Correlation functional
  Interpolation: tri-quintic (5. degree polynomial)
  Poisson solver: Gauss-Seidel solver with 6 multi-grid levels
    Coarsest grid: 5 x 5 x 3 points
    Stencil: 6*3+1=19 point O(h^6) finite-difference Laplacian
    Max iterations: 1000
    Tolerance: 1.000000e-07 

Memory estimate:
  Process memory now: 77.59 MiB
  Calculator: 15.59 MiB
    Density: 6.13 MiB
      Arrays: 3.81 MiB
      Localized functions: 0.86 MiB
      Mixer: 1.46 MiB
    Hamiltonian: 5.40 MiB
      Arrays: 2.49 MiB
      XC: 0.00 MiB
      Poisson: 2.85 MiB
      vbar: 0.07 MiB
    Wavefunctions: 4.05 MiB
      C [qnM]: 0.23 MiB
      S, T [2 x qmm]: 1.49 MiB
      P [aqMi]: 0.01 MiB
      TCI: 0.00 MiB
      BasisFunctions: 2.33 MiB
      Eigensolver: 0.00 MiB

Total number of cores used: 16
Domain decomposition: 2 x 4 x 2

Number of atoms: 24
Number of atomic orbitals: 312
Number of bands in calculation: 98
Bands to converge: occupied states only
Number of valence electrons: 96

... initialized

Initializing position-dependent things.

Density initialized from atomic densities
           .--------------------------------------.  
          /|                                      |  
         / |                                      |  
        /  |                                      |  
       /   |                                      |  
      /    |                                      |  
     /     |                                      |  
    /      |                                      |  
   /       |                                      |  
  /        |           C  CC                      |  
 *         |    C   CC  C        C                |  
 |         |  C          C    C  C                |  
 |         .-C-C---C-C----------C-C---------------.  
 |        /    C C   C    C  C                   /   
 |       /             C                        /    
 |      /                                      /     
 |     /                                      /      
 |    /                                      /       
 |   /                                      /        
 |  /                                      /         
 | /                                      /          
 |/                                      /           
 *--------------------------------------*            

Positions:
   0 C     11.018861    5.898549    4.935852
   1 C     11.516983    7.100904    4.902350
   2 C     10.838546    8.281878    4.697688
   3 C     10.596033    9.708192    4.865049
   4 C      9.320646    4.053496    5.097806
   5 C     10.434850    4.724862    5.076700
   6 C      9.530624    8.761304    4.477195
   7 C      5.392185    8.824464    5.777172
   8 C      5.679253    3.437032    5.309392
   9 C      3.453317    7.613960    5.574594
  10 C      7.547506    9.927920    6.079185
  11 C      6.292227    9.906462    5.955954
  12 C      5.821230    6.144205    5.530180
  13 C      8.231229    3.193640    5.166810
  14 C      7.623718    7.619452    5.783774
  15 C      4.465677    5.535511    5.440128
  16 C      8.187501    6.278243    5.673598
  17 C      6.199631    7.574717    5.690599
  18 C      7.020895    3.892263    5.339407
  19 C      3.974626    8.810581    5.679516
  20 C      4.628810    4.129828    5.354420
  21 C      8.422937    8.818233    6.022144
  22 C      3.288245    6.325099    5.437312
  23 C      7.030295    5.348430    5.504043

Unit cell:
           periodic     x           y           z      points  spacing
  1. axis:    yes   16.000000    0.000000    0.000000    80     0.2000
  2. axis:    yes    0.000000   16.000000    0.000000    80     0.2000
  3. axis:    yes    0.000000    0.000000   10.000000    48     0.2083

Effective grid spacing dv^(1/3) = 0.2027

                     log10-error:    total        iterations:
           time      wfs    density  energy       fermi  poisson
iter:   1  15:13:08          +inf  -181.052458    3      6      
iter:   2  15:13:09         -0.90  -180.299488    4      3      
iter:   3  15:13:09         -0.93  -178.512402    33     4      
iter:   4  15:13:10         -1.09  -178.020474    3      2      
iter:   5  15:13:11         -1.14  -177.497259    32     4      
iter:   6  15:13:11         -1.45  -177.451243    4      3      
iter:   7  15:13:12         -1.62  -177.427715    3      3      
iter:   8  15:13:13         -1.73  -177.395059    3      3      
iter:   9  15:13:13         -1.84  -177.345584    4      3      
iter:  10  15:13:14         -2.14  -177.338954    3      2      
iter:  11  15:13:14         -2.36  -177.326266    3      2      
iter:  12  15:13:15         -2.54  -177.327414    2      2      
iter:  13  15:13:16         -2.61  -177.327415    3      2      
iter:  14  15:13:16         -2.73  -177.330365    3      2      
iter:  15  15:13:17         -3.04  -177.346031    3      1      
iter:  16  15:13:17         -3.20  -177.336632    2      1      
iter:  17  15:13:18         -3.37  -177.319710    3      1      
iter:  18  15:13:19         -3.59  -177.329348    2      1      
iter:  19  15:13:19         -3.75  -177.326689    2      1      
iter:  20  15:13:20         -3.87  -177.324438    2      1      
iter:  21  15:13:20         -4.02  -177.325068    2      1      

Converged after 21 iterations.

Dipole moment: (0.015230, -0.074089, 0.045906) |e|*Ang

Energy contributions relative to reference atoms: (reference = -24663.074771)

Kinetic:       +102.651581
Potential:     -112.428725
External:        +0.000000
XC:            -170.399623
Entropy (-ST):   -0.284417
Local:           +2.993907
--------------------------
Free energy:   -177.467276
Extrapolated:  -177.325068

Fermi level: -4.69697

 Band  Eigenvalues  Occupancy
    0    -22.64013    2.00000
    1    -22.36616    2.00000
    2    -21.65999    2.00000
    3    -20.96476    2.00000
    4    -20.54499    2.00000
    5    -20.24363    2.00000
    6    -19.80134    2.00000
    7    -19.24077    2.00000
    8    -18.62878    2.00000
    9    -18.12338    2.00000
   10    -17.43346    2.00000
   11    -16.70063    2.00000
   12    -16.53171    2.00000
   13    -16.05992    2.00000
   14    -15.29471    2.00000
   15    -14.32019    2.00000
   16    -13.75970    2.00000
   17    -13.54224    2.00000
   18    -13.48105    2.00000
   19    -12.42574    2.00000
   20    -12.01149    2.00000
   21    -11.92920    2.00000
   22    -11.36243    2.00000
   23    -11.22773    2.00000
   24    -10.80661    2.00000
   25    -10.58693    2.00000
   26    -10.37781    2.00000
   27     -9.94862    2.00000
   28     -9.50116    2.00000
   29     -9.46682    2.00000
   30     -9.28939    2.00000
   31     -8.90612    2.00000
   32     -8.79754    2.00000
   33     -8.65995    2.00000
   34     -7.95645    2.00000
   35     -7.56441    2.00000
   36     -7.46141    2.00000
   37     -7.33285    2.00000
   38     -7.23122    2.00000
   39     -6.69223    2.00000
   40     -6.53130    2.00000
   41     -6.41504    2.00000
   42     -6.06408    2.00000
   43     -5.62275    1.99981
   44     -5.46838    1.99911
   45     -5.06751    1.95200
   46     -4.96195    1.86800
   47     -4.86480    1.68538
   48     -4.57683    0.46246
   49     -4.28874    0.03318
   50     -3.63993    0.00005
   51     -3.53903    0.00002
   52     -3.12824    0.00000
   53     -2.87800    0.00000
   54     -2.34182    0.00000
   55     -2.20092    0.00000
   56     -1.74341    0.00000
   57     -1.58760    0.00000
   58     -0.82710    0.00000
   59      0.01539    0.00000
   60      0.38785    0.00000
   61      0.50972    0.00000
   62      0.94783    0.00000
   63      1.23708    0.00000
   64      2.70046    0.00000
   65      3.48287    0.00000
   66      3.86158    0.00000
   67      4.21981    0.00000
   68      4.43526    0.00000
   69      4.64179    0.00000
   70      4.81229    0.00000
   71      5.14780    0.00000
   72      5.62303    0.00000
   73      5.99118    0.00000
   74      6.21938    0.00000
   75      6.31399    0.00000
   76      6.75126    0.00000
   77      6.94499    0.00000
   78      7.13149    0.00000
   79      7.22161    0.00000
   80      7.67500    0.00000
   81      8.05077    0.00000
   82      8.23927    0.00000
   83      8.51360    0.00000
   84      8.74118    0.00000
   85      8.78683    0.00000
   86      8.91277    0.00000
   87      9.05086    0.00000
   88      9.22825    0.00000
   89      9.23822    0.00000
   90      9.40985    0.00000
   91      9.68531    0.00000
   92      9.77898    0.00000
   93      9.83169    0.00000
   94     10.05298    0.00000
   95     10.15151    0.00000
   96     10.24375    0.00000
   97     10.30893    0.00000


Forces in eV/Ang:
  0 C     1.10075   -0.52053    0.01488
  1 C    -1.25799    0.15395   -0.26011
  2 C     2.88290   -0.62996    0.21310
  3 C    -0.80339   -1.70781   -1.39711
  4 C    -2.57089   -3.30429    0.27459
  5 C     0.36212    1.38921   -0.09935
  6 C    -0.81605    2.80535    3.97547
  7 C    -0.06084   -0.54393   -0.12352
  8 C    -0.58894    0.11899    0.12321
  9 C     0.20383   -0.10621   -0.18942
 10 C     0.27942   -0.36661    0.02388
 11 C    -0.02568    0.53002    0.49000
 12 C    -0.68324   -0.06241    0.17555
 13 C     2.85176    2.79001   -0.10606
 14 C     1.44883   -0.07954    0.85292
 15 C     0.29551    0.49359   -0.10761
 16 C    -2.60641   -1.79132   -0.47175
 17 C    -0.53413    0.36795    0.65095
 18 C     0.43691   -0.52077   -0.26798
 19 C    -0.05569    0.16693    0.00855
 20 C     0.14405   -0.54021   -0.06325
 21 C    -0.99815   -0.47379   -4.11623
 22 C    -0.16450    0.02772    0.15527
 23 C     1.19586    1.79506    0.27659

System changes: positions 

Initializing position-dependent things.

Density initialized from wave functions
           .--------------------------------------.  
          /|                                      |  
         / |                                      |  
        /  |                                      |  
       /   |                                      |  
      /    |                                      |  
     /     |                                      |  
    /      |                                      |  
   /       |                                      |  
  /        |           C  CC                      |  
 *         |    C   CC  C        C                |  
 |         |  C          C    C  C                |  
 |         .-C-C---C--C---------CC----------------.  
 |        /    C C   C    C  C                   /   
 |       /             C                        /    
 |      /                                      /     
 |     /                                      /      
 |    /                                      /       
 |   /                                      /        
 |  /                                      /         
 | /                                      /          
 |/                                      /           
 *--------------------------------------*            

Positions:
   0 C     11.027785    5.894329    4.935972
   1 C     11.506783    7.102153    4.900241
   2 C     10.861920    8.276770    4.699416
   3 C     10.589519    9.694346    4.853721
   4 C      9.299802    4.026706    5.100032
   5 C     10.437785    4.736125    5.075894
   6 C      9.524007    8.784049    4.509427
   7 C      5.391692    8.820054    5.776171
   8 C      5.674478    3.437997    5.310391
   9 C      3.454970    7.613099    5.573059
  10 C      7.549771    9.924948    6.079378
  11 C      6.292019    9.910759    5.959927
  12 C      5.815691    6.143699    5.531604
  13 C      8.254351    3.216261    5.165950
  14 C      7.635465    7.618807    5.790689
  15 C      4.468073    5.539513    5.439256
  16 C      8.166370    6.263719    5.669773
  17 C      6.195301    7.577701    5.695877
  18 C      7.024437    3.888041    5.337234
  19 C      3.974174    8.811934    5.679586
  20 C      4.629978    4.125449    5.353907
  21 C      8.414844    8.814391    5.988770
  22 C      3.286911    6.325324    5.438571
  23 C      7.039991    5.362983    5.506285

Unit cell:
           periodic     x           y           z      points  spacing
  1. axis:    yes   16.000000    0.000000    0.000000    80     0.2000
  2. axis:    yes    0.000000   16.000000    0.000000    80     0.2000
  3. axis:    yes    0.000000    0.000000   10.000000    48     0.2083

Effective grid spacing dv^(1/3) = 0.2027

                     log10-error:    total        iterations:
           time      wfs    density  energy       fermi  poisson
iter:   1  15:13:22          +inf  -178.364869    4      5      
iter:   2  15:13:23         -1.77  -178.215090    3      2      
iter:   3  15:13:24         -1.96  -178.137286    3      2      
iter:   4  15:13:24         -2.15  -178.134232    3      1      
iter:   5  15:13:25         -2.24  -178.136737    3      2      
iter:   6  15:13:25         -2.38  -178.122684    3      2      
iter:   7  15:13:26         -2.46  -178.124793    3      2      
iter:   8  15:13:27         -2.77  -178.123064    3      2      
iter:   9  15:13:27         -2.98  -178.119403    2      1      
iter:  10  15:13:28         -3.14  -178.123627    2      2      
iter:  11  15:13:28         -3.37  -178.124212    2      1      
iter:  12  15:13:29         -3.44  -178.122929    2      1      
iter:  13  15:13:30         -3.62  -178.124226    2      1      
iter:  14  15:13:30         -3.71  -178.124779    2      1      
iter:  15  15:13:31         -3.84  -178.123695    2      1      
iter:  16  15:13:31         -4.04  -178.123695    2      1      

Converged after 16 iterations.

Dipole moment: (0.041041, -0.097609, 0.049462) |e|*Ang

Energy contributions relative to reference atoms: (reference = -24663.074771)

Kinetic:       +104.864668
Potential:     -114.222896
External:        +0.000000
XC:            -171.598357
Entropy (-ST):   -0.246406
Local:           +2.956093
--------------------------
Free energy:   -178.246899
Extrapolated:  -178.123695

Fermi level: -4.66114

 Band  Eigenvalues  Occupancy
    0    -22.64705    2.00000
    1    -22.39442    2.00000
    2    -21.65016    2.00000
    3    -20.97438    2.00000
    4    -20.50582    2.00000
    5    -20.24023    2.00000
    6    -19.84518    2.00000
    7    -19.27972    2.00000
    8    -18.57119    2.00000
    9    -18.16654    2.00000
   10    -17.51540    2.00000
   11    -16.72197    2.00000
   12    -16.58980    2.00000
   13    -16.03485    2.00000
   14    -15.29168    2.00000
   15    -14.40669    2.00000
   16    -13.79690    2.00000
   17    -13.53211    2.00000
   18    -13.51580    2.00000
   19    -12.42049    2.00000
   20    -12.06047    2.00000
   21    -11.92080    2.00000
   22    -11.39300    2.00000
   23    -11.31867    2.00000
   24    -10.75722    2.00000
   25    -10.58408    2.00000
   26    -10.37052    2.00000
   27     -9.95563    2.00000
   28     -9.55269    2.00000
   29     -9.51833    2.00000
   30     -9.32460    2.00000
   31     -8.90683    2.00000
   32     -8.80831    2.00000
   33     -8.62919    2.00000
   34     -7.96717    2.00000
   35     -7.64029    2.00000
   36     -7.44708    2.00000
   37     -7.30991    2.00000
   38     -7.29652    2.00000
   39     -6.76282    2.00000
   40     -6.54526    2.00000
   41     -6.46091    2.00000
   42     -6.06751    2.00000
   43     -5.63874    1.99989
   44     -5.53972    1.99969
   45     -5.01738    1.94483
   46     -4.97871    1.91982
   47     -4.84424    1.72377
   48     -4.52307    0.40181
   49     -4.13297    0.01012
   50     -3.63421    0.00007
   51     -3.44897    0.00001
   52     -3.15673    0.00000
   53     -2.85950    0.00000
   54     -2.30614    0.00000
   55     -2.05141    0.00000
   56     -1.66727    0.00000
   57     -1.53997    0.00000
   58     -0.73106    0.00000
   59      0.02221    0.00000
   60      0.42236    0.00000
   61      0.59996    0.00000
   62      1.11431    0.00000
   63      1.34734    0.00000
   64      2.80929    0.00000
   65      3.54383    0.00000
   66      3.92008    0.00000
   67      4.29767    0.00000
   68      4.54487    0.00000
   69      4.72593    0.00000
   70      4.98008    0.00000
   71      5.33094    0.00000
   72      5.69739    0.00000
   73      5.98114    0.00000
   74      6.19169    0.00000
   75      6.48149    0.00000
   76      6.78360    0.00000
   77      6.94320    0.00000
   78      7.08392    0.00000
   79      7.28849    0.00000
   80      7.84170    0.00000
   81      7.91237    0.00000
   82      8.27924    0.00000
   83      8.54146    0.00000
   84      8.70480    0.00000
   85      8.82650    0.00000
   86      8.99150    0.00000
   87      9.09337    0.00000
   88      9.22070    0.00000
   89      9.25109    0.00000
   90      9.45746    0.00000
   91      9.66299    0.00000
   92      9.73268    0.00000
   93      9.81324    0.00000
   94     10.12038    0.00000
   95     10.15833    0.00000
   96     10.25865    0.00000
   97     10.32976    0.00000


Forces in eV/Ang:
  0 C     0.77980   -1.04602   -0.00728
  1 C    -0.84824    0.45513   -0.20950
  2 C     2.04705   -0.18950    0.06604
  3 C    -0.42504   -1.19878   -1.22551
  4 C     0.89481   -0.98324    0.11594
  5 C    -1.15445    0.37830   -0.00705
  6 C    -0.60755    2.16981    4.12131
  7 C    -0.02287   -0.27903   -0.06680
  8 C     0.36251   -0.17340    0.08839
  9 C     0.22386   -0.01709   -0.19101
 10 C    -0.03421   -0.18318   -0.00877
 11 C     0.09412    0.34535    0.47141
 12 C    -0.53812    0.19268    0.19802
 13 C     0.80962    1.47729    0.00997
 14 C     0.44503   -0.50884    0.70860
 15 C     0.22260    0.29791   -0.12178
 16 C    -1.66785   -1.18575   -0.42962
 17 C    -0.08691    0.16646    0.70730
 18 C     0.18067   -0.19277   -0.18550
 19 C    -0.11283    0.12492   -0.00424
 20 C    -0.36625    0.04332   -0.03887
 21 C    -0.40042   -0.34909   -4.25577
 22 C    -0.17852   -0.05144    0.15221
 23 C     0.35638    0.69616    0.17101

System changes: positions 

Initializing position-dependent things.

Density initialized from wave functions
           .--------------------------------------.  
          /|                                      |  
         / |                                      |  
        /  |                                      |  
       /   |                                      |  
      /    |                                      |  
     /     |                                      |  
    /      |                                      |  
   /       |                                      |  
  /        |           C  CC                      |  
 *         |    C   CC  C        C                |  
 |         |  C          C    C  C                |  
 |         .-C-C---C--C---------CC----------------.  
 |        /    C C   C    C  C                   /   
 |       /             C                        /    
 |      /                                      /     
 |     /                                      /      
 |    /                                      /       
 |   /                                      /        
 |  /                                      /         
 | /                                      /          
 |/                                      /           
 *--------------------------------------*            

Positions:
   0 C     11.034775    5.886112    4.935938
   1 C     11.499106    7.105640    4.898407
   2 C     10.880261    8.274632    4.700153
   3 C     10.585463    9.683581    4.843140
   4 C      9.303172    4.015567    5.101206
   5 C     10.429853    4.740554    5.075723
   6 C      9.518612    8.803187    4.544135
   7 C      5.391453    8.817371    5.775536
   8 C      5.676392    3.436884    5.311182
   9 C      3.456840    7.612847    5.571444
  10 C      7.549862    9.923174    6.079344
  11 C      6.292670    9.913906    5.963940
  12 C      5.810960    6.145021    5.533253
  13 C      8.263681    3.230358    5.165893
  14 C      7.640449    7.615021    5.796862
  15 C      4.470046    5.542272    5.438242
  16 C      8.151113    6.252948    5.666085
  17 C      6.194023    7.579354    5.701796
  18 C      7.026277    3.886011    5.335564
  19 C      3.973288    8.813043    5.679565
  20 C      4.627497    4.125107    5.353549
  21 C      8.410729    8.811285    5.952917
  22 C      3.285417    6.324984    5.439863
  23 C      7.044026    5.370209    5.507861

Unit cell:
           periodic     x           y           z      points  spacing
  1. axis:    yes   16.000000    0.000000    0.000000    80     0.2000
  2. axis:    yes    0.000000   16.000000    0.000000    80     0.2000
  3. axis:    yes    0.000000    0.000000   10.000000    48     0.2083

Effective grid spacing dv^(1/3) = 0.2027

                     log10-error:    total        iterations:
           time      wfs    density  energy       fermi  poisson
iter:   1  15:13:33          +inf  -178.837486    4      5      
iter:   2  15:13:34         -1.87  -178.709309    3      2      
iter:   3  15:13:35         -2.09  -178.650688    2      2      
iter:   4  15:13:35         -2.29  -178.649044    3      1      
iter:   5  15:13:36         -2.38  -178.657309    3      2      
iter:   6  15:13:37         -2.46  -178.644942    2      2      
iter:   7  15:13:37         -2.66  -178.640307    2      1      
iter:   8  15:13:38         -2.86  -178.645052    3      2      
iter:   9  15:13:38         -3.10  -178.643669    2      1      
iter:  10  15:13:39         -3.24  -178.644847    2      2      
iter:  11  15:13:39         -3.60  -178.645655    2      1      
iter:  12  15:13:40         -3.64  -178.645767    2      1      
iter:  13  15:13:41         -3.88  -178.644684    2      1      
iter:  14  15:13:41         -4.04  -178.645485    2      1      

Converged after 14 iterations.

Dipole moment: (0.081449, -0.108692, 0.045272) |e|*Ang

Energy contributions relative to reference atoms: (reference = -24663.074771)

Kinetic:       +107.424947
Potential:     -116.289831
External:        +0.000000
XC:            -172.629363
Entropy (-ST):   -0.239083
Local:           +2.968304
--------------------------
Free energy:   -178.765027
Extrapolated:  -178.645485

Fermi level: -4.63057

 Band  Eigenvalues  Occupancy
    0    -22.66718    2.00000
    1    -22.44187    2.00000
    2    -21.63629    2.00000
    3    -20.97480    2.00000
    4    -20.51014    2.00000
    5    -20.23724    2.00000
    6    -19.85123    2.00000
    7    -19.29432    2.00000
    8    -18.57461    2.00000
    9    -18.18073    2.00000
   10    -17.54829    2.00000
   11    -16.72710    2.00000
   12    -16.62804    2.00000
   13    -16.04006    2.00000
   14    -15.33025    2.00000
   15    -14.45523    2.00000
   16    -13.83645    2.00000
   17    -13.56333    2.00000
   18    -13.49810    2.00000
   19    -12.43268    2.00000
   20    -12.16256    2.00000
   21    -11.92089    2.00000
   22    -11.47469    2.00000
   23    -11.27874    2.00000
   24    -10.71042    2.00000
   25    -10.58412    2.00000
   26    -10.37535    2.00000
   27     -9.96435    2.00000
   28     -9.60161    2.00000
   29     -9.55882    2.00000
   30     -9.34620    2.00000
   31     -8.93441    2.00000
   32     -8.83343    2.00000
   33     -8.63280    2.00000
   34     -7.97158    2.00000
   35     -7.72632    2.00000
   36     -7.44569    2.00000
   37     -7.32431    2.00000
   38     -7.28628    2.00000
   39     -6.80634    2.00000
   40     -6.55769    2.00000
   41     -6.45976    2.00000
   42     -6.06880    2.00000
   43     -5.67803    1.99994
   44     -5.55954    1.99982
   45     -5.04241    1.96798
   46     -4.91226    1.88716
   47     -4.82352    1.74638
   48     -4.48983    0.39328
   49     -4.03864    0.00536
   50     -3.62449    0.00009
   51     -3.35691    0.00001
   52     -3.15442    0.00000
   53     -2.89242    0.00000
   54     -2.24205    0.00000
   55     -1.99441    0.00000
   56     -1.65377    0.00000
   57     -1.49696    0.00000
   58     -0.64842    0.00000
   59      0.04637    0.00000
   60      0.50479    0.00000
   61      0.66346    0.00000
   62      1.18202    0.00000
   63      1.52861    0.00000
   64      2.91042    0.00000
   65      3.59853    0.00000
   66      3.92075    0.00000
   67      4.38478    0.00000
   68      4.59877    0.00000
   69      4.78400    0.00000
   70      5.14508    0.00000
   71      5.45534    0.00000
   72      5.72949    0.00000
   73      5.97388    0.00000
   74      6.09466    0.00000
   75      6.64205    0.00000
   76      6.82192    0.00000
   77      6.97667    0.00000
   78      7.09766    0.00000
   79      7.32565    0.00000
   80      7.82871    0.00000
   81      7.99081    0.00000
   82      8.30553    0.00000
   83      8.55932    0.00000
   84      8.69945    0.00000
   85      8.84777    0.00000
   86      9.03477    0.00000
   87      9.12014    0.00000
   88      9.22813    0.00000
   89      9.26175    0.00000
   90      9.48720    0.00000
   91      9.65699    0.00000
   92      9.73354    0.00000
   93      9.82135    0.00000
   94     10.10879    0.00000
   95     10.22533    0.00000
   96     10.28443    0.00000
   97     10.35514    0.00000


Forces in eV/Ang:
  0 C     0.74064   -0.90698   -0.00803
  1 C    -0.68203   -0.09927   -0.14861
  2 C     1.34306    0.26337   -0.04399
  3 C     0.02951   -0.66043   -1.09104
  4 C     1.43974   -0.46989    0.06048
  5 C    -0.94812    0.48234    0.00029
  6 C    -0.69314    1.59570    4.25421
  7 C    -0.02563   -0.10181   -0.00919
  8 C     0.19460   -0.00181    0.08719
  9 C     0.19775   -0.02868   -0.19960
 10 C     0.00766   -0.11321   -0.05331
 11 C     0.01431    0.17544    0.43908
 12 C    -0.36314    0.26973    0.20174
 13 C     0.05298    0.84944    0.03484
 14 C    -0.03626   -0.70740    0.57646
 15 C     0.09630    0.23512   -0.11925
 16 C    -0.99169   -0.69790   -0.37786
 17 C     0.02684    0.06920    0.74570
 18 C     0.14124   -0.02298   -0.13963
 19 C    -0.08419    0.12243   -0.00881
 20 C    -0.05906   -0.07950   -0.05910
 21 C    -0.05504   -0.25661   -4.34807
 22 C    -0.17309   -0.04283    0.15415
 23 C    -0.26074    0.08009    0.06959

System changes: positions 

Initializing position-dependent things.

Density initialized from wave functions
           .--------------------------------------.  
          /|                                      |  
         / |                                      |  
        /  |                                      |  
       /   |                                      |  
      /    |                                      |  
     /     |                                      |  
    /      |                                      |  
   /       |                                      |  
  /        |           C  CC                      |  
 *         |    C   CC  C        C                |  
 |         |  C          C    C  C                |  
 |         .-C-C---C--C---------CC----------------.  
 |        /    C C   C    C  C                   /   
 |       /             C                        /    
 |      /                                      /     
 |     /                                      /      
 |    /                                      /       
 |   /                                      /        
 |  /                                      /         
 | /                                      /          
 |/                                      /           
 *--------------------------------------*            

Positions:
   0 C     11.041867    5.879413    4.935916
   1 C     11.492335    7.104107    4.897016
   2 C     10.893640    8.275979    4.700085
   3 C     10.584922    9.676800    4.833346
   4 C      9.308165    4.006523    5.102068
   5 C     10.424939    4.746908    5.075527
   6 C      9.512167    8.818323    4.580595
   7 C      5.391149    8.815928    5.775337
   8 C      5.676014    3.437506    5.312010
   9 C      3.458505    7.612406    5.569722
  10 C      7.550606    9.921804    6.078951
  11 C      6.292532    9.915813    5.967774
  12 C      5.807516    6.146805    5.534948
  13 C      8.268509    3.240503    5.165945
  14 C      7.642279    7.609824    5.802150
  15 C      4.471030    5.544723    5.437242
  16 C      8.140549    6.245632    5.662731
  17 C      6.193295    7.580382    5.708121
  18 C      7.028049    3.885113    5.334181
  19 C      3.972685    8.814191    5.679516
  20 C      4.628101    4.123156    5.352984
  21 C      8.408980    8.808802    5.915633
  22 C      3.283952    6.324785    5.441202
  23 C      7.043555    5.373244    5.508686

Unit cell:
           periodic     x           y           z      points  spacing
  1. axis:    yes   16.000000    0.000000    0.000000    80     0.2000
  2. axis:    yes    0.000000   16.000000    0.000000    80     0.2000
  3. axis:    yes    0.000000    0.000000   10.000000    48     0.2083

Effective grid spacing dv^(1/3) = 0.2027

                     log10-error:    total        iterations:
           time      wfs    density  energy       fermi  poisson
iter:   1  15:13:43          +inf  -179.238186    3      5      
iter:   2  15:13:44         -1.94  -179.136052    3      2      
iter:   3  15:13:45         -2.19  -179.092271    2      2      
iter:   4  15:13:45         -2.37  -179.090815    2      1      
iter:   5  15:13:46         -2.46  -179.097525    3      2      
iter:   6  15:13:46         -2.52  -179.086039    2      1      
iter:   7  15:13:47         -2.82  -179.082661    2      1      
iter:   8  15:13:48         -2.88  -179.090402    3      2      
iter:   9  15:13:48         -2.93  -179.083738    2      1      
iter:  10  15:13:49         -3.21  -179.087177    2      1      
iter:  11  15:13:49         -3.29  -179.087441    2      1      
iter:  12  15:13:50         -3.48  -179.086415    2      1      
iter:  13  15:13:50         -3.52  -179.087576    2      1      
iter:  14  15:13:51         -3.82  -179.088241    2      1      
iter:  15  15:13:52         -3.73  -179.088374    2      1      
iter:  16  15:13:52         -4.08  -179.088769    2      1      

Converged after 16 iterations.

Dipole moment: (0.115455, -0.116048, 0.038081) |e|*Ang

Energy contributions relative to reference atoms: (reference = -24663.074771)

Kinetic:       +109.679730
Potential:     -118.101611
External:        +0.000000
XC:            -173.515886
Entropy (-ST):   -0.240812
Local:           +2.969403
--------------------------
Free energy:   -179.209175
Extrapolated:  -179.088769

Fermi level: -4.61139

 Band  Eigenvalues  Occupancy
    0    -22.69639    2.00000
    1    -22.47168    2.00000
    2    -21.62402    2.00000
    3    -20.97113    2.00000
    4    -20.51574    2.00000
    5    -20.23841    2.00000
    6    -19.85463    2.00000
    7    -19.30586    2.00000
    8    -18.57233    2.00000
    9    -18.19587    2.00000
   10    -17.56596    2.00000
   11    -16.72874    2.00000
   12    -16.65633    2.00000
   13    -16.04194    2.00000
   14    -15.35745    2.00000
   15    -14.50899    2.00000
   16    -13.85887    2.00000
   17    -13.59024    2.00000
   18    -13.49220    2.00000
   19    -12.49115    2.00000
   20    -12.26383    2.00000
   21    -11.92891    2.00000
   22    -11.53064    2.00000
   23    -11.24441    2.00000
   24    -10.67061    2.00000
   25    -10.57835    2.00000
   26    -10.38378    2.00000
   27     -9.96964    2.00000
   28     -9.62624    2.00000
   29     -9.58529    2.00000
   30     -9.35971    2.00000
   31     -8.96203    2.00000
   32     -8.85441    2.00000
   33     -8.64090    2.00000
   34     -7.98496    2.00000
   35     -7.83160    2.00000
   36     -7.45011    2.00000
   37     -7.32485    2.00000
   38     -7.26333    2.00000
   39     -6.84341    2.00000
   40     -6.56545    2.00000
   41     -6.46143    2.00000
   42     -6.07032    2.00000
   43     -5.73925    1.99997
   44     -5.55457    1.99984
   45     -5.05264    1.97604
   46     -4.86860    1.85810
   47     -4.81069    1.76012
   48     -4.47351    0.40239
   49     -3.97534    0.00345
   50     -3.60074    0.00008
   51     -3.28401    0.00000
   52     -3.15265    0.00000
   53     -2.87625    0.00000
   54     -2.18268    0.00000
   55     -1.94073    0.00000
   56     -1.63849    0.00000
   57     -1.46459    0.00000
   58     -0.59644    0.00000
   59      0.08168    0.00000
   60      0.57407    0.00000
   61      0.71453    0.00000
   62      1.22201    0.00000
   63      1.71312    0.00000
   64      3.00341    0.00000
   65      3.65297    0.00000
   66      3.87008    0.00000
   67      4.46366    0.00000
   68      4.62913    0.00000
   69      4.85190    0.00000
   70      5.35385    0.00000
   71      5.53648    0.00000
   72      5.75832    0.00000
   73      5.97563    0.00000
   74      6.05775    0.00000
   75      6.71517    0.00000
   76      6.82617    0.00000
   77      7.03486    0.00000
   78      7.12367    0.00000
   79      7.37066    0.00000
   80      7.79041    0.00000
   81      8.04591    0.00000
   82      8.34395    0.00000
   83      8.56119    0.00000
   84      8.70330    0.00000
   85      8.85597    0.00000
   86      9.07420    0.00000
   87      9.14084    0.00000
   88      9.24152    0.00000
   89      9.27349    0.00000
   90      9.50889    0.00000
   91      9.65835    0.00000
   92      9.73806    0.00000
   93      9.83313    0.00000
   94     10.10529    0.00000
   95     10.25405    0.00000
   96     10.30124    0.00000
   97     10.37757    0.00000


Forces in eV/Ang:
  0 C     0.72421   -0.80715   -0.03280
  1 C    -0.56591   -0.10844   -0.15188
  2 C     0.93655    0.35417   -0.09305
  3 C     0.39172   -0.17273   -0.99650
  4 C     1.80901   -0.12196    0.01954
  5 C    -0.96395    0.27760    0.03500
  6 C    -0.80842    1.14768    4.33558
  7 C    -0.04497   -0.00653    0.04847
  8 C     0.44342   -0.09834    0.06740
  9 C     0.17395    0.00435   -0.20139
 10 C    -0.00428   -0.10216   -0.12678
 11 C     0.06973    0.06430    0.41993
 12 C    -0.27971    0.26996    0.20149
 13 C    -0.34602    0.44200    0.06075
 14 C    -0.30236   -0.73539    0.43495
 15 C     0.01795    0.11500   -0.11217
 16 C    -0.50867   -0.35749   -0.29869
 17 C     0.06376    0.01938    0.76108
 18 C    -0.00074    0.06896   -0.10073
 19 C    -0.05728    0.07203   -0.01670
 20 C    -0.21049    0.13673   -0.05792
 21 C     0.14888   -0.19333   -4.34804
 22 C    -0.13986   -0.05100    0.15043
 23 C    -0.59019   -0.27101    0.01458

System changes: positions 

Initializing position-dependent things.

Density initialized from wave functions
           .--------------------------------------.  
          /|                                      |  
         / |                                      |  
        /  |                                      |  
       /   |                                      |  
      /    |                                      |  
     /     |                                      |  
    /      |                                      |  
   /       |                                      |  
  /        |           C  CC                      |  
 *         |    C   CC  C        C                |  
 |         |  C          C    C  C                |  
 |         .-C-C---C--C---------CC----------------.  
 |        /    C C   C    C  C                   /   
 |       /             C                        /    
 |      /                                      /     
 |     /                                      /      
 |    /                                      /       
 |   /                                      /        
 |  /                                      /         
 | /                                      /          
 |/                                      /           
 *--------------------------------------*            

Positions:
   0 C     11.049146    5.873728    4.935666
   1 C     11.486078    7.103259    4.895438
   2 C     10.904946    8.277139    4.699826
   3 C     10.586888    9.673464    4.824036
   4 C      9.313607    3.998385    5.102738
   5 C     10.420446    4.751783    5.075597
   6 C      9.504540    8.830632    4.617882
   7 C      5.390632    8.814920    5.775564
   8 C      5.677760    3.437070    5.312677
   9 C      3.459985    7.612249    5.567981
  10 C      7.551371    9.920283    6.077932
  11 C      6.293002    9.917067    5.971526
  12 C      5.804454    6.148305    5.536636
  13 C      8.272137    3.248709    5.166133
  14 C      7.643019    7.604934    5.806425
  15 C      4.471524    5.546255    5.436307
  16 C      8.132821    6.240333    5.660004
  17 C      6.192429    7.581235    5.714554
  18 C      7.028677    3.884594    5.333033
  19 C      3.972328    8.814887    5.679406
  20 C      4.627006    4.123152    5.352446
  21 C      8.408217    8.806673    5.878241
  22 C      3.282799    6.324540    5.442516
  23 C      7.041482    5.374665    5.509226

Unit cell:
           periodic     x           y           z      points  spacing
  1. axis:    yes   16.000000    0.000000    0.000000    80     0.2000
  2. axis:    yes    0.000000   16.000000    0.000000    80     0.2000
  3. axis:    yes    0.000000    0.000000   10.000000    48     0.2083

Effective grid spacing dv^(1/3) = 0.2027

                     log10-error:    total        iterations:
           time      wfs    density  energy       fermi  poisson
iter:   1  15:13:54          +inf  -179.614033    3      5      
iter:   2  15:13:55         -2.00  -179.533709    3      2      
iter:   3  15:13:56         -2.25  -179.500621    2      2      
iter:   4  15:13:56         -2.41  -179.497501    3      1      
iter:   5  15:13:57         -2.55  -179.502444    3      2      
iter:   6  15:13:57         -2.58  -179.494267    2      1      
iter:   7  15:13:58         -2.85  -179.494593    2      2      
iter:   8  15:13:58         -3.02  -179.493683    3      1      
iter:   9  15:13:59         -3.13  -179.491725    2      1      
iter:  10  15:14:00         -3.30  -179.491747    2      1      
iter:  11  15:14:00         -3.54  -179.494798    2      1      
iter:  12  15:14:01         -3.65  -179.496021    2      1      
iter:  13  15:14:01         -3.79  -179.495146    2      1      
iter:  14  15:14:02         -3.86  -179.495875    2      1      
iter:  15  15:14:03         -3.97  -179.495424    2      1      
iter:  16  15:14:03         -4.10  -179.495256    2      1      

Converged after 16 iterations.

Dipole moment: (0.144514, -0.126249, 0.030152) |e|*Ang

Energy contributions relative to reference atoms: (reference = -24663.074771)

Kinetic:       +111.151076
Potential:     -119.318191
External:        +0.000000
XC:            -174.179789
Entropy (-ST):   -0.248509
Local:           +2.975902
--------------------------
Free energy:   -179.619510
Extrapolated:  -179.495256

Fermi level: -4.59894

 Band  Eigenvalues  Occupancy
    0    -22.71425    2.00000
    1    -22.47377    2.00000
    2    -21.61240    2.00000
    3    -20.96690    2.00000
    4    -20.51835    2.00000
    5    -20.23711    2.00000
    6    -19.85354    2.00000
    7    -19.31823    2.00000
    8    -18.57291    2.00000
    9    -18.20679    2.00000
   10    -17.57558    2.00000
   11    -16.73603    2.00000
   12    -16.68119    2.00000
   13    -16.04525    2.00000
   14    -15.38364    2.00000
   15    -14.56920    2.00000
   16    -13.87518    2.00000
   17    -13.61501    2.00000
   18    -13.50200    2.00000
   19    -12.61449    2.00000
   20    -12.31028    2.00000
   21    -11.93952    2.00000
   22    -11.57034    2.00000
   23    -11.21570    2.00000
   24    -10.64857    2.00000
   25    -10.55848    2.00000
   26    -10.39013    2.00000
   27     -9.96831    2.00000
   28     -9.64362    2.00000
   29     -9.59732    2.00000
   30     -9.36784    2.00000
   31     -8.99222    2.00000
   32     -8.86657    2.00000
   33     -8.64722    2.00000
   34     -8.02505    2.00000
   35     -7.91995    2.00000
   36     -7.45138    2.00000
   37     -7.31526    2.00000
   38     -7.24251    2.00000
   39     -6.87271    2.00000
   40     -6.56895    2.00000
   41     -6.45182    2.00000
   42     -6.06701    2.00000
   43     -5.79426    1.99999
   44     -5.54627    1.99985
   45     -5.05498    1.97930
   46     -4.83553    1.82838
   47     -4.79994    1.76367
   48     -4.46833    0.42626
   49     -3.93008    0.00249
   50     -3.57459    0.00007
   51     -3.22688    0.00000
   52     -3.13234    0.00000
   53     -2.88813    0.00000
   54     -2.11829    0.00000
   55     -1.89439    0.00000
   56     -1.62627    0.00000
   57     -1.43782    0.00000
   58     -0.55736    0.00000
   59      0.11263    0.00000
   60      0.62502    0.00000
   61      0.74036    0.00000
   62      1.25749    0.00000
   63      1.87123    0.00000
   64      3.08677    0.00000
   65      3.67099    0.00000
   66      3.78622    0.00000
   67      4.51198    0.00000
   68      4.66032    0.00000
   69      4.90862    0.00000
   70      5.51541    0.00000
   71      5.58377    0.00000
   72      5.89190    0.00000
   73      5.99731    0.00000
   74      6.08823    0.00000
   75      6.73911    0.00000
   76      6.85749    0.00000
   77      7.09935    0.00000
   78      7.14102    0.00000
   79      7.40298    0.00000
   80      7.77681    0.00000
   81      8.08357    0.00000
   82      8.38783    0.00000
   83      8.55661    0.00000
   84      8.70890    0.00000
   85      8.86434    0.00000
   86      9.11097    0.00000
   87      9.15499    0.00000
   88      9.25734    0.00000
   89      9.28356    0.00000
   90      9.52568    0.00000
   91      9.66596    0.00000
   92      9.74353    0.00000
   93      9.85409    0.00000
   94     10.10038    0.00000
   95     10.26678    0.00000
   96     10.31028    0.00000
   97     10.39088    0.00000


Forces in eV/Ang:
  0 C     0.66212   -0.77076   -0.05573
  1 C    -0.44247   -0.15656   -0.14819
  2 C     0.54018    0.50402   -0.09957
  3 C     0.58123    0.10008   -0.97345
  4 C     2.01551    0.09483   -0.00197
  5 C    -0.88467    0.19402    0.05134
  6 C    -0.71475    0.87729    4.32980
  7 C    -0.04609    0.07096    0.10845
  8 C     0.29770   -0.01036    0.05918
  9 C     0.13632    0.00083   -0.20426
 10 C     0.04743   -0.10839   -0.20453
 11 C     0.07287   -0.03453    0.38841
 12 C    -0.18983    0.26147    0.21111
 13 C    -0.62618    0.16473    0.08010
 14 C    -0.47294   -0.69917    0.28999
 15 C    -0.07178    0.05725   -0.09821
 16 C    -0.19101   -0.12238   -0.23483
 17 C     0.08242   -0.01712    0.75751
 18 C    -0.06034    0.13093   -0.06748
 19 C    -0.04361    0.07159   -0.02058
 20 C    -0.04592    0.06664   -0.07225
 21 C     0.23064   -0.14680   -4.20450
 22 C    -0.13637   -0.04804    0.14179
 23 C    -0.79777   -0.48319   -0.01121

System changes: positions 

Initializing position-dependent things.

Density initialized from wave functions
           .--------------------------------------.  
          /|                                      |  
         / |                                      |  
        /  |                                      |  
       /   |                                      |  
      /    |                                      |  
     /     |                                      |  
    /      |                                      |  
   /       |                                      |  
  /        |           C  CC                      |  
 *         |    C   CC  C        C                |  
 |         |  C          C    C  C                |  
 |         .-C-C---C--C---------CC----------------.  
 |        /    C C   C    C  C                   /   
 |       /             C                        /    
 |      /                                      /     
 |     /                                      /      
 |    /                                      /       
 |   /                                      /        
 |  /                                      /         
 | /                                      /          
 |/                                      /           
 *--------------------------------------*            

Positions:
   0 C     11.056015    5.868005    4.935187
   1 C     11.480609    7.102597    4.893772
   2 C     10.913727    8.279228    4.699747
   3 C     10.589791    9.671544    4.814362
   4 C      9.319751    3.990931    5.103346
   5 C     10.416688    4.756148    5.075777
   6 C      9.498116    8.841793    4.655752
   7 C      5.390122    8.814340    5.776312
   8 C      5.677510    3.437623    5.313306
   9 C      3.461139    7.611992    5.566176
  10 C      7.552767    9.918505    6.076168
  11 C      6.293522    9.917656    5.975091
  12 C      5.801950    6.149603    5.538476
  13 C      8.274619    3.255666    5.166457
  14 C      7.643063    7.600730    5.809567
  15 C      4.471304    5.547477    5.435496
  16 C      8.126675    6.236276    5.657735
  17 C      6.191474    7.581934    5.721030
  18 C      7.028963    3.884343    5.332099
  19 C      3.972040    8.815695    5.679269
  20 C      4.627717    4.122038    5.351748
  21 C      8.407459    8.804772    5.841682
  22 C      3.281590    6.324336    5.443768
  23 C      7.038488    5.375276    5.509735

Unit cell:
           periodic     x           y           z      points  spacing
  1. axis:    yes   16.000000    0.000000    0.000000    80     0.2000
  2. axis:    yes    0.000000   16.000000    0.000000    80     0.2000
  3. axis:    yes    0.000000    0.000000   10.000000    48     0.2083

Effective grid spacing dv^(1/3) = 0.2027

                     log10-error:    total        iterations:
           time      wfs    density  energy       fermi  poisson
iter:   1  15:14:05          +inf  -179.983712    3      5      
iter:   2  15:14:06         -2.02  -179.906169    3      2      
iter:   3  15:14:06         -2.28  -179.874166    2      2      
iter:   4  15:14:07         -2.44  -179.877453    3      2      
iter:   5  15:14:08         -2.53  -179.874122    3      2      
iter:   6  15:14:08         -2.62  -179.866321    3      1      
iter:   7  15:14:09         -2.85  -179.866194    3      2      
iter:   8  15:14:09         -2.85  -179.869512    2      1      
iter:   9  15:14:10         -3.20  -179.864905    2      1      
iter:  10  15:14:11         -3.38  -179.866063    2      1      
iter:  11  15:14:11         -3.52  -179.869198    2      1      
iter:  12  15:14:12         -3.59  -179.868044    2      1      
iter:  13  15:14:12         -3.81  -179.868467    2      1      
iter:  14  15:14:13         -3.88  -179.868729    2      1      
iter:  15  15:14:14         -3.96  -179.868526    2      1      
iter:  16  15:14:14         -4.25  -179.869276    2      1      

Converged after 16 iterations.

Dipole moment: (0.169310, -0.136237, 0.021667) |e|*Ang

Energy contributions relative to reference atoms: (reference = -24663.074771)

Kinetic:       +112.672271
Potential:     -120.580576
External:        +0.000000
XC:            -174.816703
Entropy (-ST):   -0.257895
Local:           +2.984679
--------------------------
Free energy:   -179.998224
Extrapolated:  -179.869276

Fermi level: -4.59088

 Band  Eigenvalues  Occupancy
    0    -22.73646    2.00000
    1    -22.47518    2.00000
    2    -21.60242    2.00000
    3    -20.96183    2.00000
    4    -20.51965    2.00000
    5    -20.23668    2.00000
    6    -19.84991    2.00000
    7    -19.33419    2.00000
    8    -18.57374    2.00000
    9    -18.22178    2.00000
   10    -17.57963    2.00000
   11    -16.74084    2.00000
   12    -16.71447    2.00000
   13    -16.04761    2.00000
   14    -15.40804    2.00000
   15    -14.64117    2.00000
   16    -13.88200    2.00000
   17    -13.64510    2.00000
   18    -13.52310    2.00000
   19    -12.75030    2.00000
   20    -12.32248    2.00000
   21    -11.95241    2.00000
   22    -11.59865    2.00000
   23    -11.19211    2.00000
   24    -10.64886    2.00000
   25    -10.52676    2.00000
   26    -10.39561    2.00000
   27     -9.96461    2.00000
   28     -9.66084    2.00000
   29     -9.60323    2.00000
   30     -9.37222    2.00000
   31     -9.02976    2.00000
   32     -8.87340    2.00000
   33     -8.65515    2.00000
   34     -8.12291    2.00000
   35     -7.95105    2.00000
   36     -7.44706    2.00000
   37     -7.30495    2.00000
   38     -7.22590    2.00000
   39     -6.89479    2.00000
   40     -6.56960    2.00000
   41     -6.44997    2.00000
   42     -6.06500    2.00000
   43     -5.84430    1.99999
   44     -5.53702    1.99984
   45     -5.05238    1.98039
   46     -4.81210    1.80267
   47     -4.79010    1.75994
   48     -4.46868    0.45517
   49     -3.89698    0.00194
   50     -3.54505    0.00006
   51     -3.19199    0.00000
   52     -3.09792    0.00000
   53     -2.87208    0.00000
   54     -2.05169    0.00000
   55     -1.85196    0.00000
   56     -1.61174    0.00000
   57     -1.41851    0.00000
   58     -0.51814    0.00000
   59      0.14542    0.00000
   60      0.66691    0.00000
   61      0.76787    0.00000
   62      1.28836    0.00000
   63      1.99809    0.00000
   64      3.15225    0.00000
   65      3.60377    0.00000
   66      3.76991    0.00000
   67      4.54545    0.00000
   68      4.68817    0.00000
   69      4.95499    0.00000
   70      5.55085    0.00000
   71      5.61531    0.00000
   72      5.94423    0.00000
   73      6.04534    0.00000
   74      6.42379    0.00000
   75      6.75056    0.00000
   76      6.86809    0.00000
   77      7.14437    0.00000
   78      7.18245    0.00000
   79      7.43088    0.00000
   80      7.76009    0.00000
   81      8.12057    0.00000
   82      8.43975    0.00000
   83      8.55199    0.00000
   84      8.71849    0.00000
   85      8.87589    0.00000
   86      9.14465    0.00000
   87      9.16666    0.00000
   88      9.27371    0.00000
   89      9.29454    0.00000
   90      9.53797    0.00000
   91      9.67512    0.00000
   92      9.75258    0.00000
   93      9.88734    0.00000
   94     10.10062    0.00000
   95     10.27266    0.00000
   96     10.32006    0.00000
   97     10.40006    0.00000


Forces in eV/Ang:
  0 C     0.64555   -0.65292   -0.07169
  1 C    -0.36899   -0.18844   -0.14548
  2 C     0.25059    0.52227   -0.07380
  3 C     0.67088    0.31298   -0.95129
  4 C     2.07316    0.22992   -0.01453
  5 C    -0.82877    0.10199    0.06473
  6 C    -0.51377    0.68508    4.12265
  7 C    -0.04673    0.12522    0.16564
  8 C     0.45838   -0.09965    0.03987
  9 C     0.11104    0.02629   -0.20305
 10 C     0.04927   -0.11277   -0.28118
 11 C     0.11256   -0.10755    0.35437
 12 C    -0.14393    0.25098    0.22221
 13 C    -0.80837   -0.02764    0.07560
 14 C    -0.56038   -0.65022    0.15396
 15 C    -0.12093   -0.02526   -0.08173
 16 C     0.07116    0.03897   -0.19533
 17 C     0.09666   -0.05776    0.72995
 18 C    -0.14088    0.17288   -0.03660
 19 C    -0.02477    0.01801   -0.02583
 20 C    -0.18003    0.22116   -0.07354
 21 C     0.19552   -0.13031   -3.85776
 22 C    -0.10045   -0.04331    0.13290
 23 C    -0.90120   -0.63223   -0.02395

System changes: positions 

Initializing position-dependent things.

Density initialized from wave functions
           .--------------------------------------.  
          /|                                      |  
         / |                                      |  
        /  |                                      |  
       /   |                                      |  
      /    |                                      |  
     /     |                                      |  
    /      |                                      |  
   /       |                                      |  
  /        |           C  C                       |  
 *         |    C   CC  C  C     C                |  
 |         |  C          C    C  C                |  
 |         .-C-C---C--C---------CC----------------.  
 |        /    C C   C    C  C                   /   
 |       /             C                        /    
 |      /                                      /     
 |     /                                      /      
 |    /                                      /       
 |   /                                      /        
 |  /                                      /         
 | /                                      /          
 |/                                      /           
 *--------------------------------------*            

Positions:
   0 C     11.063404    5.863122    4.934525
   1 C     11.475228    7.101637    4.891982
   2 C     10.920798    8.281279    4.700135
   3 C     10.593155    9.670970    4.803888
   4 C      9.326119    3.983582    5.103954
   5 C     10.413248    4.760129    5.076068
   6 C      9.493951    8.852653    4.694024
   7 C      5.389594    8.814127    5.777705
   8 C      5.679208    3.437026    5.313777
   9 C      3.462153    7.612006    5.564234
  10 C      7.554258    9.916480    6.073452
  11 C      6.294540    9.917680    5.978597
  12 C      5.799532    6.150866    5.540617
  13 C      8.276137    3.261897    5.166668
  14 C      7.642752    7.596863    5.811626
  15 C      4.470690    5.547998    5.434805
  16 C      8.122079    6.233000    5.655557
  17 C      6.190505    7.582307    5.727678
  18 C      7.028528    3.884348    5.331376
  19 C      3.971909    8.815937    5.679069
  20 C      4.626646    4.122657    5.350992
  21 C      8.405591    8.802725    5.806394
  22 C      3.280697    6.324187    5.445029
  23 C      7.034843    5.374984    5.510274

Unit cell:
           periodic     x           y           z      points  spacing
  1. axis:    yes   16.000000    0.000000    0.000000    80     0.2000
  2. axis:    yes    0.000000   16.000000    0.000000    80     0.2000
  3. axis:    yes    0.000000    0.000000   10.000000    48     0.2083

Effective grid spacing dv^(1/3) = 0.2027

                     log10-error:    total        iterations:
           time      wfs    density  energy       fermi  poisson
iter:   1  15:14:16          +inf  -180.300411    3      5      
iter:   2  15:14:17         -2.06  -180.235971    3      2      
iter:   3  15:14:17         -2.32  -180.210527    2      2      
iter:   4  15:14:18         -2.48  -180.211407    3      2      
iter:   5  15:14:19         -2.58  -180.208233    2      1      
iter:   6  15:14:19         -2.70  -180.204786    3      2      
iter:   7  15:14:20         -2.90  -180.208931    3      2      
iter:   8  15:14:21         -2.76  -180.204018    2      2      
iter:   9  15:14:21         -3.17  -180.203572    2      1      
iter:  10  15:14:22         -3.28  -180.202035    2      1      
iter:  11  15:14:22         -3.52  -180.202932    2      1      
iter:  12  15:14:23         -3.64  -180.204464    2      1      
iter:  13  15:14:23         -3.84  -180.204531    2      1      
iter:  14  15:14:24         -3.99  -180.204660    2      1      
iter:  15  15:14:25         -4.07  -180.205288    2      1      

Converged after 15 iterations.

Dipole moment: (0.190423, -0.146274, 0.013258) |e|*Ang

Energy contributions relative to reference atoms: (reference = -24663.074771)

Kinetic:       +114.019110
Potential:     -121.694960
External:        +0.000000
XC:            -175.384256
Entropy (-ST):   -0.269062
Local:           +2.989349
--------------------------
Free energy:   -180.339819
Extrapolated:  -180.205288

Fermi level: -4.58687

 Band  Eigenvalues  Occupancy
    0    -22.76427    2.00000
    1    -22.47732    2.00000
    2    -21.59554    2.00000
    3    -20.95861    2.00000
    4    -20.51957    2.00000
    5    -20.23652    2.00000
    6    -19.84788    2.00000
    7    -19.35180    2.00000
    8    -18.57983    2.00000
    9    -18.23227    2.00000
   10    -17.58052    2.00000
   11    -16.75493    2.00000
   12    -16.74667    2.00000
   13    -16.05209    2.00000
   14    -15.43282    2.00000
   15    -14.72259    2.00000
   16    -13.88694    2.00000
   17    -13.69051    2.00000
   18    -13.55186    2.00000
   19    -12.85956    2.00000
   20    -12.32668    2.00000
   21    -11.96761    2.00000
   22    -11.62076    2.00000
   23    -11.17411    2.00000
   24    -10.66271    2.00000
   25    -10.49674    2.00000
   26    -10.40212    2.00000
   27     -9.96210    2.00000
   28     -9.68330    2.00000
   29     -9.60807    2.00000
   30     -9.37412    2.00000
   31     -9.07673    2.00000
   32     -8.87573    2.00000
   33     -8.66372    2.00000
   34     -8.23435    2.00000
   35     -7.95790    2.00000
   36     -7.43998    2.00000
   37     -7.29535    2.00000
   38     -7.21438    2.00000
   39     -6.91328    2.00000
   40     -6.56598    2.00000
   41     -6.43704    2.00000
   42     -6.06355    2.00000
   43     -5.88176    2.00000
   44     -5.52760    1.99984
   45     -5.04706    1.98013
   46     -4.80154    1.79072
   47     -4.77550    1.73668
   48     -4.47459    0.49102
   49     -3.87201    0.00157
   50     -3.51894    0.00005
   51     -3.17328    0.00000
   52     -3.05061    0.00000
   53     -2.88278    0.00000
   54     -1.98401    0.00000
   55     -1.80500    0.00000
   56     -1.59301    0.00000
   57     -1.40184    0.00000
   58     -0.47178    0.00000
   59      0.17485    0.00000
   60      0.69758    0.00000
   61      0.77634    0.00000
   62      1.31634    0.00000
   63      2.09860    0.00000
   64      3.19551    0.00000
   65      3.50514    0.00000
   66      3.78930    0.00000
   67      4.56725    0.00000
   68      4.71485    0.00000
   69      4.98589    0.00000
   70      5.52913    0.00000
   71      5.65793    0.00000
   72      5.95217    0.00000
   73      6.06707    0.00000
   74      6.73855    0.00000
   75      6.85763    0.00000
   76      6.90536    0.00000
   77      7.19677    0.00000
   78      7.27288    0.00000
   79      7.45446    0.00000
   80      7.76188    0.00000
   81      8.16799    0.00000
   82      8.50156    0.00000
   83      8.55289    0.00000
   84      8.72986    0.00000
   85      8.89800    0.00000
   86      9.16928    0.00000
   87      9.17967    0.00000
   88      9.28659    0.00000
   89      9.31312    0.00000
   90      9.54757    0.00000
   91      9.68518    0.00000
   92      9.76922    0.00000
   93      9.93394    0.00000
   94     10.10254    0.00000
   95     10.28537    0.00000
   96     10.33558    0.00000
   97     10.40645    0.00000


Forces in eV/Ang:
  0 C     0.60034   -0.63280   -0.06366
  1 C    -0.29594   -0.14791   -0.14869
  2 C     0.03430    0.51251   -0.03354
  3 C     0.73471    0.47092   -0.95175
  4 C     2.09031    0.28937   -0.02860
  5 C    -0.76029    0.06294    0.06882
  6 C    -0.21036    0.54614    3.78542
  7 C    -0.03800    0.16281    0.21929
  8 C     0.24684   -0.00324    0.03136
  9 C     0.07292    0.01845   -0.20014
 10 C     0.06635   -0.10206   -0.35225
 11 C     0.10698   -0.16088    0.31581
 12 C    -0.09591    0.22992    0.23809
 13 C    -0.91387   -0.16129    0.06173
 14 C    -0.60497   -0.59601    0.02323
 15 C    -0.17748   -0.04786   -0.06015
 16 C     0.18392    0.13682   -0.18398
 17 C     0.08400   -0.08732    0.67784
 18 C    -0.16275    0.19712   -0.01107
 19 C    -0.01862    0.03545   -0.02326
 20 C    -0.00458    0.10519   -0.08693
 21 C     0.02266   -0.11129   -3.34990
 22 C    -0.11371   -0.04688    0.11965
 23 C    -0.93426   -0.68938   -0.02367

System changes: positions 

Initializing position-dependent things.

Density initialized from wave functions
           .--------------------------------------.  
          /|                                      |  
         / |                                      |  
        /  |                                      |  
       /   |                                      |  
      /    |                                      |  
     /     |                                      |  
    /      |                                      |  
   /       |                                      |  
  /        |           C  C                       |  
 *         |    C   CC  C  C     C                |  
 |         |  C          C    C  C                |  
 |         .-C-C---C-C----------CC----------------.  
 |        /    C C   C    C  C                   /   
 |       /             C                        /    
 |      /                                      /     
 |     /                                      /      
 |    /                                      /       
 |   /                                      /        
 |  /                                      /         
 | /                                      /          
 |/                                      /           
 *--------------------------------------*            

Positions:
   0 C     11.071113    5.857547    4.933951
   1 C     11.469988    7.101420    4.889924
   2 C     10.926644    8.283198    4.701092
   3 C     10.597402    9.671846    4.792088
   4 C      9.333996    3.976213    5.104457
   5 C     10.409649    4.764001    5.076432
   6 C      9.493207    8.863528    4.732510
   7 C      5.389139    8.814258    5.779850
   8 C      5.678565    3.437521    5.314212
   9 C      3.462867    7.611919    5.562101
  10 C      7.555966    9.914419    6.069640
  11 C      6.295602    9.917201    5.982090
  12 C      5.797283    6.152082    5.543220
  13 C      8.276605    3.267468    5.166708
  14 C      7.641976    7.593056    5.812511
  15 C      4.469434    5.548420    5.434282
  16 C      8.117776    6.230167    5.653106
  17 C      6.189306    7.582379    5.734458
  18 C      7.027868    3.884600    5.330841
  19 C      3.971781    8.816501    5.678891
  20 C      4.627533    4.121886    5.349995
  21 C      8.401073    8.800608    5.773224
  22 C      3.279458    6.323935    5.446285
  23 C      7.030645    5.374193    5.510930

Unit cell:
           periodic     x           y           z      points  spacing
  1. axis:    yes   16.000000    0.000000    0.000000    80     0.2000
  2. axis:    yes    0.000000   16.000000    0.000000    80     0.2000
  3. axis:    yes    0.000000    0.000000   10.000000    48     0.2083

Effective grid spacing dv^(1/3) = 0.2027

                     log10-error:    total        iterations:
           time      wfs    density  energy       fermi  poisson
iter:   1  15:14:27          +inf  -180.591674    3      5      
iter:   2  15:14:27         -2.08  -180.529221    3      2      
iter:   3  15:14:28         -2.34  -180.504691    2      2      
iter:   4  15:14:29         -2.50  -180.506566    2      2      
iter:   5  15:14:29         -2.56  -180.501185    3      1      
iter:   6  15:14:30         -2.76  -180.498867    3      2      
iter:   7  15:14:30         -2.93  -180.503616    3      2      
iter:   8  15:14:31         -2.75  -180.498460    2      2      
iter:   9  15:14:32         -3.19  -180.498149    2      1      
iter:  10  15:14:32         -3.33  -180.496966    2      1      
iter:  11  15:14:33         -3.56  -180.497867    2      1      
iter:  12  15:14:33         -3.64  -180.498877    2      1      
iter:  13  15:14:34         -3.95  -180.498948    2      1      
iter:  14  15:14:35         -4.05  -180.499233    2      1      

Converged after 14 iterations.

Dipole moment: (0.209427, -0.156965, 0.006647) |e|*Ang

Energy contributions relative to reference atoms: (reference = -24663.074771)

Kinetic:       +115.692582
Potential:     -123.067635
External:        +0.000000
XC:            -175.984331
Entropy (-ST):   -0.278828
Local:           +2.999565
--------------------------
Free energy:   -180.638647
Extrapolated:  -180.499233

Fermi level: -4.58273

 Band  Eigenvalues  Occupancy
    0    -22.79266    2.00000
    1    -22.48006    2.00000
    2    -21.59329    2.00000
    3    -20.95465    2.00000
    4    -20.51995    2.00000
    5    -20.24054    2.00000
    6    -19.84533    2.00000
    7    -19.37285    2.00000
    8    -18.58890    2.00000
    9    -18.24738    2.00000
   10    -17.58124    2.00000
   11    -16.80378    2.00000
   12    -16.75318    2.00000
   13    -16.05691    2.00000
   14    -15.46202    2.00000
   15    -14.80737    2.00000
   16    -13.88894    2.00000
   17    -13.74935    2.00000
   18    -13.57613    2.00000
   19    -12.92612    2.00000
   20    -12.32718    2.00000
   21    -11.98525    2.00000
   22    -11.64091    2.00000
   23    -11.15962    2.00000
   24    -10.67909    2.00000
   25    -10.47020    2.00000
   26    -10.40949    2.00000
   27     -9.96126    2.00000
   28     -9.71178    2.00000
   29     -9.60913    2.00000
   30     -9.37521    2.00000
   31     -9.12810    2.00000
   32     -8.87653    2.00000
   33     -8.67363    2.00000
   34     -8.33210    2.00000
   35     -7.96139    2.00000
   36     -7.43115    2.00000
   37     -7.28702    2.00000
   38     -7.20910    2.00000
   39     -6.92556    2.00000
   40     -6.56174    2.00000
   41     -6.43470    2.00000
   42     -6.07003    2.00000
   43     -5.91087    2.00000
   44     -5.51884    1.99983
   45     -5.04231    1.98001
   46     -4.79635    1.78874
   47     -4.75809    1.70480
   48     -4.47951    0.52530
   49     -3.84827    0.00129
   50     -3.49392    0.00004
   51     -3.16314    0.00000
   52     -3.00674    0.00000
   53     -2.86317    0.00000
   54     -1.93292    0.00000
   55     -1.75937    0.00000
   56     -1.55915    0.00000
   57     -1.39025    0.00000
   58     -0.41215    0.00000
   59      0.20959    0.00000
   60      0.72307    0.00000
   61      0.79549    0.00000
   62      1.34278    0.00000
   63      2.17999    0.00000
   64      3.20257    0.00000
   65      3.44393    0.00000
   66      3.81583    0.00000
   67      4.58820    0.00000
   68      4.73428    0.00000
   69      5.01194    0.00000
   70      5.49953    0.00000
   71      5.69789    0.00000
   72      5.96288    0.00000
   73      6.08297    0.00000
   74      6.75015    0.00000
   75      6.90922    0.00000
   76      7.00133    0.00000
   77      7.27141    0.00000
   78      7.48083    0.00000
   79      7.54264    0.00000
   80      7.76685    0.00000
   81      8.23749    0.00000
   82      8.53557    0.00000
   83      8.59034    0.00000
   84      8.74489    0.00000
   85      8.94105    0.00000
   86      9.17491    0.00000
   87      9.20230    0.00000
   88      9.29800    0.00000
   89      9.34279    0.00000
   90      9.55776    0.00000
   91      9.69432    0.00000
   92      9.79648    0.00000
   93      9.98429    0.00000
   94     10.12070    0.00000
   95     10.31153    0.00000
   96     10.35394    0.00000
   97     10.40891    0.00000


Forces in eV/Ang:
  0 C     0.60708   -0.49885   -0.08172
  1 C    -0.27066   -0.22948   -0.14264
  2 C    -0.14615    0.52369   -0.00301
  3 C     0.77191    0.58671   -0.96498
  4 C     1.90002    0.23527   -0.02562
  5 C    -0.66825    0.03397    0.06825
  6 C     0.17068    0.45609    3.28909
  7 C    -0.03477    0.17831    0.26360
  8 C     0.38716   -0.10295    0.01197
  9 C     0.05611    0.04201   -0.19335
 10 C     0.03898   -0.06278   -0.39914
 11 C     0.10616   -0.19776    0.27776
 12 C    -0.08809    0.20205    0.24088
 13 C    -0.88514   -0.19269    0.05335
 14 C    -0.62262   -0.53479   -0.09689
 15 C    -0.19484   -0.09879   -0.03919
 16 C     0.29526    0.18641   -0.17051
 17 C     0.05966   -0.10681    0.61006
 18 C    -0.20746    0.20324    0.00970
 19 C    -0.01636   -0.00006   -0.02167
 20 C    -0.16059    0.24495   -0.08572
 21 C    -0.18916   -0.10899   -2.69835
 22 C    -0.09866   -0.04525    0.10868
 23 C    -0.90349   -0.70944   -0.02028

System changes: positions 

Initializing position-dependent things.

Density initialized from wave functions
           .--------------------------------------.  
          /|                                      |  
         / |                                      |  
        /  |                                      |  
       /   |                                      |  
      /    |                                      |  
     /     |                                      |  
    /      |                                      |  
   /       |                                      |  
  /        |           C  C                       |  
 *         |    C   CC  C  C     C                |  
 |         |  C    C     C    C  C                |  
 |         .-C-C-----C----------CC----------------.  
 |        /    C C   C    C  C                   /   
 |       /             C                        /    
 |      /                                      /     
 |     /                                      /      
 |    /                                      /       
 |   /                                      /        
 |  /                                      /         
 | /                                      /          
 |/                                      /           
 *--------------------------------------*            

Positions:
   0 C     11.080029    5.852572    4.933065
   1 C     11.464283    7.099811    4.887707
   2 C     10.931122    8.285948    4.702407
   3 C     10.602814    9.674167    4.778399
   4 C      9.341973    3.967823    5.105034
   5 C     10.406012    4.767988    5.076836
   6 C      9.497069    8.874933    4.770655
   7 C      5.388676    8.814644    5.782785
   8 C      5.680081    3.436699    5.314480
   9 C      3.463567    7.612138    5.559732
  10 C      7.557373    9.912740    6.064846
  11 C      6.296717    9.916226    5.985673
  12 C      5.794765    6.153309    5.546221
  13 C      8.276863    3.273230    5.166711
  14 C      7.640446    7.589038    5.812217
  15 C      4.467863    5.548312    5.433906
  16 C      8.114306    6.227539    5.650376
  17 C      6.187831    7.582177    5.741458
  18 C      7.026596    3.885068    5.330467
  19 C      3.971594    8.816728    5.678712
  20 C      4.626321    4.122970    5.348889
  21 C      8.393522    8.798222    5.742857
  22 C      3.278172    6.323632    5.447612
  23 C      7.025919    5.372669    5.511674

Unit cell:
           periodic     x           y           z      points  spacing
  1. axis:    yes   16.000000    0.000000    0.000000    80     0.2000
  2. axis:    yes    0.000000   16.000000    0.000000    80     0.2000
  3. axis:    yes    0.000000    0.000000   10.000000    48     0.2083

Effective grid spacing dv^(1/3) = 0.2027

                     log10-error:    total        iterations:
           time      wfs    density  energy       fermi  poisson
iter:   1  15:14:37          +inf  -180.819663    3      5      
iter:   2  15:14:37         -2.15  -180.773070    3      2      
iter:   3  15:14:38         -2.40  -180.755206    2      2      
iter:   4  15:14:38         -2.56  -180.753084    3      2      
iter:   5  15:14:39         -2.70  -180.747863    3      1      
iter:   6  15:14:40         -2.77  -180.750326    3      2      
iter:   7  15:14:40         -2.98  -180.752014    3      2      
iter:   8  15:14:41         -2.92  -180.748872    3      1      
iter:   9  15:14:41         -3.30  -180.748395    2      1      
iter:  10  15:14:42         -3.43  -180.749523    2      1      
iter:  11  15:14:43         -3.61  -180.749342    2      1      
iter:  12  15:14:43         -3.78  -180.750095    2      1      
iter:  13  15:14:44         -3.73  -180.750356    2      1      
iter:  14  15:14:44         -4.11  -180.750362    2      1      

Converged after 14 iterations.

Dipole moment: (0.222109, -0.167017, 0.001905) |e|*Ang

Energy contributions relative to reference atoms: (reference = -24663.074771)

Kinetic:       +117.120028
Potential:     -124.223586
External:        +0.000000
XC:            -176.506030
Entropy (-ST):   -0.286768
Local:           +3.002610
--------------------------
Free energy:   -180.893746
Extrapolated:  -180.750362

Fermi level: -4.57973

 Band  Eigenvalues  Occupancy
    0    -22.82982    2.00000
    1    -22.49072    2.00000
    2    -21.59825    2.00000
    3    -20.95452    2.00000
    4    -20.51892    2.00000
    5    -20.24635    2.00000
    6    -19.84808    2.00000
    7    -19.39086    2.00000
    8    -18.60200    2.00000
    9    -18.25297    2.00000
   10    -17.58310    2.00000
   11    -16.85142    2.00000
   12    -16.76240    2.00000
   13    -16.06457    2.00000
   14    -15.49134    2.00000
   15    -14.88276    2.00000
   16    -13.89440    2.00000
   17    -13.80994    2.00000
   18    -13.59964    2.00000
   19    -12.96574    2.00000
   20    -12.33047    2.00000
   21    -12.00595    2.00000
   22    -11.66169    2.00000
   23    -11.15142    2.00000
   24    -10.69895    2.00000
   25    -10.45667    2.00000
   26    -10.41432    2.00000
   27     -9.96441    2.00000
   28     -9.74582    2.00000
   29     -9.61097    2.00000
   30     -9.37794    2.00000
   31     -9.18276    2.00000
   32     -8.87505    2.00000
   33     -8.68293    2.00000
   34     -8.41245    2.00000
   35     -7.96438    2.00000
   36     -7.42444    2.00000
   37     -7.28044    2.00000
   38     -7.20774    2.00000
   39     -6.93795    2.00000
   40     -6.55641    2.00000
   41     -6.42150    2.00000
   42     -6.08733    2.00000
   43     -5.92311    2.00000
   44     -5.50695    1.99981
   45     -5.03594    1.97934
   46     -4.79382    1.78964
   47     -4.74373    1.67509
   48     -4.48405    0.55504
   49     -3.82448    0.00105
   50     -3.47576    0.00003
   51     -3.16002    0.00000
   52     -2.97029    0.00000
   53     -2.87494    0.00000
   54     -1.89172    0.00000
   55     -1.71366    0.00000
   56     -1.50472    0.00000
   57     -1.38104    0.00000
   58     -0.34166    0.00000
   59      0.24192    0.00000
   60      0.73856    0.00000
   61      0.79779    0.00000
   62      1.37071    0.00000
   63      2.24953    0.00000
   64      3.18626    0.00000
   65      3.43863    0.00000
   66      3.83680    0.00000
   67      4.60483    0.00000
   68      4.74985    0.00000
   69      5.02652    0.00000
   70      5.46644    0.00000
   71      5.73166    0.00000
   72      5.97455    0.00000
   73      6.09589    0.00000
   74      6.75306    0.00000
   75      6.93975    0.00000
   76      6.99487    0.00000
   77      7.31214    0.00000
   78      7.50727    0.00000
   79      7.77149    0.00000
   80      7.84222    0.00000
   81      8.33181    0.00000
   82      8.55440    0.00000
   83      8.64720    0.00000
   84      8.76448    0.00000
   85      8.99027    0.00000
   86      9.17502    0.00000
   87      9.21761    0.00000
   88      9.31031    0.00000
   89      9.38079    0.00000
   90      9.56588    0.00000
   91      9.70249    0.00000
   92      9.83106    0.00000
   93     10.01736    0.00000
   94     10.15437    0.00000
   95     10.33925    0.00000
   96     10.36194    0.00000
   97     10.42153    0.00000


Forces in eV/Ang:
  0 C     0.54919   -0.49034   -0.08288
  1 C    -0.23569   -0.11903   -0.15032
  2 C    -0.23308    0.42091    0.04730
  3 C     0.82365    0.73108   -0.92799
  4 C     1.78075    0.22156   -0.02816
  5 C    -0.59233   -0.00042    0.06725
  6 C     0.49413    0.33019    2.72032
  7 C    -0.03429    0.17702    0.29801
  8 C     0.11762    0.00535    0.00325
  9 C     0.03327    0.02639   -0.18696
 10 C     0.00312   -0.00201   -0.44643
 11 C     0.06792   -0.21177    0.24670
 12 C    -0.06202    0.16264    0.24027
 13 C    -0.87063   -0.24540    0.05816
 14 C    -0.61530   -0.45496   -0.22169
 15 C    -0.22362   -0.08773   -0.01513
 16 C     0.35176    0.18698   -0.15592
 17 C     0.00870   -0.12407    0.53975
 18 C    -0.18206    0.18650    0.02257
 19 C    -0.00954   -0.00040   -0.01676
 20 C     0.03684    0.08449   -0.09681
 21 C    -0.38161   -0.10042   -1.99021
 22 C    -0.10439   -0.02297    0.09474
 23 C    -0.82941   -0.65131   -0.00955

System changes: positions 

Initializing position-dependent things.

Density initialized from wave functions
           .--------------------------------------.  
          /|                                      |  
         / |                                      |  
        /  |                                      |  
       /   |                                      |  
      /    |                                      |  
     /     |                                      |  
    /      |                                      |  
   /       |                                      |  
  /        |           C  C                       |  
 *         |    C   CC  C  C     C                |  
 |         |  C    C     C    C  C                |  
 |         .-C-C-----C----------CC----------------.  
 |        /    C C   C    C  C                   /   
 |       /             C                        /    
 |      /                                      /     
[...]

Kinetic:       +115.823417
Potential:     -124.169773
External:        +0.000000
XC:            -179.203521
Entropy (-ST):   -0.155426
Local:           +2.994349
--------------------------
Free energy:   -184.710954
Extrapolated:  -184.633241

Fermi level: -4.44724

 Band  Eigenvalues  Occupancy
    0    -23.00071    2.00000
    1    -22.75429    2.00000
    2    -21.83230    2.00000
    3    -21.36931    2.00000
    4    -20.53840    2.00000
    5    -20.41171    2.00000
    6    -19.84310    2.00000
    7    -19.41026    2.00000
    8    -18.57112    2.00000
    9    -18.30602    2.00000
   10    -17.78270    2.00000
   11    -17.18514    2.00000
   12    -16.55168    2.00000
   13    -16.07831    2.00000
   14    -15.43841    2.00000
   15    -14.97076    2.00000
   16    -14.23917    2.00000
   17    -14.03683    2.00000
   18    -13.21739    2.00000
   19    -12.96797    2.00000
   20    -12.69896    2.00000
   21    -12.01237    2.00000
   22    -11.98563    2.00000
   23    -11.00097    2.00000
   24    -10.91320    2.00000
   25    -10.77881    2.00000
   26    -10.71947    2.00000
   27    -10.40657    2.00000
   28    -10.02032    2.00000
   29     -9.68588    2.00000
   30     -9.60684    2.00000
   31     -9.49364    2.00000
   32     -9.06783    2.00000
   33     -8.58807    2.00000
   34     -8.47382    2.00000
   35     -8.15603    2.00000
   36     -7.38450    2.00000
   37     -7.25398    2.00000
   38     -7.10887    2.00000
   39     -6.97551    2.00000
   40     -6.62068    2.00000
   41     -6.55920    2.00000
   42     -6.44409    2.00000
   43     -6.32011    2.00000
   44     -5.94051    2.00000
   45     -5.71182    1.99999
   46     -4.73462    1.89307
   47     -4.72700    1.88510
   48     -4.23908    0.22180
   49     -3.27598    0.00002
   50     -3.25543    0.00001
   51     -3.06903    0.00000
   52     -2.89608    0.00000
   53     -2.84048    0.00000
   54     -1.72715    0.00000
   55     -1.56242    0.00000
   56     -1.21464    0.00000
   57     -0.97984    0.00000
   58     -0.31272    0.00000
   59     -0.01877    0.00000
   60      0.63814    0.00000
   61      1.61079    0.00000
   62      2.29101    0.00000
   63      2.74164    0.00000
   64      3.05574    0.00000
   65      3.53522    0.00000
   66      4.03085    0.00000
   67      4.17078    0.00000
   68      4.26968    0.00000
   69      4.80646    0.00000
   70      5.02288    0.00000
   71      5.60614    0.00000
   72      5.77057    0.00000
   73      6.16667    0.00000
   74      6.43778    0.00000
   75      6.84676    0.00000
   76      7.02900    0.00000
   77      7.29824    0.00000
   78      7.70927    0.00000
   79      7.84142    0.00000
   80      8.25681    0.00000
   81      8.46184    0.00000
   82      8.59998    0.00000
   83      8.77989    0.00000
   84      8.82088    0.00000
   85      9.03606    0.00000
   86      9.31382    0.00000
   87      9.40231    0.00000
   88      9.44482    0.00000
   89      9.46313    0.00000
   90      9.62591    0.00000
   91      9.75764    0.00000
   92      9.87908    0.00000
   93     10.11466    0.00000
   94     10.20579    0.00000
   95     10.26244    0.00000
   96     10.32221    0.00000
   97     10.58566    0.00000


Forces in eV/Ang:
  0 C    -0.00670   -0.09176    0.04115
  1 C    -0.00648   -0.07029   -0.00005
  2 C     0.00682    0.03213    0.02674
  3 C     0.03225   -0.01996    0.05709
  4 C    -0.00136    0.05022   -0.00191
  5 C    -0.02630   -0.00997    0.01457
  6 C    -0.03392   -0.03303   -0.03455
  7 C     0.01611    0.03260   -0.00430
  8 C     0.00507    0.02325    0.01810
  9 C    -0.01958   -0.00325   -0.01691
 10 C     0.00991    0.02949   -0.01897
 11 C     0.00700    0.05276    0.02030
 12 C     0.00634   -0.00727    0.01194
 13 C     0.02906    0.01276   -0.04454
 14 C     0.01611   -0.01808   -0.02132
 15 C     0.01977    0.00322    0.03189
 16 C     0.08845   -0.01041   -0.00713
 17 C    -0.01603   -0.00741   -0.00870
 18 C     0.02123    0.00227   -0.04199
 19 C    -0.07255    0.08491    0.01000
 20 C     0.03397   -0.03878    0.00727
 21 C    -0.03656   -0.00010   -0.02656
 22 C    -0.03789   -0.02662    0.04550
 23 C     0.00010   -0.03533   -0.02190

System changes: positions 

Initializing position-dependent things.

Density initialized from wave functions
           .--------------------------------------.  
          /|                                      |  
         / |                                      |  
        /  |                                      |  
       /   |                                      |  
      /    |                                      |  
     /     |                                      |  
    /      |                                      |  
   /       |                                      |  
  /        |           C  C                       |  
 *         |  C C   C      C   C  C               |  
 |         | C       C   C       C                |  
 |         .---C---C-C---C-C---C-C----------------.  
 |        /    C    C     C                      /   
 |       /       C     C                        /    
 |      /                                      /     
 |     /                                      /      
 |    /                                      /       
 |   /                                      /        
 |  /                                      /         
 | /                                      /          
 |/                                      /           
 *--------------------------------------*            

Positions:
   0 C     10.739771    6.011028    5.033617
   1 C     11.269439    7.136374    4.957232
   2 C     11.114169    8.506753    4.931519
   3 C     10.973474    9.956249    4.842065
   4 C      9.287458    3.934362    5.177338
   5 C      9.498938    5.329139    5.186081
   6 C      9.875029    9.081235    5.157538
   7 C      5.496770    8.690133    5.818268
   8 C      5.608980    3.315549    5.305067
   9 C      3.538917    7.526464    5.686663
  10 C      7.623734    9.809674    5.802229
  11 C      6.376946    9.790565    5.941115
  12 C      5.833186    6.079825    5.483340
  13 C      8.244302    3.227641    5.236142
  14 C      7.779608    7.478047    5.456586
  15 C      4.473983    5.497725    5.458091
  16 C      8.214365    6.019881    5.324650
  17 C      6.314808    7.471121    5.597981
  18 C      6.950174    3.768033    5.311401
  19 C      4.074436    8.706377    5.851148
  20 C      4.617041    4.086358    5.353946
  21 C      8.499553    8.749652    5.476294
  22 C      3.259500    6.251034    5.553869
  23 C      7.008884    5.237166    5.381689

Unit cell:
           periodic     x           y           z      points  spacing
  1. axis:    yes   16.000000    0.000000    0.000000    80     0.2000
  2. axis:    yes    0.000000   16.000000    0.000000    80     0.2000
  3. axis:    yes    0.000000    0.000000   10.000000    48     0.2083

Effective grid spacing dv^(1/3) = 0.2027

                     log10-error:    total        iterations:
           time      wfs    density  energy       fermi  poisson
iter:   1  15:22:27          +inf  -184.638955    3      4      
iter:   2  15:22:28         -3.05  -184.637951    2      1      
iter:   3  15:22:28         -3.12  -184.636714    2      1      
iter:   4  15:22:29         -3.27  -184.636224    2      1      
iter:   5  15:22:30         -3.47  -184.635811    2      1      
iter:   6  15:22:30         -3.62  -184.636619    2      1      
iter:   7  15:22:31         -3.85  -184.636666    2      1      
iter:   8  15:22:31         -3.88  -184.636461    2      1      
iter:   9  15:22:32         -4.26  -184.636646    2      1      

Converged after 9 iterations.

Dipole moment: (0.165002, -0.482689, 0.059654) |e|*Ang

Energy contributions relative to reference atoms: (reference = -24663.074771)

Kinetic:       +116.074979
Potential:     -124.374856
External:        +0.000000
XC:            -179.249939
Entropy (-ST):   -0.152486
Local:           +2.989413
--------------------------
Free energy:   -184.712889
Extrapolated:  -184.636646

Fermi level: -4.44873

 Band  Eigenvalues  Occupancy
    0    -22.99647    2.00000
    1    -22.75524    2.00000
    2    -21.83589    2.00000
    3    -21.37318    2.00000
    4    -20.54213    2.00000
    5    -20.41513    2.00000
    6    -19.84396    2.00000
    7    -19.41200    2.00000
    8    -18.57395    2.00000
    9    -18.30493    2.00000
   10    -17.78699    2.00000
   11    -17.18306    2.00000
   12    -16.55454    2.00000
   13    -16.08169    2.00000
   14    -15.43932    2.00000
   15    -14.97098    2.00000
   16    -14.24431    2.00000
   17    -14.03814    2.00000
   18    -13.21829    2.00000
   19    -12.96956    2.00000
   20    -12.68755    2.00000
   21    -12.01492    2.00000
   22    -11.98564    2.00000
   23    -10.99632    2.00000
   24    -10.92437    2.00000
   25    -10.77956    2.00000
   26    -10.72114    2.00000
   27    -10.40768    2.00000
   28    -10.02141    2.00000
   29     -9.68759    2.00000
   30     -9.61218    2.00000
   31     -9.48994    2.00000
   32     -9.06955    2.00000
   33     -8.58290    2.00000
   34     -8.47352    2.00000
   35     -8.15889    2.00000
   36     -7.38438    2.00000
   37     -7.25578    2.00000
   38     -7.11025    2.00000
   39     -6.97490    2.00000
   40     -6.62033    2.00000
   41     -6.55900    2.00000
   42     -6.44605    2.00000
   43     -6.32381    2.00000
   44     -5.94016    2.00000
   45     -5.71243    1.99999
   46     -4.73984    1.89679
   47     -4.73056    1.88731
   48     -4.23753    0.21587
   49     -3.27475    0.00002
   50     -3.25659    0.00001
   51     -3.06996    0.00000
   52     -2.88791    0.00000
   53     -2.84184    0.00000
   54     -1.73769    0.00000
   55     -1.57196    0.00000
   56     -1.21718    0.00000
   57     -0.98058    0.00000
   58     -0.31574    0.00000
   59     -0.01783    0.00000
   60      0.64258    0.00000
   61      1.61825    0.00000
   62      2.30612    0.00000
   63      2.75017    0.00000
   64      3.04547    0.00000
   65      3.52678    0.00000
   66      4.01346    0.00000
   67      4.15473    0.00000
   68      4.28944    0.00000
   69      4.80991    0.00000
   70      5.02093    0.00000
   71      5.59416    0.00000
   72      5.79020    0.00000
   73      6.17367    0.00000
   74      6.44149    0.00000
   75      6.85899    0.00000
   76      7.04050    0.00000
   77      7.31059    0.00000
   78      7.69570    0.00000
   79      7.82426    0.00000
   80      8.25540    0.00000
   81      8.46466    0.00000
   82      8.61055    0.00000
   83      8.78108    0.00000
   84      8.82314    0.00000
   85      9.04094    0.00000
   86      9.31222    0.00000
   87      9.40381    0.00000
   88      9.44703    0.00000
   89      9.46573    0.00000
   90      9.62383    0.00000
   91      9.75145    0.00000
   92      9.87796    0.00000
   93     10.11322    0.00000
   94     10.20065    0.00000
   95     10.26301    0.00000
   96     10.32523    0.00000
   97     10.58577    0.00000


Forces in eV/Ang:
  0 C    -0.04149   -0.08803    0.05853
  1 C    -0.01284   -0.04925    0.00909
  2 C     0.00788    0.03207    0.00954
  3 C     0.01303   -0.01776    0.06753
  4 C     0.01091    0.06685    0.00802
  5 C    -0.00126   -0.00522   -0.02701
  6 C     0.00839   -0.04226   -0.02158
  7 C     0.01942    0.03513   -0.03601
  8 C     0.02886   -0.02550    0.01228
  9 C    -0.01965    0.01516   -0.00834
 10 C     0.02825    0.03533   -0.02969
 11 C     0.00427    0.06244    0.03559
 12 C     0.01285   -0.01169    0.02888
 13 C     0.03312    0.00007   -0.04259
 14 C     0.04330    0.00671   -0.00358
 15 C     0.03232   -0.01192    0.02621
 16 C     0.04737    0.01210    0.02662
 17 C     0.02174    0.01819   -0.02470
 18 C     0.00866   -0.04440   -0.04522
 19 C    -0.07882    0.04797    0.01607
 20 C    -0.01959   -0.03121    0.01912
 21 C    -0.01753    0.01641   -0.02742
 22 C    -0.04559   -0.01852    0.03043
 23 C    -0.00666   -0.05815   -0.05303

System changes: positions 

Initializing position-dependent things.

Density initialized from wave functions
           .--------------------------------------.  
          /|                                      |  
         / |                                      |  
        /  |                                      |  
       /   |                                      |  
      /    |                                      |  
     /     |                                      |  
    /      |                                      |  
   /       |                                      |  
  /        |           C  C                       |  
 *         |  C C   C      C   C  C               |  
 |         | C       C   C       C                |  
 |         .---C---C-C---C-C---C-C----------------.  
 |        /    C    C     C                      /   
 |       /       C     C                        /    
 |      /                                      /     
 |     /                                      /      
 |    /                                      /       
 |   /                                      /        
 |  /                                      /         
 | /                                      /          
 |/                                      /           
 *--------------------------------------*            

Positions:
   0 C     10.747157    6.005169    5.043671
   1 C     11.269447    7.134263    4.957308
   2 C     11.113106    8.505769    4.934269
   3 C     10.978126    9.956465    4.854680
   4 C      9.289009    3.933811    5.174407
   5 C      9.501709    5.328032    5.187972
   6 C      9.873213    9.080310    5.151590
   7 C      5.495636    8.689150    5.818119
   8 C      5.610078    3.318896    5.305737
   9 C      3.537909    7.528178    5.687544
  10 C      7.622854    9.807095    5.802140
  11 C      6.375922    9.789677    5.940044
  12 C      5.833599    6.079579    5.484298
  13 C      8.244528    3.229307    5.229574
  14 C      7.778894    7.476540    5.450777
  15 C      4.474201    5.498887    5.461761
  16 C      8.217251    6.019402    5.321390
  17 C      6.313855    7.469667    5.597377
  18 C      6.950910    3.769821    5.309245
  19 C      4.071908    8.709465    5.847802
  20 C      4.616837    4.088007    5.355297
  21 C      8.496992    8.748068    5.468537
  22 C      3.259175    6.251518    5.560335
  23 C      7.010492    5.237664    5.381104

Unit cell:
           periodic     x           y           z      points  spacing
  1. axis:    yes   16.000000    0.000000    0.000000    80     0.2000
  2. axis:    yes    0.000000   16.000000    0.000000    80     0.2000
  3. axis:    yes    0.000000    0.000000   10.000000    48     0.2083

Effective grid spacing dv^(1/3) = 0.2027

                     log10-error:    total        iterations:
           time      wfs    density  energy       fermi  poisson
iter:   1  15:22:34          +inf  -184.643440    3      5      
iter:   2  15:22:35         -2.98  -184.642472    2      1      
iter:   3  15:22:35         -3.05  -184.640728    2      1      
iter:   4  15:22:36         -3.22  -184.640379    2      1      
iter:   5  15:22:36         -3.40  -184.639352    2      1      
iter:   6  15:22:37         -3.46  -184.639854    2      1      
iter:   7  15:22:37         -3.79  -184.639997    2      1      
iter:   8  15:22:38         -3.69  -184.639588    2      1      
iter:   9  15:22:39         -4.20  -184.639675    2      1      

Converged after 9 iterations.

Dipole moment: (0.161611, -0.483676, 0.053545) |e|*Ang

Energy contributions relative to reference atoms: (reference = -24663.074771)

Kinetic:       +115.977733
Potential:     -124.307629
External:        +0.000000
XC:            -179.217765
Entropy (-ST):   -0.148582
Local:           +2.982276
--------------------------
Free energy:   -184.713966
Extrapolated:  -184.639675

Fermi level: -4.45124

 Band  Eigenvalues  Occupancy
    0    -22.99536    2.00000
    1    -22.75638    2.00000
    2    -21.83796    2.00000
    3    -21.37551    2.00000
    4    -20.54362    2.00000
    5    -20.41648    2.00000
    6    -19.84324    2.00000
    7    -19.40891    2.00000
    8    -18.57805    2.00000
    9    -18.30084    2.00000
   10    -17.78832    2.00000
   11    -17.18038    2.00000
   12    -16.55708    2.00000
   13    -16.08289    2.00000
   14    -15.43943    2.00000
   15    -14.96932    2.00000
   16    -14.24896    2.00000
   17    -14.03955    2.00000
   18    -13.22112    2.00000
   19    -12.96948    2.00000
   20    -12.67908    2.00000
   21    -12.01584    2.00000
   22    -11.98565    2.00000
   23    -10.99082    2.00000
   24    -10.93267    2.00000
   25    -10.77720    2.00000
   26    -10.72186    2.00000
   27    -10.40980    2.00000
   28    -10.02395    2.00000
   29     -9.68820    2.00000
   30     -9.61486    2.00000
   31     -9.48669    2.00000
   32     -9.07077    2.00000
   33     -8.57430    2.00000
   34     -8.47292    2.00000
   35     -8.16036    2.00000
   36     -7.38398    2.00000
   37     -7.25500    2.00000
   38     -7.11109    2.00000
   39     -6.97328    2.00000
   40     -6.61922    2.00000
   41     -6.55855    2.00000
   42     -6.44679    2.00000
   43     -6.32755    2.00000
   44     -5.93817    2.00000
   45     -5.71149    1.99999
   46     -4.74771    1.90190
   47     -4.73559    1.88996
   48     -4.23595    0.20811
   49     -3.27368    0.00002
   50     -3.25850    0.00001
   51     -3.07512    0.00000
   52     -2.88263    0.00000
   53     -2.84216    0.00000
   54     -1.74901    0.00000
   55     -1.58133    0.00000
   56     -1.22110    0.00000
   57     -0.98040    0.00000
   58     -0.32014    0.00000
   59     -0.01833    0.00000
   60      0.64364    0.00000
   61      1.62482    0.00000
   62      2.32169    0.00000
   63      2.74106    0.00000
   64      3.02807    0.00000
   65      3.51091    0.00000
   66      3.99415    0.00000
   67      4.13390    0.00000
   68      4.30822    0.00000
   69      4.81148    0.00000
   70      5.01640    0.00000
   71      5.57757    0.00000
   72      5.80522    0.00000
   73      6.17897    0.00000
   74      6.44619    0.00000
   75      6.86037    0.00000
   76      7.04641    0.00000
   77      7.32049    0.00000
   78      7.68132    0.00000
   79      7.80879    0.00000
   80      8.25380    0.00000
   81      8.47016    0.00000
   82      8.62031    0.00000
   83      8.78032    0.00000
   84      8.82386    0.00000
   85      9.04316    0.00000
   86      9.31151    0.00000
   87      9.40466    0.00000
   88      9.44640    0.00000
   89      9.46786    0.00000
   90      9.62211    0.00000
   91      9.74387    0.00000
   92      9.87750    0.00000
   93     10.11310    0.00000
   94     10.19607    0.00000
   95     10.26267    0.00000
   96     10.32956    0.00000
   97     10.58194    0.00000


Forces in eV/Ang:
  0 C    -0.04421    0.00303    0.03453
  1 C    -0.03845   -0.04888    0.02111
  2 C     0.03648   -0.03578   -0.00431
  3 C    -0.04097   -0.05927    0.06556
  4 C     0.00663    0.06149    0.01380
  5 C     0.02190    0.00057   -0.03819
  6 C     0.01559   -0.01877    0.00024
  7 C    -0.00174    0.04540   -0.05217
  8 C    -0.00719   -0.04242    0.00771
  9 C    -0.02903   -0.02910   -0.01088
 10 C     0.02891    0.04220   -0.04658
 11 C     0.01107    0.05590    0.04135
 12 C     0.02061   -0.01037    0.03035
 13 C     0.02651   -0.02572   -0.03977
 14 C     0.04582    0.03465    0.00955
 15 C     0.01950   -0.01779    0.02918
 16 C    -0.01057    0.01678    0.04308
 17 C     0.03145    0.04523   -0.03379
 18 C     0.02578   -0.06641   -0.05835
 19 C    -0.03117    0.03475    0.02608
 20 C    -0.00890   -0.06232    0.02695
 21 C     0.01025    0.03571   -0.02887
 22 C    -0.03003    0.01382   -0.00627
 23 C    -0.00147   -0.04174   -0.06876

