
  ___ ___ ___ _ _ _  
 |   |   |_  | | | | 
 | | | | | . | | | | 
 |__ |  _|___|_____|  1.3.0b1
 |___|_|             

User:   esb@s65n23.grendel.cscaa.dk
Date:   Wed Nov  8 14:13:04 2017
Arch:   x86_64
Pid:    50770
Python: 2.7.13
gpaw:   /home/esb/DFT/gpaw_git/gpaw
_gpaw:  /home/esb/DFT/gpaw_git/build/bin.linux-x86_64-2.7/gpaw-python
ase:    /home/esb/DFT/ase_git/ase (version 3.15.0b1)
numpy:  /comm/swstack/core/python/2.7.13/lib/python2.7/site-packages/numpy (version 1.13.3)
scipy:  /comm/swstack/core/python/2.7.13/lib/python2.7/site-packages/scipy (version 0.19.1)
units:  Angstrom and eV
cores:  16
Extra parameters: {'blacs': True}

Input parameters:
  basis: dzp
  gpts: [80 80 48]
  kpts: [1 1 1]
  maxiter: 99
  mixer: {backend: pulay,
          beta: 0.05,
          method: separate,
          nmaxold: 5,
          weight: 75}
  mode: lcao
  nbands: -50
  occupations: {name: fermi-dirac,
                width: 0.1}
  poissonsolver: {eps: 1e-07,
                  name: fd,
                  nn: 3,
                  relax: GS}
  xc: PBE

System changes: positions, numbers, cell, pbc, initial_charges, initial_magmoms 

Initialize ...

C-setup:
  name: Carbon
  id: 4aa54d4b901d75f77cc0ea3eec22967b
  Z: 6
  valence: 4
  core: 2
  charge: 0.0
  file: /home/esb/DFT/gpaw-setups-0.8.7929/C.PBE.gz
  cutoffs: 0.64(comp), 1.14(filt), 1.14(core), lmax=2
  valence states:
                energy  radius
    2s(2.00)   -13.751   0.635
    2p(2.00)    -5.284   0.635
    *s          13.461   0.635
    *p          21.927   0.635
    *d           0.000   0.635

  LCAO basis set for C:
    Name: dzp
    File: /home/esb/DFT/gpaw-setups-0.8.7929/C.dzp.basis.gz
    Number of radial functions: 5
    Number of spherical harmonics: 13
      l=0, rc=5.5469 Bohr: 2s-sz confined orbital
      l=1, rc=6.6719 Bohr: 2p-sz confined orbital
      l=0, rc=3.0312 Bohr: 2s-dz split-valence wave
      l=1, rc=3.7500 Bohr: 2p-dz split-valence wave
      l=2, rc=6.6719 Bohr: d-type Gaussian polarization

Reference energy: -24663.074771

Spin-paired calculation

Occupation numbers:
  Fermi-Dirac: width=0.1000 eV

Convergence criteria:
  Maximum total energy change: 0.0005 eV / electron
  Maximum integral of absolute density change: 0.0001 electrons
  Maximum integral of absolute eigenstate change: 4e-08 eV^2
  Maximum number of iterations: 99

Symmetries present (total): 1

  ( 1  0  0)
  ( 0  1  0)
  ( 0  0  1)

1 k-point (Gamma)
1 k-point in the irreducible part of the Brillouin zone
       k-points in crystal coordinates                weights
   0:     0.00000000    0.00000000    0.00000000          1/1

Wave functions: LCAO
  Diagonalizer: Serial LAPACK
  Atomic Correction: dense with blas
  Datatype: float
  Eigensolver: None 

LCAO using direct dense diagonalizer 

Densities:
  Coarse grid: 80*80*48 grid
  Fine grid: 160*160*96 grid
  Total Charge: 0.000000 

Density mixing:
  Method: separate
  Backend: pulay
  Linear mixing parameter: 0.05
  Mixing with 5 old densities
  Damping of long wave oscillations: 75 

Hamiltonian:
  XC and Coulomb potentials evaluated on a 160*160*96 grid
  Using the PBE Exchange-Correlation functional
  Interpolation: tri-quintic (5. degree polynomial)
  Poisson solver: Gauss-Seidel solver with 6 multi-grid levels
    Coarsest grid: 5 x 5 x 3 points
    Stencil: 6*3+1=19 point O(h^6) finite-difference Laplacian
    Max iterations: 1000
    Tolerance: 1.000000e-07 

Memory estimate:
  Process memory now: 79.59 MiB
  Calculator: 15.59 MiB
    Density: 6.13 MiB
      Arrays: 3.81 MiB
      Localized functions: 0.86 MiB
      Mixer: 1.46 MiB
    Hamiltonian: 5.40 MiB
      Arrays: 2.49 MiB
      XC: 0.00 MiB
      Poisson: 2.85 MiB
      vbar: 0.07 MiB
    Wavefunctions: 4.05 MiB
      C [qnM]: 0.23 MiB
      S, T [2 x qmm]: 1.49 MiB
      P [aqMi]: 0.01 MiB
      TCI: 0.00 MiB
      BasisFunctions: 2.33 MiB
      Eigensolver: 0.00 MiB

Total number of cores used: 16
Domain decomposition: 2 x 4 x 2

Number of atoms: 24
Number of atomic orbitals: 312
Number of bands in calculation: 98
Bands to converge: occupied states only
Number of valence electrons: 96

... initialized

Initializing position-dependent things.

Density initialized from atomic densities
           .--------------------------------------.  
          /|                                      |  
         / |                                      |  
        /  |                                      |  
       /   |                                      |  
      /    |                                      |  
     /     |                                      |  
    /      |                                      |  
   /       |                                      |  
  /        |      C   C C  CC                     |  
 *         |                                      |  
 |         |  CC    C      C C  C                 |  
 |         .----C------C-C----C---C---------------.  
 |        /    C    CC       C                   /   
 |       /       C    C    C                    /    
 |      /                                      /     
 |     /                                      /      
 |    /                                      /       
 |   /                                      /        
 |  /                                      /         
 | /                                      /          
 |/                                      /           
 *--------------------------------------*            

Positions:
   0 C      4.299997   10.551285    4.983769
   1 C      5.706874    7.442910    5.038695
   2 C      4.666827    4.642244    4.736482
   3 C      7.938817    3.376506    4.984893
   4 C      7.157539    7.031092    4.526197
   5 C     11.853713    6.967223    4.887481
   6 C      9.739888    3.688311    5.092216
   7 C      5.698921    4.026246    4.643096
   8 C      6.498971    5.526217    4.958155
   9 C      4.218958    7.827810    4.615548
  10 C     10.589510    8.204705    4.618840
  11 C      3.559175    9.112161    4.606942
  12 C      8.290728   11.044524    5.258131
  13 C     10.621598    4.831385    5.619078
  14 C      8.290767    9.398139    4.331650
  15 C      6.422450   11.582437    4.619171
  16 C      7.066502    4.602461    5.040094
  17 C      5.860034   10.813352    5.182666
  18 C      9.510432    7.776167    5.103239
  19 C      3.298206    7.457476    5.436498
  20 C     10.350520    6.669433    4.572304
  21 C      8.470950    5.885755    5.117517
  22 C      7.817236   11.752340    4.592619
  23 C     10.160855    5.548375    4.635374

Unit cell:
           periodic     x           y           z      points  spacing
  1. axis:    yes   16.000000    0.000000    0.000000    80     0.2000
  2. axis:    yes    0.000000   16.000000    0.000000    80     0.2000
  3. axis:    yes    0.000000    0.000000   10.000000    48     0.2083

Effective grid spacing dv^(1/3) = 0.2027

                     log10-error:    total        iterations:
           time      wfs    density  energy       fermi  poisson
iter:   1  14:13:06          +inf  -140.130444    2      6      
iter:   2  14:13:07         -0.83  -136.933591    3      3      
iter:   3  14:13:07         -0.89  -133.506844    4      3      
iter:   4  14:13:08         -0.95  -132.652209    3      3      
iter:   5  14:13:08         -1.02  -131.535276    3      3      
iter:   6  14:13:09         -1.12  -130.956342    4      3      
iter:   7  14:13:09         -1.20  -130.518998    4      3      
iter:   8  14:13:10         -1.43  -130.363832    4      3      
iter:   9  14:13:10         -1.60  -130.323423    3      3      
iter:  10  14:13:11         -1.71  -130.294680    3      2      
iter:  11  14:13:11         -1.80  -130.270360    3      3      
iter:  12  14:13:12         -1.97  -130.260380    3      2      
iter:  13  14:13:12         -2.12  -130.261842    3      2      
iter:  14  14:13:13         -2.21  -130.258993    3      2      
iter:  15  14:13:13         -2.32  -130.257622    2      2      
iter:  16  14:13:14         -2.41  -130.255704    3      2      
iter:  17  14:13:14         -2.50  -130.254620    3      2      
iter:  18  14:13:15         -2.61  -130.253574    3      2      
iter:  19  14:13:15         -2.91  -130.265452    3      1      
iter:  20  14:13:16         -3.12  -130.257442    2      1      
iter:  21  14:13:16         -3.25  -130.251609    2      1      
iter:  22  14:13:17         -3.40  -130.250534    2      1      
iter:  23  14:13:17         -3.52  -130.249509    2      1      
iter:  24  14:13:18         -3.59  -130.250941    2      1      
iter:  25  14:13:18         -3.76  -130.250871    2      1      
iter:  26  14:13:18         -3.88  -130.249664    2      1      
iter:  27  14:13:19         -3.97  -130.249375    2      1      
iter:  28  14:13:19         -4.07  -130.248357    2      1      

Converged after 28 iterations.

Dipole moment: (0.691676, 0.537723, -0.403619) |e|*Ang

Energy contributions relative to reference atoms: (reference = -24663.074771)

Kinetic:       +191.690105
Potential:     -167.316680
External:        +0.000000
XC:            -157.161117
Entropy (-ST):   -0.472351
Local:           +2.775511
--------------------------
Free energy:   -130.484532
Extrapolated:  -130.248357

Fermi level: -4.90573

 Band  Eigenvalues  Occupancy
    0    -25.40554    2.00000
    1    -24.59476    2.00000
    2    -22.60322    2.00000
    3    -22.53694    2.00000
    4    -21.98758    2.00000
    5    -19.96663    2.00000
    6    -19.63088    2.00000
    7    -19.20436    2.00000
    8    -18.60837    2.00000
    9    -17.82883    2.00000
   10    -17.05207    2.00000
   11    -16.54893    2.00000
   12    -15.94573    2.00000
   13    -14.88758    2.00000
   14    -14.47690    2.00000
   15    -13.81991    2.00000
   16    -13.66589    2.00000
   17    -13.24996    2.00000
   18    -12.87014    2.00000
   19    -12.17250    2.00000
   20    -11.63827    2.00000
   21    -11.56328    2.00000
   22    -11.39991    2.00000
   23    -10.88770    2.00000
   24    -10.41883    2.00000
   25    -10.10939    2.00000
   26     -9.88662    2.00000
   27     -9.77055    2.00000
   28     -9.24868    2.00000
   29     -9.17256    2.00000
   30     -8.99797    2.00000
   31     -8.44702    2.00000
   32     -8.27118    2.00000
   33     -7.98084    2.00000
   34     -7.83691    2.00000
   35     -7.52766    2.00000
   36     -7.10059    2.00000
   37     -7.00827    2.00000
   38     -6.83786    2.00000
   39     -6.46313    2.00000
   40     -6.41552    2.00000
   41     -6.23062    2.00000
   42     -6.07976    1.99998
   43     -5.87363    1.99987
   44     -5.47786    1.99347
   45     -5.29599    1.96042
   46     -5.12214    1.79395
   47     -4.90783    1.01050
   48     -4.88214    0.88260
   49     -4.74257    0.32722
   50     -4.48912    0.03055
   51     -4.17525    0.00134
   52     -3.89961    0.00009
   53     -3.67097    0.00001
   54     -3.57887    0.00000
   55     -3.25404    0.00000
   56     -3.08011    0.00000
   57     -2.69261    0.00000
   58     -2.48963    0.00000
   59     -2.35078    0.00000
   60     -1.90583    0.00000
   61     -1.71895    0.00000
   62     -1.31940    0.00000
   63     -0.92731    0.00000
   64     -0.77774    0.00000
   65     -0.68961    0.00000
   66     -0.58266    0.00000
   67     -0.34038    0.00000
   68      0.16558    0.00000
   69      0.76914    0.00000
   70      1.22357    0.00000
   71      1.26755    0.00000
   72      1.79216    0.00000
   73      2.14647    0.00000
   74      2.55519    0.00000
   75      3.32437    0.00000
   76      3.63858    0.00000
   77      3.91931    0.00000
   78      4.60448    0.00000
   79      5.04061    0.00000
   80      5.31537    0.00000
   81      5.57776    0.00000
   82      6.11259    0.00000
   83      6.59273    0.00000
   84      6.69988    0.00000
   85      7.30790    0.00000
   86      7.55645    0.00000
   87      7.96114    0.00000
   88      8.11775    0.00000
   89      8.45259    0.00000
   90      8.48254    0.00000
   91      8.66836    0.00000
   92      8.78028    0.00000
   93      8.98028    0.00000
   94      9.11860    0.00000
   95      9.17152    0.00000
   96      9.27410    0.00000
   97      9.39707    0.00000


Forces in eV/Ang:
  0 C     0.69445   -4.24577    0.01436
  1 C     2.60160   -1.59489   -2.85335
  2 C    -8.16069    4.54346    0.51756
  3 C     4.39517    0.72986    0.98193
  4 C    -4.27253   -1.84634    2.40352
  5 C    -2.10886    2.40606   -0.94767
  6 C    -1.99770    2.60687    1.63777
  7 C     6.28656   -2.90206   -0.87665
  8 C   -16.59830   26.91591   -2.88904
  9 C     8.55034    1.13667   -2.03028
 10 C     7.33271    1.51876   -1.55478
 11 C     2.33621    2.89234    1.89122
 12 C    14.43822  -20.58729   13.84223
 13 C     0.72525   -9.70860    2.83095
 14 C     0.91374    0.94370    2.09355
 15 C    12.62411   14.63582   -9.62889
 16 C    16.59149  -28.44536    2.11988
 17 C   -19.24423  -15.37842    8.55868
 18 C    -7.78944    1.82733    2.40709
 19 C    -5.52261    0.01105    2.85919
 20 C     7.95008   20.28939   -2.26847
 21 C    -0.45730    3.00261   -0.71364
 22 C   -11.54656   18.34187  -15.97792
 23 C    -7.74585  -17.13309   -2.45939

System changes: positions 

Initializing position-dependent things.

Density initialized from wave functions
           .--------------------------------------.  
          /|                                      |  
         / |                                      |  
        /  |                                      |  
       /   |                                      |  
      /    |                                      |  
     /     |                                      |  
    /      |                                      |  
   /       |                                      |  
  /        |      C   C C  CC                     |  
 *         |                                      |  
 |         |  CC    C      C C  C                 |  
 |         .----C------C-C----C---C---------------.  
 |        /    C    CC       C                   /   
 |       /       C    C    C                    /    
 |      /                                      /     
 |     /                                      /      
 |    /                                      /       
 |   /                                      /        
 |  /                                      /         
 | /                                      /          
 |/                                      /           
 *--------------------------------------*            

Positions:
   0 C      4.300839   10.546138    4.983787
   1 C      5.710027    7.440977    5.035236
   2 C      4.656935    4.647751    4.737110
   3 C      7.944145    3.377391    4.986083
   4 C      7.152360    7.028854    4.529111
   5 C     11.851156    6.970140    4.886332
   6 C      9.737467    3.691471    5.094201
   7 C      5.706541    4.022729    4.642033
   8 C      6.478851    5.558844    4.954653
   9 C      4.229323    7.829187    4.613087
  10 C     10.598399    8.206546    4.616955
  11 C      3.562007    9.115667    4.609234
  12 C      8.308230   11.019569    5.274910
  13 C     10.622477    4.819617    5.622510
  14 C      8.291875    9.399283    4.334188
  15 C      6.437752   11.600178    4.607499
  16 C      7.086614    4.567980    5.042664
  17 C      5.836706   10.794711    5.193041
  18 C      9.500990    7.778383    5.106157
  19 C      3.291512    7.457490    5.439964
  20 C     10.360157    6.694028    4.569554
  21 C      8.470396    5.889395    5.116652
  22 C      7.803240   11.774574    4.573251
  23 C     10.151466    5.527606    4.632393

Unit cell:
           periodic     x           y           z      points  spacing
  1. axis:    yes   16.000000    0.000000    0.000000    80     0.2000
  2. axis:    yes    0.000000   16.000000    0.000000    80     0.2000
  3. axis:    yes    0.000000    0.000000   10.000000    48     0.2083

Effective grid spacing dv^(1/3) = 0.2027

                     log10-error:    total        iterations:
           time      wfs    density  energy       fermi  poisson
iter:   1  14:13:21          +inf  -136.562932    3      5      
iter:   2  14:13:21         -1.73  -136.486979    3      2      
iter:   3  14:13:22         -1.90  -136.465611    3      2      
iter:   4  14:13:22         -1.99  -136.449578    3      2      
iter:   5  14:13:23         -2.05  -136.433222    3      2      
iter:   6  14:13:23         -2.19  -136.424208    3      2      
iter:   7  14:13:24         -2.39  -136.416061    3      2      
iter:   8  14:13:24         -2.64  -136.413004    2      2      
iter:   9  14:13:25         -2.73  -136.412077    2      2      
iter:  10  14:13:25         -2.88  -136.411257    2      2      
iter:  11  14:13:26         -3.03  -136.409156    2      1      
iter:  12  14:13:26         -3.15  -136.409441    2      1      
iter:  13  14:13:27         -3.28  -136.408157    2      1      
iter:  14  14:13:27         -3.42  -136.408382    2      1      
iter:  15  14:13:28         -3.55  -136.408915    2      1      
iter:  16  14:13:28         -3.67  -136.408386    2      1      
iter:  17  14:13:29         -3.87  -136.409729    2      1      
iter:  18  14:13:29         -4.02  -136.409922    2      1      

Converged after 18 iterations.

Dipole moment: (0.659290, 0.584078, -0.391211) |e|*Ang

Energy contributions relative to reference atoms: (reference = -24663.074771)

Kinetic:       +152.499949
Potential:     -139.741436
External:        +0.000000
XC:            -151.619326
Entropy (-ST):   -0.458719
Local:           +2.680251
--------------------------
Free energy:   -136.639282
Extrapolated:  -136.409922

Fermi level: -4.86483

 Band  Eigenvalues  Occupancy
    0    -25.35787    2.00000
    1    -24.18989    2.00000
    2    -22.50686    2.00000
    3    -22.42967    2.00000
    4    -21.85396    2.00000
    5    -19.95099    2.00000
    6    -19.43137    2.00000
    7    -19.12729    2.00000
    8    -18.58006    2.00000
    9    -17.81435    2.00000
   10    -17.05577    2.00000
   11    -16.56489    2.00000
   12    -15.85621    2.00000
   13    -14.97535    2.00000
   14    -14.48493    2.00000
   15    -13.82500    2.00000
   16    -13.55222    2.00000
   17    -13.10339    2.00000
   18    -12.84826    2.00000
   19    -12.08979    2.00000
   20    -11.65130    2.00000
   21    -11.48121    2.00000
   22    -11.15212    2.00000
   23    -10.89747    2.00000
   24    -10.33662    2.00000
   25    -10.03427    2.00000
   26     -9.81378    2.00000
   27     -9.69951    2.00000
   28     -9.19388    2.00000
   29     -9.18049    2.00000
   30     -9.00239    2.00000
   31     -8.37274    2.00000
   32     -8.26031    2.00000
   33     -8.01891    2.00000
   34     -7.83666    2.00000
   35     -7.51156    2.00000
   36     -7.07181    2.00000
   37     -7.00531    2.00000
   38     -6.80713    2.00000
   39     -6.43583    2.00000
   40     -6.33890    2.00000
   41     -6.17173    2.00000
   42     -6.06107    1.99999
   43     -5.84719    1.99989
   44     -5.43499    1.99334
   45     -5.25494    1.96036
   46     -5.10854    1.83923
   47     -4.85552    0.95352
   48     -4.84809    0.91651
   49     -4.69387    0.30643
   50     -4.44201    0.02874
   51     -4.15804    0.00170
   52     -3.96974    0.00026
   53     -3.73165    0.00002
   54     -3.49434    0.00000
   55     -3.21745    0.00000
   56     -3.01943    0.00000
   57     -2.65535    0.00000
   58     -2.44177    0.00000
   59     -2.30211    0.00000
   60     -1.95416    0.00000
   61     -1.78981    0.00000
   62     -1.42773    0.00000
   63     -1.17187    0.00000
   64     -0.98242    0.00000
   65     -0.72345    0.00000
   66     -0.59241    0.00000
   67     -0.32295    0.00000
   68      0.19341    0.00000
   69      0.52865    0.00000
   70      1.01271    0.00000
   71      1.32443    0.00000
   72      1.88544    0.00000
   73      2.06775    0.00000
   74      2.52595    0.00000
   75      3.34431    0.00000
   76      3.80733    0.00000
   77      3.92359    0.00000
   78      4.50571    0.00000
   79      5.14490    0.00000
   80      5.46533    0.00000
   81      5.74562    0.00000
   82      6.16731    0.00000
   83      6.55131    0.00000
   84      6.71161    0.00000
   85      7.30414    0.00000
   86      7.59639    0.00000
   87      7.97541    0.00000
   88      8.13656    0.00000
   89      8.43867    0.00000
   90      8.51905    0.00000
   91      8.63803    0.00000
   92      8.83839    0.00000
   93      8.93536    0.00000
   94      9.07410    0.00000
   95      9.21289    0.00000
   96      9.27833    0.00000
   97      9.42844    0.00000


Forces in eV/Ang:
  0 C     0.76148   -4.51851   -0.03592
  1 C     2.41529   -1.54945   -2.73813
  2 C    -6.40035    3.63279    0.38520
  3 C     4.57606    0.62217    0.95239
  4 C    -4.04737   -1.98032    2.30902
  5 C    -2.10801    2.42718   -0.98814
  6 C    -1.94625    2.45348    1.69242
  7 C     4.73110   -1.77486   -0.71024
  8 C    -9.99856   16.05799   -1.96448
  9 C     7.61874    0.88910   -1.31567
 10 C     6.36314    1.42492   -1.07243
 11 C     2.40796    2.88624    1.98544
 12 C     8.98160  -13.03971    6.82354
 13 C     0.64027   -9.35089    2.61454
 14 C     0.91578    0.95040    2.08528
 15 C     7.46674    8.55316   -5.09784
 16 C     9.64043  -17.49667    1.10468
 17 C   -14.70671   -9.44332    4.17714
 18 C    -6.87340    2.26571    2.00897
 19 C    -4.69729    0.37714    2.12355
 20 C     7.01980   13.33587   -1.78396
 21 C    -0.38948    2.95870   -0.71292
 22 C    -5.48459   10.98206   -9.11864
 23 C    -6.90230  -10.76356   -2.73927

System changes: positions 

Initializing position-dependent things.

Density initialized from wave functions
           .--------------------------------------.  
          /|                                      |  
         / |                                      |  
        /  |                                      |  
       /   |                                      |  
      /    |                                      |  
     /     |                                      |  
    /      |                                      |  
   /       |                                      |  
  /        |      C   C C  CC                     |  
 *         |                                      |  
 |         |  CC    C      C C  C                 |  
 |         .----C------C-C----CC--C---------------.  
 |        /    C    CC       C                   /   
 |       /       C     C   C                    /    
 |      /                                      /     
 |     /                                      /      
 |    /                                      /       
 |   /                                      /        
 |  /                                      /         
 | /                                      /          
 |/                                      /           
 *--------------------------------------*            

Positions:
   0 C      4.304448   10.525388    4.983365
   1 C      5.719351    7.434601    5.024155
   2 C      4.638974    4.658417    4.738050
   3 C      7.964652    3.379475    4.989993
   4 C      7.136273    7.019683    4.538469
   5 C     11.842158    6.980619    4.881896
   6 C      9.729428    3.701132    5.101721
   7 C      5.718464    4.021151    4.639886
   8 C      6.471292    5.569607    4.951186
   9 C      4.256901    7.831666    4.611273
  10 C     10.620412    8.212132    4.614943
  11 C      3.572673    9.127962    4.618215
  12 C      8.317532   11.004069    5.266678
  13 C     10.624759    4.781585    5.632524
  14 C      8.295797    9.403378    4.343050
  15 C      6.442179   11.604317    4.609855
  16 C      7.090772    4.551556    5.041976
  17 C      5.798058   10.785984    5.187549
  18 C      9.476512    7.790393    5.112617
  19 C      3.275845    7.461050    5.445116
  20 C     10.385184    6.713956    4.564515
  21 C      8.469093    5.901797    5.113611
  22 C      7.812096   11.782286    4.570833
  23 C     10.126478    5.515554    4.619203

Unit cell:
           periodic     x           y           z      points  spacing
  1. axis:    yes   16.000000    0.000000    0.000000    80     0.2000
  2. axis:    yes    0.000000   16.000000    0.000000    80     0.2000
  3. axis:    yes    0.000000    0.000000   10.000000    48     0.2083

Effective grid spacing dv^(1/3) = 0.2027

                     log10-error:    total        iterations:
           time      wfs    density  energy       fermi  poisson
iter:   1  14:13:31          +inf  -140.511575    4      5      
iter:   2  14:13:31         -1.61  -140.367268    3      2      
iter:   3  14:13:32         -1.74  -140.302013    3      2      
iter:   4  14:13:32         -1.90  -140.253756    3      2      
iter:   5  14:13:33         -2.12  -140.247469    3      2      
iter:   6  14:13:33         -2.22  -140.243593    2      2      
iter:   7  14:13:34         -2.32  -140.240361    2      2      
iter:   8  14:13:34         -2.52  -140.239111    3      2      
iter:   9  14:13:35         -2.76  -140.238020    2      2      
iter:  10  14:13:35         -2.88  -140.237532    2      2      
iter:  11  14:13:35         -3.14  -140.237244    2      1      
iter:  12  14:13:36         -3.22  -140.235939    2      1      
iter:  13  14:13:36         -3.39  -140.236174    2      1      
iter:  14  14:13:37         -3.52  -140.236080    2      1      
iter:  15  14:13:37         -3.77  -140.236945    2      1      
iter:  16  14:13:38         -3.85  -140.236836    2      1      
iter:  17  14:13:38         -4.03  -140.236811    2      1      

Converged after 17 iterations.

Dipole moment: (0.592385, 0.586261, -0.355052) |e|*Ang

Energy contributions relative to reference atoms: (reference = -24663.074771)

Kinetic:       +127.605042
Potential:     -121.749800
External:        +0.000000
XC:            -148.542178
Entropy (-ST):   -0.447730
Local:           +2.673989
--------------------------
Free energy:   -140.460676
Extrapolated:  -140.236811

Fermi level: -4.83307

 Band  Eigenvalues  Occupancy
    0    -25.13938    2.00000
    1    -24.05417    2.00000
    2    -22.31888    2.00000
    3    -22.24017    2.00000
    4    -21.61830    2.00000
    5    -20.06690    2.00000
    6    -19.43828    2.00000
    7    -19.00660    2.00000
    8    -18.52301    2.00000
    9    -17.87462    2.00000
   10    -17.01988    2.00000
   11    -16.66995    2.00000
   12    -15.84423    2.00000
   13    -15.01597    2.00000
   14    -14.48642    2.00000
   15    -13.86620    2.00000
   16    -13.39161    2.00000
   17    -13.00684    2.00000
   18    -12.76128    2.00000
   19    -11.99245    2.00000
   20    -11.73894    2.00000
   21    -11.35619    2.00000
   22    -11.12542    2.00000
   23    -10.95948    2.00000
   24    -10.34968    2.00000
   25     -9.96570    2.00000
   26     -9.81017    2.00000
   27     -9.69721    2.00000
   28     -9.17406    2.00000
   29     -9.11492    2.00000
   30     -8.98006    2.00000
   31     -8.37866    2.00000
   32     -8.15822    2.00000
   33     -8.05906    2.00000
   34     -7.78853    2.00000
   35     -7.55988    2.00000
   36     -7.11073    2.00000
   37     -7.05675    2.00000
   38     -6.85898    2.00000
   39     -6.44364    2.00000
   40     -6.26562    2.00000
   41     -6.17396    2.00000
   42     -6.06489    1.99999
   43     -5.84472    1.99992
   44     -5.45863    1.99617
   45     -5.23795    1.96571
   46     -5.09740    1.86720
   47     -4.83226    0.99596
   48     -4.79699    0.82153
   49     -4.66895    0.32461
   50     -4.40430    0.02710
   51     -4.11314    0.00149
   52     -3.95244    0.00030
   53     -3.72028    0.00003
   54     -3.43786    0.00000
   55     -3.13686    0.00000
   56     -2.89316    0.00000
   57     -2.59719    0.00000
   58     -2.34230    0.00000
   59     -2.25819    0.00000
   60     -1.88521    0.00000
   61     -1.72470    0.00000
   62     -1.43459    0.00000
   63     -1.25666    0.00000
   64     -1.10113    0.00000
   65     -0.74733    0.00000
   66     -0.65203    0.00000
   67     -0.37388    0.00000
   68      0.25046    0.00000
   69      0.34392    0.00000
   70      1.04355    0.00000
   71      1.51958    0.00000
   72      1.95701    0.00000
   73      2.09211    0.00000
   74      2.67729    0.00000
   75      3.50206    0.00000
   76      3.88460    0.00000
   77      4.11851    0.00000
   78      4.84469    0.00000
   79      5.36018    0.00000
   80      5.63716    0.00000
   81      5.97604    0.00000
   82      6.09682    0.00000
   83      6.71817    0.00000
   84      6.83123    0.00000
   85      7.26515    0.00000
   86      7.60178    0.00000
   87      7.95211    0.00000
   88      8.15630    0.00000
   89      8.45724    0.00000
   90      8.49830    0.00000
   91      8.59737    0.00000
   92      8.87652    0.00000
   93      8.94684    0.00000
   94      9.00416    0.00000
   95      9.23928    0.00000
   96      9.30342    0.00000
   97      9.43137    0.00000


Forces in eV/Ang:
  0 C     0.64618   -4.95092   -0.14876
  1 C     2.08865   -1.30823   -2.67297
  2 C    -3.97883    2.24526    0.19820
  3 C     4.62539    0.71994    0.95080
  4 C    -3.80062   -2.09565    2.12197
  5 C    -1.88470    2.52908   -0.95355
  6 C    -2.00671    2.39275    1.69367
  7 C     2.28647   -0.27139   -0.48647
  8 C    -8.15575   12.85945   -1.78164
  9 C     5.92029    0.46430    0.04969
 10 C     4.24718    0.66500   -0.06622
 11 C     2.60627    2.79625    2.14592
 12 C     8.00739  -12.30852    5.66127
 13 C    -0.23491   -7.91077    0.98900
 14 C     0.90320    0.88773    2.14641
 15 C     6.26740    6.27333   -3.31361
 16 C     7.90727  -14.67879    0.83304
 17 C   -12.71329   -6.87002    2.33712
 18 C    -4.53240    2.80602    0.97507
 19 C    -3.08344    1.06915    0.68086
 20 C     6.14760    8.88919   -1.44113
 21 C     0.14951    3.00864   -0.67624
 22 C    -5.21781   10.13648   -7.95478
 23 C    -6.22216   -7.37174   -1.45440

System changes: positions 

Initializing position-dependent things.

Density initialized from wave functions
           .--------------------------------------.  
          /|                                      |  
         / |                                      |  
        /  |                                      |  
       /   |                                      |  
      /    |                                      |  
     /     |                                      |  
    /      |                                      |  
   /       |                                      |  
  /        |      C   C C  CC                     |  
 *         |                                      |  
 |         |  CC    C      C C  C                 |  
 |         .----C------C-C----CC--C---------------.  
 |        /    C    CC       C                   /   
 |       /       C     C   C                    /    
 |      /                                      /     
 |     /                                      /      
 |    /                                      /       
 |   /                                      /        
 |  /                                      /         
 | /                                      /          
 |/                                      /           
 *--------------------------------------*            

Positions:
   0 C      4.307623   10.498382    4.982090
   1 C      5.728005    7.428976    5.011551
   2 C      4.633634    4.661728    4.737936
   3 C      7.988561    3.382865    4.994587
   4 C      7.119051    7.008363    4.548080
   5 C     11.833425    6.993568    4.877080
   6 C      9.719506    3.712192    5.110378
   7 C      5.716210    4.028913    4.638818
   8 C      6.464435    5.577641    4.946836
   9 C      4.277508    7.831706    4.618461
  10 C     10.631360    8.212885    4.619538
  11 C      3.586497    9.141579    4.629741
  12 C      8.331038   10.977519    5.261252
  13 C     10.620752    4.747879    5.631913
  14 C      8.300259    9.407642    4.353855
  15 C      6.447691   11.602814    4.617975
  16 C      7.095188    4.533795    5.040969
  17 C      5.760078   10.784714    5.175064
  18 C      9.464552    7.807758    5.112825
  19 C      3.268640    7.469899    5.441250
  20 C     10.409261    6.715575    4.560411
  21 C      8.471652    5.916703    5.110357
  22 C      7.813068   11.798526    4.564176
  23 C     10.101114    5.515978    4.614398

Unit cell:
           periodic     x           y           z      points  spacing
  1. axis:    yes   16.000000    0.000000    0.000000    80     0.2000
  2. axis:    yes    0.000000   16.000000    0.000000    80     0.2000
  3. axis:    yes    0.000000    0.000000   10.000000    48     0.2083

Effective grid spacing dv^(1/3) = 0.2027

                     log10-error:    total        iterations:
           time      wfs    density  energy       fermi  poisson
iter:   1  14:13:40          +inf  -143.590115    3      5      
iter:   2  14:13:40         -1.59  -143.375530    2      2      
iter:   3  14:13:41         -1.82  -143.326593    3      2      
iter:   4  14:13:41         -1.96  -143.287272    3      2      
iter:   5  14:13:42         -2.16  -143.281926    3      2      
iter:   6  14:13:42         -2.26  -143.276479    3      2      
iter:   7  14:13:43         -2.43  -143.273784    2      2      
iter:   8  14:13:43         -2.64  -143.273581    2      2      
iter:   9  14:13:44         -2.82  -143.273766    2      2      
iter:  10  14:13:44         -2.96  -143.273527    2      2      
iter:  11  14:13:45         -3.21  -143.273421    2      1      
iter:  12  14:13:45         -3.29  -143.272939    2      1      
iter:  13  14:13:46         -3.41  -143.272735    2      1      
iter:  14  14:13:46         -3.60  -143.272852    2      1      
iter:  15  14:13:47         -3.78  -143.273328    2      1      
iter:  16  14:13:47         -4.00  -143.273731    2      1      
iter:  17  14:13:47         -4.07  -143.273619    2      1      

Converged after 17 iterations.

Dipole moment: (0.538333, 0.593645, -0.322899) |e|*Ang

Energy contributions relative to reference atoms: (reference = -24663.074771)

Kinetic:       +113.992740
Potential:     -111.977413
External:        +0.000000
XC:            -147.756075
Entropy (-ST):   -0.428329
Local:           +2.681293
--------------------------
Free energy:   -143.487784
Extrapolated:  -143.273619

Fermi level: -4.80754

 Band  Eigenvalues  Occupancy
    0    -24.99049    2.00000
    1    -23.92909    2.00000
    2    -22.20020    2.00000
    3    -22.11938    2.00000
    4    -21.54054    2.00000
    5    -20.22400    2.00000
    6    -19.44952    2.00000
    7    -18.99909    2.00000
    8    -18.54931    2.00000
    9    -17.94772    2.00000
   10    -17.02013    2.00000
   11    -16.80618    2.00000
   12    -15.88397    2.00000
   13    -15.12869    2.00000
   14    -14.52777    2.00000
   15    -13.90266    2.00000
   16    -13.33927    2.00000
   17    -13.02010    2.00000
   18    -12.73591    2.00000
   19    -11.94402    2.00000
   20    -11.81985    2.00000
   21    -11.33092    2.00000
   22    -11.14434    2.00000
   23    -11.03611    2.00000
   24    -10.36941    2.00000
   25     -9.96853    2.00000
   26     -9.79511    2.00000
   27     -9.70855    2.00000
   28     -9.17626    2.00000
   29     -9.10703    2.00000
   30     -8.98519    2.00000
   31     -8.42372    2.00000
   32     -8.13518    2.00000
   33     -8.08556    2.00000
   34     -7.71051    2.00000
   35     -7.61652    2.00000
   36     -7.12386    2.00000
   37     -7.08599    2.00000
   38     -6.90645    2.00000
   39     -6.47124    2.00000
   40     -6.25424    2.00000
   41     -6.17552    2.00000
   42     -6.06106    1.99999
   43     -5.82603    1.99992
   44     -5.48452    1.99771
   45     -5.23455    1.97242
   46     -5.11097    1.90820
   47     -4.81181    1.02131
   48     -4.75640    0.74971
   49     -4.64272    0.32270
   50     -4.37715    0.02667
   51     -4.05363    0.00106
   52     -3.91754    0.00027
   53     -3.69379    0.00003
   54     -3.38114    0.00000
   55     -3.05987    0.00000
   56     -2.75985    0.00000
   57     -2.52360    0.00000
   58     -2.26223    0.00000
   59     -2.22071    0.00000
   60     -1.76587    0.00000
   61     -1.63866    0.00000
   62     -1.42871    0.00000
   63     -1.26615    0.00000
   64     -1.13368    0.00000
   65     -0.69329    0.00000
   66     -0.61331    0.00000
   67     -0.30885    0.00000
   68      0.29171    0.00000
   69      0.37781    0.00000
   70      1.19046    0.00000
   71      1.63887    0.00000
   72      2.09217    0.00000
   73      2.27941    0.00000
   74      2.91004    0.00000
   75      3.56266    0.00000
   76      3.98823    0.00000
   77      4.36138    0.00000
   78      5.24060    0.00000
   79      5.48799    0.00000
   80      5.78474    0.00000
   81      5.90795    0.00000
   82      6.24682    0.00000
   83      7.01013    0.00000
   84      7.05672    0.00000
   85      7.31729    0.00000
   86      7.59573    0.00000
   87      7.98794    0.00000
   88      8.16838    0.00000
   89      8.41711    0.00000
   90      8.53298    0.00000
   91      8.60318    0.00000
   92      8.93321    0.00000
   93      8.97037    0.00000
   94      9.07154    0.00000
   95      9.25241    0.00000
   96      9.33197    0.00000
   97      9.44705    0.00000


Forces in eV/Ang:
  0 C     0.46438   -5.36424   -0.22543
  1 C     1.75662   -1.09141   -2.52868
  2 C    -3.97012    2.28863    0.19673
  3 C     4.73287    0.91401    0.97313
  4 C    -3.49286   -2.25695    1.93206
  5 C    -1.55746    2.57833   -0.88288
  6 C    -2.37343    2.13060    1.60715
  7 C     2.39710   -0.16021   -0.39942
  8 C    -6.65318   10.15580   -1.60337
  9 C     5.29385    0.39188    0.50260
 10 C     3.57418    0.27579    0.30857
 11 C     2.74218    2.95107    2.25325
 12 C     5.88631   -9.92877    2.95205
 13 C    -0.67162   -7.00681    0.15763
 14 C     0.86437    0.95674    2.31531
 15 C     5.84027    5.18113   -2.44259
 16 C     6.44747  -12.46962    0.57794
 17 C   -11.62492   -5.58728    1.47072
 18 C    -3.73231    2.82821    0.53382
 19 C    -2.54780    1.32346    0.18157
 20 C     5.81758    7.74188   -1.39501
 21 C     0.62687    2.99620   -0.61297
 22 C    -3.60137    7.60074   -5.32785
 23 C    -6.26220   -6.49710   -0.53916

System changes: positions 

Initializing position-dependent things.

Density initialized from wave functions
           .--------------------------------------.  
          /|                                      |  
         / |                                      |  
        /  |                                      |  
       /   |                                      |  
      /    |                                      |  
     /     |                                      |  
    /      |                                      |  
   /       |                                      |  
  /        |      C   C C  CC                     |  
 *         |                                      |  
 |         |  C C   C      C C  C                 |  
 |         .----C------C-C----CC--C---------------.  
 |        /    C    CC       C                   /   
 |       /       C     C   C                    /    
 |      /                                      /     
 |     /                                      /      
 |    /                                      /       
 |   /                                      /        
 |  /                                      /         
 | /                                      /          
 |/                                      /           
 *--------------------------------------*            

Positions:
   0 C      4.309434   10.468146    4.980326
   1 C      5.734745    7.424695    4.999561
   2 C      4.624292    4.667575    4.738106
   3 C      8.013602    3.387943    4.999509
   4 C      7.103339    6.995771    4.556692
   5 C     11.826893    7.007125    4.872733
   6 C      9.706450    3.721734    5.118494
   7 C      5.718426    4.035234    4.638033
   8 C      6.458629    5.582164    4.942345
   9 C      4.296074    7.831786    4.627522
  10 C     10.639971    8.211212    4.625879
  11 C      3.601495    9.156795    4.642154
  12 C      8.336699   10.957682    5.245276
  13 C     10.613889    4.719023    5.626089
  14 C      8.304533    9.412575    4.366214
  15 C      6.458057   11.602775    4.625570
  16 C      7.099261    4.515557    5.039556
  17 C      5.722009   10.783431    5.162852
  18 C      9.455835    7.824774    5.110783
  19 C      3.263297    7.480011    5.435306
  20 C     10.433197    6.720829    4.555674
  21 C      8.477572    5.931907    5.107493
  22 C      7.817869   11.806391    4.567360
  23 C     10.073216    5.512149    4.616233

Unit cell:
           periodic     x           y           z      points  spacing
  1. axis:    yes   16.000000    0.000000    0.000000    80     0.2000
  2. axis:    yes    0.000000   16.000000    0.000000    80     0.2000
  3. axis:    yes    0.000000    0.000000   10.000000    48     0.2083

Effective grid spacing dv^(1/3) = 0.2027

                     log10-error:    total        iterations:
           time      wfs    density  energy       fermi  poisson
iter:   1  14:13:49          +inf  -146.154355    3      5      
iter:   2  14:13:50         -1.65  -145.952541    3      2      
iter:   3  14:13:50         -1.89  -145.914899    3      2      
iter:   4  14:13:51         -2.01  -145.880507    3      2      
iter:   5  14:13:51         -2.26  -145.877010    3      2      
iter:   6  14:13:52         -2.37  -145.874946    3      2      
iter:   7  14:13:52         -2.48  -145.873022    3      2      
iter:   8  14:13:53         -2.67  -145.872617    2      2      
iter:   9  14:13:53         -2.92  -145.873318    2      2      
iter:  10  14:13:54         -3.07  -145.870948    2      1      
iter:  11  14:13:54         -3.21  -145.871634    2      1      
iter:  12  14:13:54         -3.37  -145.872765    2      1      
iter:  13  14:13:55         -3.48  -145.872573    2      1      
iter:  14  14:13:55         -3.60  -145.872171    2      1      
iter:  15  14:13:56         -3.78  -145.872930    2      1      
iter:  16  14:13:56         -4.04  -145.873318    2      1      

Converged after 16 iterations.

Dipole moment: (0.473928, 0.588879, -0.295162) |e|*Ang

Energy contributions relative to reference atoms: (reference = -24663.074771)

Kinetic:       +105.517099
Potential:     -105.927320
External:        +0.000000
XC:            -147.954082
Entropy (-ST):   -0.406921
Local:           +2.694445
--------------------------
Free energy:   -146.076779
Extrapolated:  -145.873318

Fermi level: -4.77622

 Band  Eigenvalues  Occupancy
    0    -24.88845    2.00000
    1    -23.83443    2.00000
    2    -22.14759    2.00000
    3    -22.07064    2.00000
    4    -21.50311    2.00000
    5    -20.35708    2.00000
    6    -19.47075    2.00000
    7    -18.95803    2.00000
    8    -18.55695    2.00000
    9    -18.00967    2.00000
   10    -17.11184    2.00000
   11    -16.88301    2.00000
   12    -15.91893    2.00000
   13    -15.23934    2.00000
   14    -14.59702    2.00000
   15    -13.97201    2.00000
   16    -13.33250    2.00000
   17    -13.04010    2.00000
   18    -12.72247    2.00000
   19    -12.00549    2.00000
   20    -11.79687    2.00000
   21    -11.38881    2.00000
   22    -11.17655    2.00000
   23    -11.07034    2.00000
   24    -10.37180    2.00000
   25     -9.97431    2.00000
   26     -9.79878    2.00000
   27     -9.72342    2.00000
   28     -9.20258    2.00000
   29     -9.10637    2.00000
   30     -8.99383    2.00000
   31     -8.48758    2.00000
   32     -8.13409    2.00000
   33     -8.09011    2.00000
   34     -7.68604    2.00000
   35     -7.60281    2.00000
   36     -7.16091    2.00000
   37     -7.10603    2.00000
   38     -6.95053    2.00000
   39     -6.50998    2.00000
   40     -6.23918    2.00000
   41     -6.17484    2.00000
   42     -6.02707    1.99999
   43     -5.81704    1.99994
   44     -5.50564    1.99864
   45     -5.23448    1.97975
   46     -5.13601    1.94670
   47     -4.78065    1.02216
   48     -4.71759    0.71500
   49     -4.60743    0.31210
   50     -4.33828    0.02476
   51     -3.98786    0.00075
   52     -3.85107    0.00019
   53     -3.64717    0.00002
   54     -3.31679    0.00000
   55     -2.97666    0.00000
   56     -2.62171    0.00000
   57     -2.44491    0.00000
   58     -2.21108    0.00000
   59     -2.13934    0.00000
   60     -1.66536    0.00000
   61     -1.51570    0.00000
   62     -1.32479    0.00000
   63     -1.19540    0.00000
   64     -1.11723    0.00000
   65     -0.61085    0.00000
   66     -0.57710    0.00000
   67     -0.25556    0.00000
   68      0.25414    0.00000
   69      0.48595    0.00000
   70      1.34380    0.00000
   71      1.66584    0.00000
   72      2.32211    0.00000
   73      2.55770    0.00000
   74      3.18195    0.00000
   75      3.76799    0.00000
   76      4.09993    0.00000
   77      4.59371    0.00000
   78      5.50694    0.00000
   79      5.56216    0.00000
   80      5.84036    0.00000
   81      6.09244    0.00000
   82      6.45721    0.00000
   83      7.21030    0.00000
   84      7.28186    0.00000
   85      7.48825    0.00000
   86      7.62360    0.00000
   87      8.03913    0.00000
   88      8.21119    0.00000
   89      8.40757    0.00000
   90      8.57940    0.00000
   91      8.67063    0.00000
   92      8.98018    0.00000
   93      9.07548    0.00000
   94      9.17542    0.00000
   95      9.27869    0.00000
   96      9.37130    0.00000
   97      9.45704    0.00000


Forces in eV/Ang:
  0 C     0.34845   -5.63245   -0.34975
  1 C     1.45035   -0.83981   -2.41383
  2 C    -3.32011    1.92312    0.13988
  3 C     4.89917    1.13351    0.98409
  4 C    -3.19181   -2.39315    1.76632
  5 C    -1.17182    2.60291   -0.82698
  6 C    -2.92888    1.68767    1.47588
  7 C     1.83330    0.25565   -0.28277
  8 C    -5.53560    8.08703   -1.47031
  9 C     4.79620    0.34866    0.76460
 10 C     3.19232    0.21809    0.57067
 11 C     2.74424    2.89520    2.31648
 12 C     5.39697   -9.77339    2.21231
 13 C    -0.75449   -6.32110   -0.20289
 14 C     0.82008    1.01072    2.42696
 15 C     4.70166    3.78424   -1.52149
 16 C     5.39232  -10.86944    0.40636
 17 C    -9.92878   -3.92783    0.51912
 18 C    -3.34911    2.86727    0.30966
 19 C    -2.19988    1.44819   -0.15123
 20 C     5.20298    5.65919   -1.37939
 21 C     1.06805    3.00717   -0.55630
 22 C    -3.34985    7.29303   -4.59701
 23 C    -6.10322   -4.54770   -0.14662

System changes: positions 

Initializing position-dependent things.

Density initialized from wave functions
           .--------------------------------------.  
          /|                                      |  
         / |                                      |  
        /  |                                      |  
       /   |                                      |  
      /    |                                      |  
     /     |                                      |  
    /      |                                      |  
   /       |                                      |  
  /        |          C C  CC                     |  
 *         |      C                               |  
 |         |  C C   C      C C  C                 |  
 |         .----C------C-C----CC--C---------------.  
 |        /    C    CC       C                   /   
 |       /       C     C   C                    /    
 |      /                                      /     
 |     /                                      /      
 |    /                                      /       
 |   /                                      /        
 |  /                                      /         
 | /                                      /          
 |/                                      /           
 *--------------------------------------*            

Positions:
   0 C      4.310686   10.431018    4.977311
   1 C      5.740619    7.421511    4.986241
   2 C      4.613764    4.674159    4.738201
   3 C      8.044522    3.395897    5.005446
   4 C      7.086944    6.979961    4.565754
   5 C     11.822376    7.023152    4.868080
   6 C      9.685849    3.729036    5.126795
   7 C      5.721205    4.043058    4.637661
   8 C      6.453424    5.582956    4.937196
   9 C      4.317298    7.832470    4.637496
  10 C     10.651387    8.210329    4.633520
  11 C      3.618746    9.174321    4.657013
  12 C      8.345666   10.927402    5.228084
  13 C     10.606858    4.688276    5.619245
  14 C      8.309188    9.419006    4.381716
  15 C      6.465624   11.598556    4.636298
  16 C      7.103081    4.494853    5.037627
  17 C      5.685873   10.788137    5.146358
  18 C      9.443874    7.843906    5.108606
  19 C      3.256513    7.491492    5.428504
  20 C     10.457958    6.720865    4.549199
  21 C      8.487601    5.949922    5.104565
  22 C      7.820006   11.821179    4.569516
  23 C     10.039924    5.515025    4.619654

Unit cell:
           periodic     x           y           z      points  spacing
  1. axis:    yes   16.000000    0.000000    0.000000    80     0.2000
  2. axis:    yes    0.000000   16.000000    0.000000    80     0.2000
  3. axis:    yes    0.000000    0.000000   10.000000    48     0.2083

Effective grid spacing dv^(1/3) = 0.2027

                     log10-error:    total        iterations:
           time      wfs    density  energy       fermi  poisson
iter:   1  14:13:58          +inf  -148.991317    3      5      
iter:   2  14:13:59         -1.60  -148.718816    4      2      
iter:   3  14:13:59         -1.83  -148.647578    3      2      
iter:   4  14:13:59         -2.00  -148.616180    3      2      
iter:   5  14:14:00         -2.18  -148.610403    3      2      
iter:   6  14:14:00         -2.28  -148.604608    3      2      
iter:   7  14:14:01         -2.46  -148.604302    3      2      
iter:   8  14:14:01         -2.58  -148.602839    3      2      
iter:   9  14:14:02         -2.86  -148.603996    2      2      
iter:  10  14:14:02         -3.00  -148.603941    2      2      
iter:  11  14:14:03         -3.18  -148.602713    2      1      
iter:  12  14:14:03         -3.30  -148.603378    2      1      
iter:  13  14:14:04         -3.45  -148.604116    2      1      
iter:  14  14:14:04         -3.55  -148.603843    2      1      
iter:  15  14:14:05         -3.69  -148.603281    2      1      
iter:  16  14:14:05         -3.96  -148.603994    2      1      
iter:  17  14:14:06         -4.07  -148.604192    2      1      

Converged after 17 iterations.

Dipole moment: (0.373992, 0.552987, -0.268387) |e|*Ang

Energy contributions relative to reference atoms: (reference = -24663.074771)

Kinetic:        +97.679725
Potential:     -100.421814
External:        +0.000000
XC:            -148.368120
Entropy (-ST):   -0.382924
Local:           +2.697479
--------------------------
Free energy:   -148.795654
Extrapolated:  -148.604192

Fermi level: -4.74161

 Band  Eigenvalues  Occupancy
    0    -24.73136    2.00000
    1    -23.76863    2.00000
    2    -22.03882    2.00000
    3    -21.99245    2.00000
    4    -21.48974    2.00000
    5    -20.48111    2.00000
    6    -19.48980    2.00000
    7    -18.91735    2.00000
    8    -18.56719    2.00000
    9    -18.04239    2.00000
   10    -17.31017    2.00000
   11    -16.90178    2.00000
   12    -15.97723    2.00000
   13    -15.37983    2.00000
   14    -14.68468    2.00000
   15    -14.03287    2.00000
   16    -13.39150    2.00000
   17    -13.06301    2.00000
   18    -12.71937    2.00000
   19    -12.12971    2.00000
   20    -11.71241    2.00000
   21    -11.48684    2.00000
   22    -11.19856    2.00000
   23    -11.08600    2.00000
   24    -10.36356    2.00000
   25     -9.95548    2.00000
   26     -9.79960    2.00000
   27     -9.70905    2.00000
   28     -9.24075    2.00000
   29     -9.08158    2.00000
   30     -9.01263    2.00000
   31     -8.57379    2.00000
   32     -8.13311    2.00000
   33     -8.11319    2.00000
   34     -7.75142    2.00000
   35     -7.50559    2.00000
   36     -7.18360    2.00000
   37     -7.08659    2.00000
   38     -6.99165    2.00000
   39     -6.54295    2.00000
   40     -6.22873    2.00000
   41     -6.18724    2.00000
   42     -6.00315    1.99999
   43     -5.83372    1.99996
   44     -5.53193    1.99926
   45     -5.25893    1.98873
   46     -5.18020    1.97540
   47     -4.74336    1.00874
   48     -4.68711    0.73402
   49     -4.55677    0.27211
   50     -4.28744    0.02109
   51     -3.92160    0.00055
   52     -3.76603    0.00012
   53     -3.57389    0.00002
   54     -3.23829    0.00000
   55     -2.88150    0.00000
   56     -2.48223    0.00000
   57     -2.36512    0.00000
   58     -2.19122    0.00000
   59     -2.04406    0.00000
   60     -1.57707    0.00000
   61     -1.36458    0.00000
   62     -1.17489    0.00000
   63     -1.10446    0.00000
   64     -1.00466    0.00000
   65     -0.57684    0.00000
   66     -0.51899    0.00000
   67     -0.19712    0.00000
   68      0.22712    0.00000
   69      0.62572    0.00000
   70      1.56866    0.00000
   71      1.67440    0.00000
   72      2.56809    0.00000
   73      2.97417    0.00000
   74      3.51310    0.00000
   75      4.06127    0.00000
   76      4.18763    0.00000
   77      4.82466    0.00000
   78      5.57109    0.00000
   79      5.61145    0.00000
   80      5.88530    0.00000
   81      6.32566    0.00000
   82      6.74082    0.00000
   83      7.34731    0.00000
   84      7.38039    0.00000
   85      7.65156    0.00000
   86      7.77291    0.00000
   87      8.09187    0.00000
   88      8.25022    0.00000
   89      8.39870    0.00000
   90      8.62827    0.00000
   91      8.78555    0.00000
   92      9.00182    0.00000
   93      9.14877    0.00000
   94      9.27515    0.00000
   95      9.31237    0.00000
   96      9.41430    0.00000
   97      9.48395    0.00000


Forces in eV/Ang:
  0 C     0.37656   -5.39536   -0.39028
  1 C     1.20395   -0.54877   -2.30898
  2 C    -2.67765    1.55526    0.06739
  3 C     5.09549    1.47376    1.02340
  4 C    -2.88151   -2.55135    1.58687
  5 C    -0.78701    2.60611   -0.73153
  6 C    -3.59660    1.15484    1.30216
  7 C     1.20344    0.61633   -0.19016
  8 C    -4.55794    6.32852   -1.35237
  9 C     4.12374    0.26853    1.08185
 10 C     2.55269   -0.08105    0.89852
 11 C     2.56257    2.48752    2.30167
 12 C     4.25546   -8.70961    0.60838
 13 C    -0.88971   -5.49152   -0.62179
 14 C     0.82344    1.15428    2.64515
 15 C     4.21873    3.13427   -1.05671
 16 C     4.58172   -9.64356    0.27017
 17 C    -8.78565   -2.99814    0.12733
 18 C    -2.78657    2.95330   -0.05424
 19 C    -1.72382    1.56338   -0.54535
 20 C     4.69225    4.48486   -1.46439
 21 C     1.51727    3.09147   -0.51211
 22 C    -2.54612    5.92690   -3.13345
 23 C    -5.92919   -3.42035    0.40769

System changes: positions 

Initializing position-dependent things.

Density initialized from wave functions
           .--------------------------------------.  
          /|                                      |  
         / |                                      |  
        /  |                                      |  
       /   |                                      |  
      /    |                                      |  
     /     |                                      |  
    /      |                                      |  
   /       |                                      |  
  /        |          C C  CC                     |  
 *         |      C                               |  
 |         |  C C   C      C C  C                 |  
 |         .----C------C-C----CC--C---------------.  
 |        /    C    CC       C                   /   
 |       /       C     C   C                    /    
 |      /                                      /     
 |     /                                      /      
 |    /                                      /       
 |   /                                      /        
 |  /                                      /         
 | /                                      /          
 |/                                      /           
 *--------------------------------------*            

Positions:
   0 C      4.313032   10.395296    4.974125
   1 C      5.745989    7.420033    4.972307
   2 C      4.605413    4.679372    4.737836
   3 C      8.079416    3.407292    5.012236
   4 C      7.070985    6.961926    4.574558
   5 C     11.819999    7.040281    4.863798
   6 C      9.658253    3.732736    5.134320
   7 C      5.720790    4.052717    4.637591
   8 C      6.448209    5.582594    4.931653
   9 C      4.337123    7.833035    4.648795
  10 C     10.661187    8.207790    4.642974
  11 C      3.634953    9.188710    4.672401
  12 C      8.352300   10.896039    5.204160
  13 C     10.599667    4.659322    5.611258
  14 C      8.314440    9.427294    4.400199
  15 C      6.475057   11.596720    4.645680
  16 C      7.108468    4.470183    5.035674
  17 C      5.649778   10.792440    5.131535
  18 C      9.432212    7.864792    5.104744
  19 C      3.250796    7.503637    5.420115
  20 C     10.482242    6.721413    4.540650
  21 C      8.500936    5.970314    5.101595
  22 C      7.823604   11.833161    4.575946
  23 C     10.004657    5.519077    4.625637

Unit cell:
           periodic     x           y           z      points  spacing
  1. axis:    yes   16.000000    0.000000    0.000000    80     0.2000
  2. axis:    yes    0.000000   16.000000    0.000000    80     0.2000
  3. axis:    yes    0.000000    0.000000   10.000000    48     0.2083

Effective grid spacing dv^(1/3) = 0.2027

                     log10-error:    total        iterations:
           time      wfs    density  energy       fermi  poisson
iter:   1  14:14:07          +inf  -151.577832    3      5      
iter:   2  14:14:08         -1.62  -151.359809    3      2      
iter:   3  14:14:08         -1.82  -151.267289    3      2      
iter:   4  14:14:09         -2.03  -151.242562    3      2      
iter:   5  14:14:09         -2.21  -151.236282    3      2      
iter:   6  14:14:10         -2.33  -151.231355    3      2      
iter:   7  14:14:10         -2.51  -151.232713    2      2      
iter:   8  14:14:11         -2.59  -151.230730    3      2      
iter:   9  14:14:11         -2.87  -151.232185    2      2      
iter:  10  14:14:12         -3.00  -151.231970    3      2      
iter:  11  14:14:12         -3.20  -151.231316    1      1      
iter:  12  14:14:13         -3.34  -151.231764    2      1      
iter:  13  14:14:13         -3.48  -151.232162    2      1      
iter:  14  14:14:14         -3.71  -151.231218    1      1      
iter:  15  14:14:14         -3.91  -151.231612    2      1      
iter:  16  14:14:14         -4.07  -151.232613    2      1      

Converged after 16 iterations.

Dipole moment: (0.268792, 0.496773, -0.253491) |e|*Ang

Energy contributions relative to reference atoms: (reference = -24663.074771)

Kinetic:        +92.339549
Potential:      -96.802276
External:        +0.000000
XC:            -149.307818
Entropy (-ST):   -0.365548
Local:           +2.720706
--------------------------
Free energy:   -151.415387
Extrapolated:  -151.232613

Fermi level: -4.70573

 Band  Eigenvalues  Occupancy
    0    -24.58945    2.00000
    1    -23.70024    2.00000
    2    -21.94518    2.00000
    3    -21.91423    2.00000
    4    -21.51980    2.00000
    5    -20.59713    2.00000
    6    -19.51615    2.00000
    7    -18.90498    2.00000
    8    -18.58650    2.00000
    9    -18.05622    2.00000
   10    -17.50391    2.00000
   11    -16.92218    2.00000
   12    -16.06393    2.00000
   13    -15.53751    2.00000
   14    -14.78353    2.00000
   15    -14.13577    2.00000
   16    -13.51835    2.00000
   17    -13.07091    2.00000
   18    -12.72973    2.00000
   19    -12.25480    2.00000
   20    -11.62757    2.00000
   21    -11.57871    2.00000
   22    -11.21726    2.00000
   23    -11.08077    2.00000
   24    -10.34452    2.00000
   25     -9.91663    2.00000
   26     -9.82827    2.00000
   27     -9.68795    2.00000
   28     -9.27800    2.00000
   29     -9.06564    2.00000
   30     -9.02086    2.00000
   31     -8.67290    2.00000
   32     -8.16437    2.00000
   33     -8.12317    2.00000
   34     -7.82891    2.00000
   35     -7.44967    2.00000
   36     -7.23019    2.00000
   37     -7.05054    2.00000
   38     -7.01575    2.00000
   39     -6.56252    2.00000
   40     -6.22286    2.00000
   41     -6.19141    2.00000
   42     -5.97597    1.99999
   43     -5.87595    1.99998
   44     -5.55662    1.99960
   45     -5.30139    1.99484
   46     -5.22120    1.98852
   47     -4.70513    0.99699
   48     -4.65796    0.76558
   49     -4.50560    0.23813
   50     -4.22278    0.01585
   51     -3.86519    0.00045
   52     -3.66244    0.00006
   53     -3.47937    0.00001
   54     -3.13821    0.00000
   55     -2.77298    0.00000
   56     -2.38043    0.00000
   57     -2.27248    0.00000
   58     -2.13971    0.00000
   59     -1.94042    0.00000
   60     -1.45570    0.00000
   61     -1.21146    0.00000
   62     -1.08956    0.00000
   63     -0.97641    0.00000
   64     -0.81508    0.00000
   65     -0.55010    0.00000
   66     -0.40483    0.00000
   67     -0.11248    0.00000
   68      0.25320    0.00000
   69      0.77653    0.00000
   70      1.62386    0.00000
   71      1.84287    0.00000
   72      2.80469    0.00000
   73      3.46261    0.00000
   74      3.87361    0.00000
   75      4.23782    0.00000
   76      4.55580    0.00000
   77      5.06449    0.00000
   78      5.58881    0.00000
   79      5.76812    0.00000
   80      5.97041    0.00000
   81      6.49916    0.00000
   82      6.90088    0.00000
   83      7.40146    0.00000
   84      7.49116    0.00000
   85      7.69754    0.00000
   86      8.02782    0.00000
   87      8.20632    0.00000
   88      8.32054    0.00000
   89      8.44412    0.00000
   90      8.69510    0.00000
   91      8.90301    0.00000
   92      9.03018    0.00000
   93      9.19321    0.00000
   94      9.33332    0.00000
   95      9.36277    0.00000
   96      9.43692    0.00000
   97      9.53354    0.00000


Forces in eV/Ang:
  0 C     0.52246   -4.61520   -0.34123
  1 C     0.97214   -0.24857   -2.18571
  2 C    -2.44333    1.43334    0.02884
  3 C     5.14437    1.81792    1.08884
  4 C    -2.55425   -2.68775    1.43655
  5 C    -0.38231    2.58662   -0.66305
  6 C    -4.14704    0.66362    1.14292
  7 C     1.10254    0.70469   -0.13489
  8 C    -3.51075    4.55784   -1.20284
  9 C     3.54725    0.24036    1.24088
 10 C     2.03511   -0.29837    1.15059
 11 C     2.07527    1.47188    2.13990
 12 C     3.56521   -8.23031   -0.39414
 13 C    -1.03417   -4.71781   -0.97454
 14 C     0.84567    1.25276    2.86855
 15 C     3.25401    2.21257   -0.48090
 16 C     3.64713   -8.37036    0.11751
 17 C    -7.07756   -1.76473   -0.35593
 18 C    -2.41827    3.04908   -0.30387
 19 C    -1.39618    1.63945   -0.81665
 20 C     4.15223    3.15879   -1.55431
 21 C     1.76105    3.24905   -0.42311
 22 C    -2.17039    5.13397   -2.19053
 23 C    -5.48170   -2.27400    0.82318

System changes: positions 

Initializing position-dependent things.

Density initialized from wave functions
           .--------------------------------------.  
          /|                                      |  
         / |                                      |  
        /  |                                      |  
       /   |                                      |  
      /    |                                      |  
     /     |                                      |  
    /      |                                      |  
   /       |                                      |  
  /        |         C  C  CC                     |  
 *         |      C                               |  
 |         |  C C   C      C C  C                 |  
 |         .-----C-----C-C----CC--C---------------.  
 |        /    C    CC     C C                   /   
 |       /       C     C                        /    
 |      /                                      /     
 |     /                                      /      
 |    /                                      /       
 |   /                                      /        
 |  /                                      /         
 | /                                      /          
 |/                                      /           
 *--------------------------------------*            

Positions:
   0 C      4.317005   10.369432    4.972048
   1 C      5.750461    7.420099    4.959596
   2 C      4.595328    4.685602    4.737519
   3 C      8.112157    3.420125    5.019227
   4 C      7.057251    6.944262    4.582465
   5 C     11.819668    7.056275    4.860008
   6 C      9.629603    3.733920    5.140659
   7 C      5.723474    4.060027    4.637403
   8 C      6.444930    5.580058    4.926777
   9 C      4.354285    7.833848    4.658836
  10 C     10.669207    8.204549    4.652384
  11 C      3.645879    9.193511    4.685222
  12 C      8.358930   10.863976    5.181182
  13 C     10.592454    4.634739    5.603047
  14 C      8.319779    9.435681    4.419124
  15 C      6.480819   11.594179    4.654392
  16 C      7.112549    4.446676    5.033611
  17 C      5.622689   10.798980    5.118415
  18 C      9.421013    7.884987    5.100692
  19 C      3.245551    7.514903    5.412147
  20 C     10.503487    6.721056    4.531478
  21 C      8.513515    5.991063    5.099357
  22 C      7.825254   11.844798    4.582115
  23 C      9.974164    5.523178    4.632416

Unit cell:
           periodic     x           y           z      points  spacing
  1. axis:    yes   16.000000    0.000000    0.000000    80     0.2000
  2. axis:    yes    0.000000   16.000000    0.000000    80     0.2000
  3. axis:    yes    0.000000    0.000000   10.000000    48     0.2083

Effective grid spacing dv^(1/3) = 0.2027

                     log10-error:    total        iterations:
           time      wfs    density  energy       fermi  poisson
iter:   1  14:14:16          +inf  -153.669065    3      5      
iter:   2  14:14:17         -1.70  -153.521274    3      2      
iter:   3  14:14:17         -1.88  -153.450619    3      2      
iter:   4  14:14:18         -2.11  -153.431308    3      2      
iter:   5  14:14:18         -2.29  -153.426095    2      2      
iter:   6  14:14:19         -2.43  -153.422719    3      2      
iter:   7  14:14:19         -2.65  -153.423989    3      2      
iter:   8  14:14:20         -2.79  -153.424125    2      2      
iter:   9  14:14:20         -2.92  -153.423889    2      2      
iter:  10  14:14:21         -3.17  -153.422462    2      1      
iter:  11  14:14:21         -3.29  -153.422654    2      1      
iter:  12  14:14:21         -3.44  -153.424694    2      1      
iter:  13  14:14:22         -3.63  -153.425083    2      1      
iter:  14  14:14:22         -3.76  -153.424904    2      1      
iter:  15  14:14:23         -3.80  -153.424423    2      1      
iter:  16  14:14:23         -3.96  -153.424033    2      1      
iter:  17  14:14:24         -4.14  -153.424250    2      1      

Converged after 17 iterations.

Dipole moment: (0.172912, 0.412435, -0.249198) |e|*Ang

Energy contributions relative to reference atoms: (reference = -24663.074771)

Kinetic:        +88.858370
Potential:      -94.569029
External:        +0.000000
XC:            -150.269252
Entropy (-ST):   -0.356529
Local:           +2.733926
--------------------------
Free energy:   -153.602515
Extrapolated:  -153.424250

Fermi level: -4.67763

 Band  Eigenvalues  Occupancy
    0    -24.46398    2.00000
    1    -23.67477    2.00000
    2    -21.86952    2.00000
    3    -21.82492    2.00000
    4    -21.56353    2.00000
    5    -20.69898    2.00000
    6    -19.54417    2.00000
    7    -18.93588    2.00000
    8    -18.59859    2.00000
    9    -18.03996    2.00000
   10    -17.61967    2.00000
   11    -16.95489    2.00000
   12    -16.16192    2.00000
   13    -15.68025    2.00000
   14    -14.86801    2.00000
   15    -14.22740    2.00000
   16    -13.68206    2.00000
   17    -13.05119    2.00000
   18    -12.77051    2.00000
   19    -12.34895    2.00000
   20    -11.63215    2.00000
   21    -11.55771    2.00000
   22    -11.21377    2.00000
   23    -11.07842    2.00000
   24    -10.32934    2.00000
   25     -9.91118    2.00000
   26     -9.84560    2.00000
   27     -9.66288    2.00000
   28     -9.30053    2.00000
   29     -9.08444    2.00000
   30     -8.99266    2.00000
   31     -8.77055    2.00000
   32     -8.21788    2.00000
   33     -8.11818    2.00000
   34     -7.88313    2.00000
   35     -7.43605    2.00000
   36     -7.25400    2.00000
   37     -7.08523    2.00000
   38     -6.98011    2.00000
   39     -6.56370    2.00000
   40     -6.24734    2.00000
   41     -6.18574    2.00000
   42     -5.97060    2.00000
   43     -5.91343    1.99999
   44     -5.57590    1.99975
   45     -5.32910    1.99704
   46     -5.24492    1.99315
   47     -4.67999    1.01179
   48     -4.62882    0.76067
   49     -4.47141    0.22564
   50     -4.16273    0.01154
   51     -3.82626    0.00040
   52     -3.56493    0.00003
   53     -3.38282    0.00000
   54     -3.03875    0.00000
   55     -2.67064    0.00000
   56     -2.36435    0.00000
   57     -2.14153    0.00000
   58     -2.06476    0.00000
   59     -1.84462    0.00000
   60     -1.33546    0.00000
   61     -1.09639    0.00000
   62     -1.01573    0.00000
   63     -0.82756    0.00000
   64     -0.72247    0.00000
   65     -0.45904    0.00000
   66     -0.29088    0.00000
   67     -0.03461    0.00000
   68      0.28301    0.00000
   69      0.91893    0.00000
   70      1.61408    0.00000
   71      2.03962    0.00000
   72      2.95877    0.00000
   73      3.87502    0.00000
   74      4.07423    0.00000
   75      4.46150    0.00000
   76      4.97314    0.00000
   77      5.35191    0.00000
   78      5.62104    0.00000
   79      5.92704    0.00000
   80      6.15099    0.00000
   81      6.64903    0.00000
   82      6.95294    0.00000
   83      7.42357    0.00000
   84      7.62343    0.00000
   85      7.74639    0.00000
   86      8.16341    0.00000
   87      8.28951    0.00000
   88      8.42171    0.00000
   89      8.49503    0.00000
   90      8.75815    0.00000
   91      8.98652    0.00000
   92      9.04075    0.00000
   93      9.23594    0.00000
   94      9.38070    0.00000
   95      9.39905    0.00000
   96      9.46784    0.00000
   97      9.54425    0.00000


Forces in eV/Ang:
  0 C     0.65493   -3.76752   -0.22864
  1 C     0.74540    0.00598   -2.06329
  2 C    -1.85422    1.09741   -0.03411
  3 C     4.95603    2.00796    1.13194
  4 C    -2.24447   -2.78506    1.33015
  5 C    -0.08675    2.52049   -0.59311
  6 C    -4.33644    0.29685    1.02939
  7 C     0.61695    0.92235   -0.08581
  8 C    -2.69193    3.25994   -1.08242
  9 C     3.15658    0.22253    1.31729
 10 C     1.64226   -0.47193    1.30541
 11 C     1.55558    0.48217    1.99670
 12 C     2.85609   -7.61576   -1.36391
 13 C    -1.15764   -4.10029   -1.26568
 14 C     0.93811    1.33160    3.10344
 15 C     2.87800    1.79593   -0.21580
 16 C     3.00348   -7.42885    0.02220
 17 C    -5.99505   -1.09450   -0.58185
 18 C    -2.20588    3.15703   -0.50108
 19 C    -1.17766    1.74002   -0.98402
 20 C     3.65560    2.07453   -1.61251
 21 C     1.82055    3.46323   -0.35074
 22 C    -1.81894    4.18539   -1.35076
 23 C    -4.88757   -1.33066    1.08632

System changes: positions 

Initializing position-dependent things.

Density initialized from wave functions
           .--------------------------------------.  
          /|                                      |  
         / |                                      |  
        /  |                                      |  
       /   |                                      |  
      /    |                                      |  
     /     |                                      |  
    /      |                                      |  
   /       |                                      |  
  /        |         C  C  CC                     |  
 *         |      C                               |  
 |         |  C C   C      C C  C                 |  
 |         .-----C-----C--C---CC--C---------------.  
 |        /    C    CC     C C                   /   
 |       /       C     C                        /    
 |      /                                      /     
 |     /                                      /      
 |    /                                      /       
 |   /                                      /        
 |  /                                      /         
 | /                                      /          
 |/                                      /           
 *--------------------------------------*            

Positions:
   0 C      4.322113   10.351103    4.971294
   1 C      5.753903    7.421339    4.947670
   2 C      4.588274    4.690039    4.736886
   3 C      8.141920    3.433246    5.026383
   4 C      7.045208    6.926542    4.590079
   5 C     11.820442    7.071389    4.856603
   6 C      9.602163    3.733720    5.146512
   7 C      5.723847    4.067678    4.637234
   8 C      6.442892    5.576729    4.922255
   9 C      4.370905    7.834910    4.667770
  10 C     10.676632    8.200947    4.661482
  11 C      3.652502    9.190810    4.696644
  12 C      8.364287   10.832715    5.156808
  13 C     10.585032    4.612446    5.594401
  14 C      8.326027    9.444290    4.439303
  15 C      6.487985   11.593821    4.661239
  16 C      7.116664    4.423078    5.031663
  17 C      5.598358   10.804495    5.107272
  18 C      9.408917    7.905461    5.096502
  19 C      3.240000    7.526294    5.404781
  20 C     10.522392    6.718975    4.521900
  21 C      8.524621    6.013360    5.097563
  22 C      7.826009   11.853698    4.588944
  23 C      9.948447    5.528559    4.639125

Unit cell:
           periodic     x           y           z      points  spacing
  1. axis:    yes   16.000000    0.000000    0.000000    80     0.2000
  2. axis:    yes    0.000000   16.000000    0.000000    80     0.2000
  3. axis:    yes    0.000000    0.000000   10.000000    48     0.2083

Effective grid spacing dv^(1/3) = 0.2027

                     log10-error:    total        iterations:
           time      wfs    density  energy       fermi  poisson
iter:   1  14:14:25          +inf  -155.532341    3      5      
iter:   2  14:14:26         -1.78  -155.415610    2      2      
iter:   3  14:14:26         -1.94  -155.360196    3      2      
iter:   4  14:14:27         -2.17  -155.347216    3      2      
iter:   5  14:14:27         -2.32  -155.341741    3      2      
iter:   6  14:14:28         -2.47  -155.339374    3      2      
iter:   7  14:14:28         -2.70  -155.341067    3      2      
iter:   8  14:14:29         -2.81  -155.340588    2      2      
iter:   9  14:14:29         -2.99  -155.340319    2      2      
iter:  10  14:14:30         -3.23  -155.339317    2      1      
iter:  11  14:14:30         -3.35  -155.339860    2      1      
iter:  12  14:14:31         -3.53  -155.341985    2      1      
iter:  13  14:14:31         -3.68  -155.341742    2      1      
iter:  14  14:14:32         -3.78  -155.341464    2      1      
iter:  15  14:14:32         -3.88  -155.341160    2      1      
iter:  16  14:14:33         -3.94  -155.340433    2      1      
iter:  17  14:14:33         -4.14  -155.340849    2      1      

Converged after 17 iterations.

Dipole moment: (0.093408, 0.325739, -0.251202) |e|*Ang

Energy contributions relative to reference atoms: (reference = -24663.074771)

Kinetic:        +87.029834
Potential:      -93.575902
External:        +0.000000
XC:            -151.367548
Entropy (-ST):   -0.351419
Local:           +2.748477
--------------------------
Free energy:   -155.516559
Extrapolated:  -155.340849

Fermi level: -4.65477

 Band  Eigenvalues  Occupancy
    0    -24.33835    2.00000
    1    -23.66096    2.00000
    2    -21.81728    2.00000
    3    -21.76241    2.00000
    4    -21.58297    2.00000
    5    -20.78910    2.00000
    6    -19.57120    2.00000
    7    -19.01759    2.00000
    8    -18.61280    2.00000
    9    -18.01479    2.00000
   10    -17.66683    2.00000
   11    -16.99713    2.00000
   12    -16.28090    2.00000
   13    -15.81926    2.00000
   14    -14.94001    2.00000
   15    -14.31680    2.00000
   16    -13.85228    2.00000
   17    -13.03156    2.00000
   18    -12.82469    2.00000
   19    -12.41889    2.00000
   20    -11.64638    2.00000
   21    -11.50851    2.00000
   22    -11.19187    2.00000
   23    -11.06983    2.00000
   24    -10.31870    2.00000
   25     -9.97902    2.00000
   26     -9.81105    2.00000
   27     -9.64706    2.00000
   28     -9.31067    2.00000
   29     -9.10115    2.00000
   30     -8.95947    2.00000
   31     -8.86229    2.00000
   32     -8.26884    2.00000
   33     -8.12300    2.00000
   34     -7.92645    2.00000
   35     -7.45262    2.00000
   36     -7.26302    2.00000
   37     -7.14030    2.00000
   38     -6.96214    2.00000
   39     -6.54786    2.00000
   40     -6.28830    2.00000
   41     -6.16783    2.00000
   42     -6.02973    2.00000
   43     -5.89293    1.99999
   44     -5.58274    1.99981
   45     -5.34647    1.99802
   46     -5.24965    1.99480
   47     -4.66211    1.03664
   48     -4.60133    0.73897
   49     -4.44712    0.22280
   50     -4.11020    0.00859
   51     -3.79267    0.00036
   52     -3.47067    0.00001
   53     -3.28718    0.00000
   54     -2.94290    0.00000
   55     -2.57833    0.00000
   56     -2.36191    0.00000
   57     -2.01503    0.00000
   58     -1.95116    0.00000
   59     -1.74080    0.00000
   60     -1.23052    0.00000
   61     -1.02920    0.00000
   62     -0.88626    0.00000
   63     -0.74510    0.00000
   64     -0.64578    0.00000
   65     -0.30360    0.00000
   66     -0.17646    0.00000
   67      0.07292    0.00000
   68      0.36018    0.00000
   69      1.04764    0.00000
   70      1.64661    0.00000
   71      2.19464    0.00000
   72      3.03877    0.00000
   73      4.12946    0.00000
   74      4.20242    0.00000
   75      4.77210    0.00000
   76      5.19248    0.00000
   77      5.62400    0.00000
   78      5.77142    0.00000
   79      6.15004    0.00000
   80      6.40662    0.00000
   81      6.77743    0.00000
   82      7.01753    0.00000
   83      7.46389    0.00000
   84      7.76984    0.00000
   85      7.82209    0.00000
   86      8.27078    0.00000
   87      8.34379    0.00000
   88      8.51355    0.00000
   89      8.53816    0.00000
   90      8.80835    0.00000
   91      9.03492    0.00000
   92      9.04442    0.00000
   93      9.29028    0.00000
   94      9.42434    0.00000
   95      9.45229    0.00000
   96      9.50856    0.00000
   97      9.56114    0.00000


Forces in eV/Ang:
  0 C     0.62253   -3.13589   -0.16597
  1 C     0.55708    0.22283   -1.93612
  2 C    -1.60156    0.96202   -0.06164
  3 C     4.41665    2.02126    1.12015
  4 C    -1.94030   -2.83509    1.27092
  5 C     0.10886    2.50288   -0.51483
  6 C    -4.15032    0.05611    0.92497
  7 C     0.53391    0.92416   -0.04099
  8 C    -1.96255    2.13783   -0.98571
  9 C     2.86460    0.22120    1.35422
 10 C     1.25586   -0.65140    1.37829
 11 C     1.10968   -0.39500    1.89708
 12 C     2.38558   -7.18712   -1.99959
 13 C    -1.25845   -3.55284   -1.49072
[...]
    1    -22.62804    2.00000
    2    -21.68789    2.00000
    3    -20.64390    2.00000
    4    -20.45763    2.00000
    5    -19.86795    2.00000
    6    -19.71170    2.00000
    7    -19.11657    2.00000
    8    -18.85073    2.00000
    9    -18.12457    2.00000
   10    -17.63467    2.00000
   11    -17.57853    2.00000
   12    -16.26992    2.00000
   13    -15.93632    2.00000
   14    -15.62598    2.00000
   15    -15.39116    2.00000
   16    -14.12951    2.00000
   17    -13.99776    2.00000
   18    -13.77799    2.00000
   19    -12.97983    2.00000
   20    -12.70267    2.00000
   21    -11.86590    2.00000
   22    -11.64917    2.00000
   23    -11.22637    2.00000
   24    -10.70075    2.00000
   25    -10.55837    2.00000
   26    -10.18413    2.00000
   27     -9.89532    2.00000
   28     -9.71405    2.00000
   29     -9.30249    2.00000
   30     -9.08929    2.00000
   31     -8.92343    2.00000
   32     -8.81890    2.00000
   33     -8.61228    2.00000
   34     -8.32145    2.00000
   35     -8.21409    2.00000
   36     -8.15485    2.00000
   37     -7.78103    2.00000
   38     -7.64147    2.00000
   39     -6.90046    2.00000
   40     -6.43304    2.00000
   41     -6.14072    2.00000
   42     -5.93999    2.00000
   43     -5.60374    1.99987
   44     -5.16300    1.98948
   45     -4.99090    1.94256
   46     -4.95714    1.92041
   47     -4.79634    1.65709
   48     -4.52642    0.49060
   49     -2.75804    0.00000
   50     -2.67714    0.00000
   51     -2.35350    0.00000
   52     -2.24008    0.00000
   53     -1.96539    0.00000
   54     -1.72206    0.00000
   55     -1.63080    0.00000
   56     -1.16423    0.00000
   57     -0.76642    0.00000
   58     -0.45133    0.00000
   59     -0.38996    0.00000
   60     -0.04353    0.00000
   61      0.67544    0.00000
   62      1.05380    0.00000
   63      2.83035    0.00000
   64      2.90330    0.00000
   65      3.37094    0.00000
   66      3.70593    0.00000
   67      3.88966    0.00000
   68      4.47921    0.00000
   69      4.56073    0.00000
   70      4.89916    0.00000
   71      5.17108    0.00000
   72      5.49604    0.00000
   73      5.68573    0.00000
   74      5.89160    0.00000
   75      7.28394    0.00000
   76      7.64540    0.00000
   77      7.72593    0.00000
   78      8.01712    0.00000
   79      8.40606    0.00000
   80      8.54830    0.00000
   81      8.61416    0.00000
   82      8.93646    0.00000
   83      8.98160    0.00000
   84      9.05488    0.00000
   85      9.23938    0.00000
   86      9.29948    0.00000
   87      9.38341    0.00000
   88      9.55367    0.00000
   89      9.62626    0.00000
   90      9.65299    0.00000
   91      9.70750    0.00000
   92      9.78071    0.00000
   93     10.04810    0.00000
   94     10.17419    0.00000
   95     10.21906    0.00000
   96     10.37103    0.00000
   97     10.56373    0.00000


Forces in eV/Ang:
  0 C    -0.01943   -0.12486    0.03002
  1 C     0.08303   -0.10445   -0.04238
  2 C    -0.00322   -0.15617   -0.01502
  3 C     0.08493    0.10571   -0.03035
  4 C    -0.04252   -0.00484   -0.02570
  5 C    -0.10855    0.14809   -0.00213
  6 C    -0.13909   -0.02782   -0.01011
  7 C    -0.01985    0.02537    0.06649
  8 C     0.01644    0.06196   -0.01215
  9 C    -0.05040    0.02308   -0.03704
 10 C     0.20785   -0.03856   -0.01867
 11 C     0.03950   -0.01992   -0.03318
 12 C     0.10958    0.03541    0.02427
 13 C    -0.06648   -0.10508    0.00346
 14 C    -0.07829   -0.07859    0.06905
 15 C    -0.10085    0.11477   -0.00106
 16 C     0.02094    0.10657   -0.00384
 17 C    -0.00065   -0.03097   -0.01374
 18 C     0.15440   -0.00735    0.04268
 19 C    -0.07105    0.03089    0.03712
 20 C     0.09880    0.03854    0.02264
 21 C     0.00265    0.02022   -0.03178
 22 C     0.00697   -0.00187   -0.02096
 23 C    -0.16789   -0.10961   -0.00694

System changes: positions 

Initializing position-dependent things.

Density initialized from wave functions
           .--------------------------------------.  
          /|                                      |  
         / |                                      |  
        /  |                                      |  
       /   |                                      |  
      /    |                                      |  
     /     |                                      |  
    /      |                                      |  
   /       |                                      |  
  /        |     C  C  C C                        |  
 *         |    C         C                       |  
 |         |     C C  C  C  C  C  C               |  
 |         .-----------C--C-----C-----------------.  
 |        /      C  C        C                   /   
 |       /         CC     C                     /    
 |      /              C                       /     
 |     /                                      /      
 |    /                                      /       
 |   /                                      /        
 |  /                                      /         
 | /                                      /          
 |/                                      /           
 *--------------------------------------*            

Positions:
   0 C      3.764635   11.170729    4.941446
   1 C      6.703729    7.643561    4.846929
   2 C      5.225669    4.567401    4.742369
   3 C      8.505667    2.388344    4.959303
   4 C      7.327618    6.297203    4.857544
   5 C     11.696364    7.850447    4.824214
   6 C      9.565775    3.227883    5.000843
   7 C      6.334226    3.694398    4.804568
   8 C      6.502458    5.167473    4.820757
   9 C      5.355691    7.956831    4.904549
  10 C     10.366263    8.192304    4.803868
  11 C      3.668442    9.891954    4.987113
  12 C      7.590816   10.028642    4.760178
  13 C     10.179534    4.326993    4.981299
  14 C      7.766304    8.662358    4.789492
  15 C      6.031735   12.053752    4.817707
  16 C      7.269972    2.724370    4.868203
  17 C      4.753372   12.073383    4.918768
  18 C      9.018421    7.923867    4.802935
  19 C      4.369983    8.756036    4.939064
  20 C     11.083553    6.646581    4.873997
  21 C      8.771622    6.485784    4.860519
  22 C      7.030349   11.163598    4.790597
  23 C     10.025944    5.725600    4.910469

Unit cell:
           periodic     x           y           z      points  spacing
  1. axis:    yes   16.000000    0.000000    0.000000    80     0.2000
  2. axis:    yes    0.000000   16.000000    0.000000    80     0.2000
  3. axis:    yes    0.000000    0.000000   10.000000    48     0.2083

Effective grid spacing dv^(1/3) = 0.2027

                     log10-error:    total        iterations:
           time      wfs    density  energy       fermi  poisson
iter:   1  14:32:08          +inf  -182.392127    3      5      
iter:   2  14:32:08         -2.76  -182.392396    3      1      
iter:   3  14:32:09         -2.86  -182.391638    2      1      
iter:   4  14:32:09         -2.94  -182.389301    2      1      
iter:   5  14:32:10         -3.18  -182.393213    3      1      
iter:   6  14:32:10         -2.94  -182.388570    3      2      
iter:   7  14:32:10         -2.52  -182.387430    2      1      
iter:   8  14:32:11         -2.56  -182.388359    3      1      
iter:   9  14:32:11         -3.89  -182.390231    2      1      
iter:  10  14:32:12         -3.55  -182.389866    2      1      
iter:  11  14:32:12         -4.21  -182.389861    2      1      

Converged after 11 iterations.

Dipole moment: (0.227989, 0.131402, 0.014945) |e|*Ang

Energy contributions relative to reference atoms: (reference = -24663.074771)

Kinetic:       +105.437695
Potential:     -114.490446
External:        +0.000000
XC:            -176.244010
Entropy (-ST):   -0.270120
Local:           +3.041960
--------------------------
Free energy:   -182.524921
Extrapolated:  -182.389861

Fermi level: -4.64428

 Band  Eigenvalues  Occupancy
    0    -23.37644    2.00000
    1    -22.63922    2.00000
    2    -21.68812    2.00000
    3    -20.64595    2.00000
    4    -20.46815    2.00000
    5    -19.87256    2.00000
    6    -19.71471    2.00000
    7    -19.11089    2.00000
    8    -18.85504    2.00000
    9    -18.12048    2.00000
   10    -17.63496    2.00000
   11    -17.57470    2.00000
   12    -16.28795    2.00000
   13    -15.94297    2.00000
   14    -15.62341    2.00000
   15    -15.39194    2.00000
   16    -14.12548    2.00000
   17    -13.99261    2.00000
   18    -13.77964    2.00000
   19    -12.97664    2.00000
   20    -12.70473    2.00000
   21    -11.86210    2.00000
   22    -11.65499    2.00000
   23    -11.22641    2.00000
   24    -10.69708    2.00000
   25    -10.55755    2.00000
   26    -10.18407    2.00000
   27     -9.90103    2.00000
   28     -9.72257    2.00000
   29     -9.30361    2.00000
   30     -9.09290    2.00000
   31     -8.92645    2.00000
   32     -8.82093    2.00000
   33     -8.61553    2.00000
   34     -8.32701    2.00000
   35     -8.21541    2.00000
   36     -8.16571    2.00000
   37     -7.78526    2.00000
   38     -7.64356    2.00000
   39     -6.89543    2.00000
   40     -6.43381    2.00000
   41     -6.14533    2.00000
   42     -5.93057    1.99999
   43     -5.60042    1.99986
   44     -5.16078    1.98864
   45     -4.99496    1.94176
   46     -4.96092    1.91910
   47     -4.80266    1.65947
   48     -4.53205    0.49117
   49     -2.75848    0.00000
   50     -2.67751    0.00000
   51     -2.33595    0.00000
   52     -2.23018    0.00000
   53     -1.96503    0.00000
   54     -1.72712    0.00000
   55     -1.62845    0.00000
   56     -1.12302    0.00000
   57     -0.77915    0.00000
   58     -0.45474    0.00000
   59     -0.39941    0.00000
   60     -0.05281    0.00000
   61      0.67580    0.00000
   62      1.06028    0.00000
   63      2.83104    0.00000
   64      2.90440    0.00000
   65      3.38391    0.00000
   66      3.70428    0.00000
   67      3.89556    0.00000
   68      4.44616    0.00000
   69      4.56750    0.00000
   70      4.88830    0.00000
   71      5.16141    0.00000
   72      5.50350    0.00000
   73      5.68076    0.00000
   74      5.89597    0.00000
   75      7.28409    0.00000
   76      7.65041    0.00000
   77      7.72032    0.00000
   78      8.03321    0.00000
   79      8.40753    0.00000
   80      8.54492    0.00000
   81      8.60576    0.00000
   82      8.92888    0.00000
   83      8.98110    0.00000
   84      9.04423    0.00000
   85      9.23802    0.00000
   86      9.29929    0.00000
   87      9.38154    0.00000
   88      9.55039    0.00000
   89      9.60882    0.00000
   90      9.64909    0.00000
   91      9.69903    0.00000
   92      9.77543    0.00000
   93     10.05489    0.00000
   94     10.16605    0.00000
   95     10.21981    0.00000
   96     10.36790    0.00000
   97     10.56316    0.00000


Forces in eV/Ang:
  0 C    -0.01437   -0.07986    0.03962
  1 C     0.02322   -0.07109   -0.03437
  2 C     0.00788   -0.00876   -0.00284
  3 C    -0.00016    0.01325   -0.01418
  4 C    -0.02841    0.00197   -0.01730
  5 C    -0.02312    0.04473    0.00364
  6 C    -0.02398    0.00717   -0.01076
  7 C     0.01478    0.00341    0.04105
  8 C    -0.03133    0.06201   -0.01289
  9 C     0.01713    0.00267   -0.03813
 10 C     0.08299   -0.03083   -0.01491
 11 C    -0.00633    0.02330   -0.02422
 12 C     0.09449   -0.03123    0.04858
 13 C    -0.02834   -0.05187   -0.01067
 14 C    -0.02999   -0.00050    0.04708
 15 C    -0.00196    0.04671   -0.00496
 16 C     0.02407    0.01196    0.01329
 17 C    -0.04554   -0.04015   -0.01669
 18 C     0.04409    0.00451    0.02934
 19 C    -0.02745   -0.00896    0.00202
 20 C     0.06452    0.01972    0.01898
 21 C    -0.00610    0.00718   -0.02348
 22 C    -0.04961    0.06899   -0.02804
 23 C    -0.07091   -0.03666   -0.00159

System changes: positions 

Initializing position-dependent things.

Density initialized from wave functions
           .--------------------------------------.  
          /|                                      |  
         / |                                      |  
        /  |                                      |  
       /   |                                      |  
      /    |                                      |  
     /     |                                      |  
    /      |                                      |  
   /       |                                      |  
  /        |     C  C  C C                        |  
 *         |    C         C                       |  
 |         |     C C  C  C  C  C  C               |  
 |         .-----------C--C-----C-----------------.  
 |        /      C  C        C                   /   
 |       /         CC     C                     /    
 |      /              C                       /     
 |     /                                      /      
 |    /                                      /       
 |   /                                      /        
 |  /                                      /         
 | /                                      /          
 |/                                      /           
 *--------------------------------------*            

Positions:
   0 C      3.768232   11.167211    4.941976
   1 C      6.704463    7.641744    4.846146
   2 C      5.224465    4.566235    4.742004
   3 C      8.506659    2.388800    4.957102
   4 C      7.328004    6.296022    4.857131
   5 C     11.696070    7.853692    4.825233
   6 C      9.563954    3.231182    5.000110
   7 C      6.333306    3.694741    4.806192
   8 C      6.500748    5.167736    4.821352
   9 C      5.356259    7.954801    4.904032
  10 C     10.366456    8.193381    4.803702
  11 C      3.669239    9.889271    4.986511
  12 C      7.592231   10.028324    4.760504
  13 C     10.182441    4.327776    4.981103
  14 C      7.766382    8.661297    4.790218
  15 C      6.032913   12.054091    4.818448
  16 C      7.271866    2.728715    4.867123
  17 C      4.754116   12.072949    4.918193
  18 C      9.019146    7.923105    4.803826
  19 C      4.369973    8.753078    4.938765
  20 C     11.085112    6.648478    4.874300
  21 C      8.772627    6.485049    4.860486
  22 C      7.031688   11.163748    4.790239
  23 C     10.027241    5.726528    4.910660

Unit cell:
           periodic     x           y           z      points  spacing
  1. axis:    yes   16.000000    0.000000    0.000000    80     0.2000
  2. axis:    yes    0.000000   16.000000    0.000000    80     0.2000
  3. axis:    yes    0.000000    0.000000   10.000000    48     0.2083

Effective grid spacing dv^(1/3) = 0.2027

                     log10-error:    total        iterations:
           time      wfs    density  energy       fermi  poisson
iter:   1  14:32:14          +inf  -182.390344    3      4      
iter:   2  14:32:14         -3.11  -182.390686    2      1      
iter:   3  14:32:15         -3.26  -182.390492    2      1      
iter:   4  14:32:15         -3.34  -182.389815    2      1      
iter:   5  14:32:16         -3.53  -182.392853    3      1      
iter:   6  14:32:16         -3.10  -182.387786    3      1      
iter:   7  14:32:17         -2.82  -182.387059    2      1      
iter:   8  14:32:17         -2.91  -182.390099    3      1      
iter:   9  14:32:17         -3.60  -182.390220    2      1      
iter:  10  14:32:18         -4.00  -182.389580    2      1      
iter:  11  14:32:18         -3.80  -182.389919    2      1      
iter:  12  14:32:19         -4.72  -182.389952    2      1      

Converged after 12 iterations.

Dipole moment: (0.226358, 0.136715, 0.015004) |e|*Ang

Energy contributions relative to reference atoms: (reference = -24663.074771)

Kinetic:       +105.562093
Potential:     -114.591487
External:        +0.000000
XC:            -176.264369
Entropy (-ST):   -0.270944
Local:           +3.039283
--------------------------
Free energy:   -182.525424
Extrapolated:  -182.389952

Fermi level: -4.64697

 Band  Eigenvalues  Occupancy
    0    -23.37950    2.00000
    1    -22.64734    2.00000
    2    -21.68992    2.00000
    3    -20.64653    2.00000
    4    -20.47039    2.00000
    5    -19.87435    2.00000
    6    -19.71668    2.00000
    7    -19.10895    2.00000
    8    -18.85885    2.00000
    9    -18.11851    2.00000
   10    -17.63518    2.00000
   11    -17.57277    2.00000
   12    -16.29569    2.00000
   13    -15.94580    2.00000
   14    -15.62407    2.00000
   15    -15.39397    2.00000
   16    -14.12241    2.00000
   17    -13.99183    2.00000
   18    -13.78048    2.00000
   19    -12.97196    2.00000
   20    -12.70555    2.00000
   21    -11.86153    2.00000
   22    -11.65748    2.00000
   23    -11.22819    2.00000
   24    -10.69524    2.00000
   25    -10.55861    2.00000
   26    -10.18455    2.00000
   27     -9.90243    2.00000
   28     -9.72798    2.00000
   29     -9.30413    2.00000
   30     -9.09449    2.00000
   31     -8.93047    2.00000
   32     -8.82154    2.00000
   33     -8.61861    2.00000
   34     -8.32784    2.00000
   35     -8.21626    2.00000
   36     -8.16771    2.00000
   37     -7.78749    2.00000
   38     -7.64450    2.00000
   39     -6.89417    2.00000
   40     -6.43274    2.00000
   41     -6.14800    2.00000
   42     -5.92652    1.99999
   43     -5.59978    1.99985
   44     -5.16006    1.98825
   45     -4.99680    1.94128
   46     -4.96179    1.91768
   47     -4.80568    1.66042
   48     -4.53510    0.49252
   49     -2.76095    0.00000
   50     -2.67872    0.00000
   51     -2.32853    0.00000
   52     -2.22298    0.00000
   53     -1.96509    0.00000
   54     -1.72964    0.00000
   55     -1.62847    0.00000
   56     -1.10707    0.00000
   57     -0.78391    0.00000
   58     -0.45846    0.00000
   59     -0.40173    0.00000
   60     -0.05842    0.00000
   61      0.67548    0.00000
   62      1.06311    0.00000
   63      2.83036    0.00000
   64      2.90520    0.00000
   65      3.38716    0.00000
   66      3.70377    0.00000
   67      3.89867    0.00000
   68      4.43286    0.00000
   69      4.56748    0.00000
   70      4.88234    0.00000
   71      5.16096    0.00000
   72      5.50776    0.00000
   73      5.68064    0.00000
   74      5.89454    0.00000
   75      7.28081    0.00000
   76      7.65320    0.00000
   77      7.72016    0.00000
   78      8.03949    0.00000
   79      8.40280    0.00000
   80      8.54465    0.00000
   81      8.59980    0.00000
   82      8.92581    0.00000
   83      8.98036    0.00000
   84      9.04096    0.00000
   85      9.23706    0.00000
   86      9.29893    0.00000
   87      9.37946    0.00000
   88      9.54906    0.00000
   89      9.60124    0.00000
   90      9.64708    0.00000
   91      9.69428    0.00000
   92      9.77493    0.00000
   93     10.05840    0.00000
   94     10.16166    0.00000
   95     10.21961    0.00000
   96     10.36669    0.00000
   97     10.56272    0.00000


Forces in eV/Ang:
  0 C    -0.02059   -0.02249    0.03625
  1 C     0.01345   -0.04119   -0.02723
  2 C    -0.00185    0.02025    0.00752
  3 C     0.00016    0.00349   -0.00621
  4 C    -0.01538    0.00587   -0.01643
  5 C     0.00177    0.02465    0.00008
  6 C     0.00532    0.01084   -0.01501
  7 C     0.02155   -0.00287    0.03062
  8 C    -0.02372    0.05347   -0.01666
  9 C     0.01800    0.00374   -0.03846
 10 C     0.05194   -0.02646   -0.01104
 11 C    -0.01956    0.01028   -0.02306
 12 C     0.07192   -0.02939    0.05072
 13 C    -0.03873   -0.03950   -0.01146
 14 C    -0.01529    0.01668    0.03923
 15 C    -0.00369    0.02823    0.00116
 16 C     0.01367   -0.02101    0.01315
 17 C    -0.03394   -0.04678   -0.01968
 18 C     0.01182    0.01778    0.02510
 19 C    -0.01084   -0.02717   -0.00570
 20 C     0.04087    0.00769    0.02005
 21 C    -0.01775    0.01496   -0.02023
 22 C    -0.04882    0.05151   -0.02833
 23 C    -0.04277   -0.04127   -0.00403

