
  ___ ___ ___ _ _ _  
 |   |   |_  | | | | 
 | | | | | . | | | | 
 |__ |  _|___|_____|  1.3.0b1
 |___|_|             

User:   esb@s65n32.grendel.cscaa.dk
Date:   Wed Nov  8 14:13:00 2017
Arch:   x86_64
Pid:    13339
Python: 2.7.13
gpaw:   /home/esb/DFT/gpaw_git/gpaw
_gpaw:  /home/esb/DFT/gpaw_git/build/bin.linux-x86_64-2.7/gpaw-python
ase:    /home/esb/DFT/ase_git/ase (version 3.15.0b1)
numpy:  /comm/swstack/core/python/2.7.13/lib/python2.7/site-packages/numpy (version 1.13.3)
scipy:  /comm/swstack/core/python/2.7.13/lib/python2.7/site-packages/scipy (version 0.19.1)
units:  Angstrom and eV
cores:  16
Extra parameters: {'blacs': True}

Input parameters:
  basis: dzp
  gpts: [80 80 48]
  kpts: [1 1 1]
  maxiter: 99
  mixer: {backend: pulay,
          beta: 0.05,
          method: separate,
          nmaxold: 5,
          weight: 75}
  mode: lcao
  nbands: -50
  occupations: {name: fermi-dirac,
                width: 0.1}
  poissonsolver: {eps: 1e-07,
                  name: fd,
                  nn: 3,
                  relax: GS}
  xc: PBE

System changes: positions, numbers, cell, pbc, initial_charges, initial_magmoms 

Initialize ...

C-setup:
  name: Carbon
  id: 4aa54d4b901d75f77cc0ea3eec22967b
  Z: 6
  valence: 4
  core: 2
  charge: 0.0
  file: /home/esb/DFT/gpaw-setups-0.8.7929/C.PBE.gz
  cutoffs: 0.64(comp), 1.14(filt), 1.14(core), lmax=2
  valence states:
                energy  radius
    2s(2.00)   -13.751   0.635
    2p(2.00)    -5.284   0.635
    *s          13.461   0.635
    *p          21.927   0.635
    *d           0.000   0.635

  LCAO basis set for C:
    Name: dzp
    File: /home/esb/DFT/gpaw-setups-0.8.7929/C.dzp.basis.gz
    Number of radial functions: 5
    Number of spherical harmonics: 13
      l=0, rc=5.5469 Bohr: 2s-sz confined orbital
      l=1, rc=6.6719 Bohr: 2p-sz confined orbital
      l=0, rc=3.0312 Bohr: 2s-dz split-valence wave
      l=1, rc=3.7500 Bohr: 2p-dz split-valence wave
      l=2, rc=6.6719 Bohr: d-type Gaussian polarization

Reference energy: -24663.074771

Spin-paired calculation

Occupation numbers:
  Fermi-Dirac: width=0.1000 eV

Convergence criteria:
  Maximum total energy change: 0.0005 eV / electron
  Maximum integral of absolute density change: 0.0001 electrons
  Maximum integral of absolute eigenstate change: 4e-08 eV^2
  Maximum number of iterations: 99

Symmetries present (total): 1

  ( 1  0  0)
  ( 0  1  0)
  ( 0  0  1)

1 k-point (Gamma)
1 k-point in the irreducible part of the Brillouin zone
       k-points in crystal coordinates                weights
   0:     0.00000000    0.00000000    0.00000000          1/1

Wave functions: LCAO
  Diagonalizer: Serial LAPACK
  Atomic Correction: dense with blas
  Datatype: float
  Eigensolver: None 

LCAO using direct dense diagonalizer 

Densities:
  Coarse grid: 80*80*48 grid
  Fine grid: 160*160*96 grid
  Total Charge: 0.000000 

Density mixing:
  Method: separate
  Backend: pulay
  Linear mixing parameter: 0.05
  Mixing with 5 old densities
  Damping of long wave oscillations: 75 

Hamiltonian:
  XC and Coulomb potentials evaluated on a 160*160*96 grid
  Using the PBE Exchange-Correlation functional
  Interpolation: tri-quintic (5. degree polynomial)
  Poisson solver: Gauss-Seidel solver with 6 multi-grid levels
    Coarsest grid: 5 x 5 x 3 points
    Stencil: 6*3+1=19 point O(h^6) finite-difference Laplacian
    Max iterations: 1000
    Tolerance: 1.000000e-07 

Memory estimate:
  Process memory now: 79.58 MiB
  Calculator: 15.59 MiB
    Density: 6.13 MiB
      Arrays: 3.81 MiB
      Localized functions: 0.86 MiB
      Mixer: 1.46 MiB
    Hamiltonian: 5.40 MiB
      Arrays: 2.49 MiB
      XC: 0.00 MiB
      Poisson: 2.85 MiB
      vbar: 0.07 MiB
    Wavefunctions: 4.05 MiB
      C [qnM]: 0.23 MiB
      S, T [2 x qmm]: 1.49 MiB
      P [aqMi]: 0.01 MiB
      TCI: 0.00 MiB
      BasisFunctions: 2.33 MiB
      Eigensolver: 0.00 MiB

Total number of cores used: 16
Domain decomposition: 2 x 4 x 2

Number of atoms: 24
Number of atomic orbitals: 312
Number of bands in calculation: 98
Bands to converge: occupied states only
Number of valence electrons: 96

... initialized

Initializing position-dependent things.

Density initialized from atomic densities
           .--------------------------------------.  
          /|                                      |  
         / |                                      |  
        /  |                                      |  
       /   |                                      |  
      /    |                                      |  
     /     |                                      |  
    /      |                                      |  
   /       |                C                     |  
  /        |     C        C  C  C                 |  
 *         |      C   C   C   C                   |  
 |         |       C     C C  C  C                |  
 |         .-----------C-------C-C----------------.  
 |        /   C  C         C                     /   
 |       /              C                       /    
 |      /            C                         /     
 |     /                                      /      
 |    /                                      /       
 |   /                                      /        
 |  /                                      /         
 | /                                      /          
 |/                                      /           
 *--------------------------------------*            

Positions:
   0 C      9.321657    5.762029    4.625143
   1 C      4.929350    8.615176    5.638911
   2 C     10.231660    7.103944    5.402016
   3 C      9.661842   11.378953    5.156534
   4 C     11.275538    6.612452    5.090150
   5 C      8.477210    4.029416    4.965386
   6 C      7.577958   10.328181    4.667004
   7 C      6.375234    8.483983    5.735022
   8 C      8.267506    8.572686    4.760877
   9 C      8.919534   10.084367    5.536431
  10 C      7.866288    7.486434    5.407795
  11 C      5.059533    6.284296    4.263677
  12 C      8.209862   11.883090    5.203237
  13 C     10.105967    9.935143    5.578974
  14 C      9.922434    8.210946    5.426389
  15 C     10.173630    7.835555    4.328754
  16 C     10.615958    9.981048    4.311775
  17 C      7.445523   10.883219    5.573207
  18 C      7.171436   11.898036    4.931502
  19 C      3.658795    5.925207    4.700090
  20 C      4.806238    9.583644    4.437975
  21 C      7.757683    5.012880    5.511026
  22 C      4.095536    9.683305    5.514106
  23 C      7.338737    3.163956    4.454602

Unit cell:
           periodic     x           y           z      points  spacing
  1. axis:    yes   16.000000    0.000000    0.000000    80     0.2000
  2. axis:    yes    0.000000   16.000000    0.000000    80     0.2000
  3. axis:    yes    0.000000    0.000000   10.000000    48     0.2083

Effective grid spacing dv^(1/3) = 0.2027

                     log10-error:    total        iterations:
           time      wfs    density  energy       fermi  poisson
iter:   1  14:13:03          +inf  -122.090584    3      6      
iter:   2  14:13:03         -0.83  -119.162688    4      3      
iter:   3  14:13:04         -0.90  -116.582417    3      3      
iter:   4  14:13:04         -0.96  -115.274730    4      3      
iter:   5  14:13:05         -1.04  -114.854136    3      3      
iter:   6  14:13:05         -1.11  -113.984477    4      3      
iter:   7  14:13:06         -1.31  -113.832256    4      3      
iter:   8  14:13:07         -1.38  -113.708239    4      3      
iter:   9  14:13:07         -1.61  -113.599521    3      2      
iter:  10  14:13:08         -1.76  -113.570160    3      3      
iter:  11  14:13:08         -1.81  -113.572807    3      3      
iter:  12  14:13:09         -2.02  -113.553224    3      2      
iter:  13  14:13:09         -2.13  -113.554220    3      2      
iter:  14  14:13:10         -2.31  -113.555339    3      2      
iter:  15  14:13:10         -2.37  -113.552646    3      2      
iter:  16  14:13:11         -2.52  -113.550509    3      2      
iter:  17  14:13:12         -2.62  -113.550417    3      2      
iter:  18  14:13:12         -2.96  -113.547611    2      2      
iter:  19  14:13:13         -3.20  -113.547838    2      1      
iter:  20  14:13:13         -3.39  -113.546041    2      1      
iter:  21  14:13:14         -3.44  -113.546164    2      1      
iter:  22  14:13:14         -3.48  -113.545195    2      1      
iter:  23  14:13:15         -3.63  -113.545749    2      1      
iter:  24  14:13:15         -3.82  -113.546249    2      1      
iter:  25  14:13:16         -3.94  -113.545800    2      1      
iter:  26  14:13:16         -4.17  -113.545826    2      1      

Converged after 26 iterations.

Dipole moment: (0.689995, 0.362855, 0.764580) |e|*Ang

Energy contributions relative to reference atoms: (reference = -24663.074771)

Kinetic:       +283.570882
Potential:     -224.117961
External:        +0.000000
XC:            -175.555661
Entropy (-ST):   -0.515931
Local:           +2.814880
--------------------------
Free energy:   -113.803792
Extrapolated:  -113.545826

Fermi level: -5.11141

 Band  Eigenvalues  Occupancy
    0    -31.17245    2.00000
    1    -29.12651    2.00000
    2    -26.34108    2.00000
    3    -23.42084    2.00000
    4    -22.29848    2.00000
    5    -21.55871    2.00000
    6    -21.13345    2.00000
    7    -19.95860    2.00000
    8    -19.52074    2.00000
    9    -17.60810    2.00000
   10    -17.17284    2.00000
   11    -17.00508    2.00000
   12    -16.35860    2.00000
   13    -16.17196    2.00000
   14    -15.35429    2.00000
   15    -14.99459    2.00000
   16    -14.80068    2.00000
   17    -14.47569    2.00000
   18    -13.42153    2.00000
   19    -13.00303    2.00000
   20    -12.27194    2.00000
   21    -11.85253    2.00000
   22    -11.28979    2.00000
   23    -10.82909    2.00000
   24    -10.46811    2.00000
   25    -10.28416    2.00000
   26    -10.03922    2.00000
   27     -9.74955    2.00000
   28     -9.16000    2.00000
   29     -8.84986    2.00000
   30     -8.74690    2.00000
   31     -8.63390    2.00000
   32     -8.35565    2.00000
   33     -8.23763    2.00000
   34     -7.95384    2.00000
   35     -7.69535    2.00000
   36     -7.23240    2.00000
   37     -7.07711    2.00000
   38     -6.75365    2.00000
   39     -6.50635    2.00000
   40     -6.16546    1.99995
   41     -6.06197    1.99985
   42     -5.98079    1.99966
   43     -5.67004    1.99253
   44     -5.52810    1.96947
   45     -5.37064    1.86073
   46     -5.24138    1.57158
   47     -5.22979    1.53125
   48     -5.05431    0.72202
   49     -4.95147    0.33613
   50     -4.63152    0.01634
   51     -4.25044    0.00036
   52     -4.14401    0.00013
   53     -3.59921    0.00000
   54     -3.53178    0.00000
   55     -3.50794    0.00000
   56     -2.75498    0.00000
   57     -2.52558    0.00000
   58     -2.39332    0.00000
   59     -2.33096    0.00000
   60     -2.13879    0.00000
   61     -1.95949    0.00000
   62     -1.16668    0.00000
   63     -0.86739    0.00000
   64     -0.59598    0.00000
   65     -0.45367    0.00000
   66     -0.30814    0.00000
   67     -0.02715    0.00000
   68      0.18968    0.00000
   69      0.47931    0.00000
   70      0.58427    0.00000
   71      1.01729    0.00000
   72      1.26531    0.00000
   73      2.52376    0.00000
   74      2.93492    0.00000
   75      3.27855    0.00000
   76      3.34602    0.00000
   77      4.37881    0.00000
   78      5.14486    0.00000
   79      5.44836    0.00000
   80      6.04398    0.00000
   81      6.12803    0.00000
   82      6.41397    0.00000
   83      6.71269    0.00000
   84      7.05490    0.00000
   85      7.24267    0.00000
   86      7.52622    0.00000
   87      7.65286    0.00000
   88      7.82017    0.00000
   89      7.87146    0.00000
   90      7.90633    0.00000
   91      8.11323    0.00000
   92      8.57621    0.00000
   93      8.85187    0.00000
   94      8.93850    0.00000
   95      9.03120    0.00000
   96      9.22546    0.00000
   97      9.40551    0.00000


Forces in eV/Ang:
  0 C    -0.92730   -0.84040   -0.07371
  1 C     5.21041   -1.97155    1.12400
  2 C    -4.50557  -20.59003   12.12372
  3 C    -2.77442    4.08775   -2.57688
  4 C    12.13146   -7.85921   -4.39701
  5 C    -2.07578   -3.30254   -2.66200
  6 C     1.29213  -24.54056  -33.97271
  7 C    -0.40221   -3.33940   -0.52760
  8 C     2.28848    1.84151   -0.47205
  9 C   -18.71222    2.47434   -0.15080
 10 C    -6.23389    0.46997    1.95086
 11 C    -5.21707   -0.98726    2.24942
 12 C    42.21539   11.77233    6.96336
 13 C    15.53015   -4.90108    3.41643
 14 C    -9.08485   23.49329   15.36606
 15 C     3.22705    2.70578  -21.97475
 16 C     2.74175    2.15560   -2.70018
 17 C    -7.90634   -2.86469   42.29650
 18 C   -33.11218   14.04315  -15.20416
 19 C     5.66920    1.54952   -1.59579
 20 C     1.66597    1.15221   -4.80586
 21 C    -0.92493    1.73716    1.06430
 22 C    -3.98860    0.99507    3.14089
 23 C     3.89242    2.72101    1.61236

System changes: positions 

Initializing position-dependent things.

Density initialized from wave functions
           .--------------------------------------.  
          /|                                      |  
         / |                                      |  
        /  |                                      |  
       /   |                                      |  
      /    |                                      |  
     /     |                                      |  
    /      |                                      |  
   /       |              C  C                    |  
  /        |     C        C  C  C                 |  
 *         |      C   C   C   C                   |  
 |         |       C     C C  C  C                |  
 |         .-----------C-------C-C----------------.  
 |        /   C  C         C                     /   
 |       /              C                       /    
 |      /            C                         /     
 |     /                                      /      
 |    /                                      /       
 |   /                                      /        
 |  /                                      /         
 | /                                      /          
 |/                                      /           
 *--------------------------------------*            

Positions:
   0 C      9.320821    5.761271    4.625077
   1 C      4.934047    8.613399    5.639924
   2 C     10.227599    7.085384    5.412945
   3 C      9.659341   11.382638    5.154211
   4 C     11.286474    6.605368    5.086187
   5 C      8.475339    4.026439    4.962986
   6 C      7.579123   10.306061    4.636381
   7 C      6.374872    8.480972    5.734547
   8 C      8.269569    8.574346    4.760451
   9 C      8.902667   10.086597    5.536295
  10 C      7.860669    7.486858    5.409553
  11 C      5.054830    6.283406    4.265705
  12 C      8.247915   11.893701    5.209513
  13 C     10.119966    9.930725    5.582053
  14 C      9.914245    8.232123    5.440240
  15 C     10.176538    7.837994    4.308946
  16 C     10.618430    9.982991    4.309341
  17 C      7.438396   10.880637    5.611332
  18 C      7.141589   11.910695    4.917798
  19 C      3.663905    5.926604    4.698651
  20 C      4.807740    9.584682    4.433643
  21 C      7.756849    5.014446    5.511985
  22 C      4.091941    9.684202    5.516937
  23 C      7.342246    3.166409    4.456056

Unit cell:
           periodic     x           y           z      points  spacing
  1. axis:    yes   16.000000    0.000000    0.000000    80     0.2000
  2. axis:    yes    0.000000   16.000000    0.000000    80     0.2000
  3. axis:    yes    0.000000    0.000000   10.000000    48     0.2083

Effective grid spacing dv^(1/3) = 0.2027

                     log10-error:    total        iterations:
           time      wfs    density  energy       fermi  poisson
iter:   1  14:13:18          +inf  -121.615413    3      5      
iter:   2  14:13:18         -1.73  -121.600565    4      2      
iter:   3  14:13:19         -1.84  -121.536899    3      2      
iter:   4  14:13:20         -1.99  -121.490921    3      2      
iter:   5  14:13:20         -2.16  -121.472660    3      2      
iter:   6  14:13:21         -2.27  -121.456534    3      2      
iter:   7  14:13:21         -2.45  -121.454113    3      2      
iter:   8  14:13:22         -2.59  -121.449679    2      2      
iter:   9  14:13:22         -2.77  -121.448113    2      2      
iter:  10  14:13:23         -2.97  -121.447723    2      1      
iter:  11  14:13:23         -3.04  -121.446732    3      2      
iter:  12  14:13:24         -3.29  -121.447280    2      1      
iter:  13  14:13:24         -3.46  -121.447305    2      1      
iter:  14  14:13:25         -3.61  -121.446534    2      1      
iter:  15  14:13:25         -3.81  -121.446731    2      1      
iter:  16  14:13:26         -3.92  -121.446641    2      1      
iter:  17  14:13:26         -4.00  -121.446730    2      1      

Converged after 17 iterations.

Dipole moment: (0.668406, 0.296187, 0.778677) |e|*Ang

Energy contributions relative to reference atoms: (reference = -24663.074771)

Kinetic:       +238.148270
Potential:     -193.247458
External:        +0.000000
XC:            -168.754707
Entropy (-ST):   -0.496602
Local:           +2.655466
--------------------------
Free energy:   -121.695030
Extrapolated:  -121.446730

Fermi level: -5.17271

 Band  Eigenvalues  Occupancy
    0    -30.18904    2.00000
    1    -28.51203    2.00000
    2    -26.00540    2.00000
    3    -23.35630    2.00000
    4    -22.11187    2.00000
    5    -21.31440    2.00000
    6    -21.14817    2.00000
    7    -19.79690    2.00000
    8    -19.39390    2.00000
    9    -17.56457    2.00000
   10    -17.07928    2.00000
   11    -16.73177    2.00000
   12    -16.33766    2.00000
   13    -16.23709    2.00000
   14    -15.23350    2.00000
   15    -14.66471    2.00000
   16    -14.58969    2.00000
   17    -14.33264    2.00000
   18    -13.18172    2.00000
   19    -12.89532    2.00000
   20    -12.13784    2.00000
   21    -11.74772    2.00000
   22    -11.22590    2.00000
   23    -10.65603    2.00000
   24    -10.46839    2.00000
   25    -10.25063    2.00000
   26    -10.03392    2.00000
   27     -9.75131    2.00000
   28     -9.14025    2.00000
   29     -8.81559    2.00000
   30     -8.71271    2.00000
   31     -8.63999    2.00000
   32     -8.27454    2.00000
   33     -8.23886    2.00000
   34     -7.85589    2.00000
   35     -7.68057    2.00000
   36     -7.26402    2.00000
   37     -7.07138    2.00000
   38     -6.76639    2.00000
   39     -6.52566    2.00000
   40     -6.23152    1.99995
   41     -6.13512    1.99987
   42     -6.02163    1.99959
   43     -5.71318    1.99105
   44     -5.55623    1.95772
   45     -5.46999    1.90266
   46     -5.31070    1.59795
   47     -5.29357    1.54009
   48     -5.10875    0.69067
   49     -5.00218    0.30755
   50     -4.66746    0.01271
   51     -4.22096    0.00015
   52     -4.13164    0.00006
   53     -3.71636    0.00000
   54     -3.54713    0.00000
   55     -3.49675    0.00000
   56     -2.61741    0.00000
   57     -2.58408    0.00000
   58     -2.45967    0.00000
   59     -2.33897    0.00000
   60     -2.17051    0.00000
   61     -1.95319    0.00000
   62     -1.28563    0.00000
   63     -0.87616    0.00000
   64     -0.58472    0.00000
   65     -0.46525    0.00000
   66     -0.33391    0.00000
   67     -0.06757    0.00000
   68      0.15545    0.00000
   69      0.42836    0.00000
   70      0.49774    0.00000
   71      0.90388    0.00000
   72      1.15016    0.00000
   73      2.39946    0.00000
   74      2.78951    0.00000
   75      3.20690    0.00000
   76      3.30319    0.00000
   77      4.06619    0.00000
   78      4.88645    0.00000
   79      5.37793    0.00000
   80      6.05998    0.00000
   81      6.20763    0.00000
   82      6.44290    0.00000
   83      6.66358    0.00000
   84      6.95032    0.00000
   85      7.07833    0.00000
   86      7.42076    0.00000
   87      7.63212    0.00000
   88      7.73527    0.00000
   89      7.87804    0.00000
   90      7.90008    0.00000
   91      8.04189    0.00000
   92      8.51390    0.00000
   93      8.80995    0.00000
   94      8.91483    0.00000
   95      8.99407    0.00000
   96      9.17714    0.00000
   97      9.36231    0.00000


Forces in eV/Ang:
  0 C    -0.90172   -0.70670    0.01357
  1 C     4.81121   -1.60291    1.03253
  2 C    -5.26883  -15.59089   10.23525
  3 C    -2.59907    3.84619   -2.63097
  4 C    10.99810   -6.85917   -4.18430
  5 C    -2.16586   -3.07902   -2.49349
  6 C     0.05293  -16.22516  -23.20199
  7 C    -0.32039   -3.25738   -0.55270
  8 C     2.44492    1.55666   -0.46174
  9 C   -15.87592    2.59403    0.23819
 10 C    -6.15305    0.66107    1.81714
 11 C    -5.12441   -0.97328    2.20693
 12 C    28.94975    9.02724    4.23275
 13 C    12.45914   -4.55478    3.06525
 14 C    -6.55807   17.59255   11.64500
 15 C     2.49223    2.60261  -16.77881
 16 C     2.66994    2.19401   -2.44270
 17 C    -5.60383   -4.40505   29.58627
 18 C   -20.75457    9.68876  -10.60129
 19 C     5.57112    1.51815   -1.57110
 20 C     1.37770    1.11225   -4.31903
 21 C    -0.78458    1.61562    0.95486
 22 C    -3.46318    0.65447    2.74197
 23 C     3.80197    2.65211    1.56677

System changes: positions 

Initializing position-dependent things.

Density initialized from wave functions
           .--------------------------------------.  
          /|                                      |  
         / |                                      |  
        /  |                                      |  
       /   |                                      |  
      /    |                                      |  
     /     |                                      |  
    /      |                                      |  
   /       |              C  C                    |  
  /        |     C        C  C  C                 |  
 *         |      C   C   C   C                   |  
 |         |       C     C C  C  C                |  
 |         .-----------C-------C-C----------------.  
 |        /   C  C         C                     /   
 |       /              C                       /    
 |      /            C                         /     
 |     /                                      /      
 |    /                                      /       
 |   /                                      /        
 |  /                                      /         
 | /                                      /          
 |/                                      /           
 *--------------------------------------*            

Positions:
   0 C      9.317816    5.759662    4.625697
   1 C      4.948356    8.610177    5.642957
   2 C     10.204058    7.063305    5.436574
   3 C      9.651346   11.394586    5.144600
   4 C     11.317737    6.587792    5.072860
   5 C      8.467128    4.017072    4.955318
   6 C      7.571185   10.303491    4.625362
   7 C      6.374281    8.470050    5.732438
   8 C      8.279196    8.577956    4.758894
   9 C      8.865407   10.096508    5.539683
  10 C      7.839551    7.490436    5.415070
  11 C      5.037409    6.280074    4.273191
  12 C      8.262800   11.907465    5.206504
  13 C     10.143667    9.916971    5.590535
  14 C      9.907738    8.255333    5.456815
  15 C     10.180489    7.846474    4.283978
  16 C     10.627352    9.990962    4.302435
  17 C      7.433776   10.855041    5.632098
  18 C      7.149583   11.916235    4.910675
  19 C      3.682863    5.931740    4.693286
  20 C      4.810697    9.588333    4.421639
  21 C      7.755009    5.019333    5.514627
  22 C      4.083201    9.684271    5.523969
  23 C      7.355029    3.175288    4.461269

Unit cell:
           periodic     x           y           z      points  spacing
  1. axis:    yes   16.000000    0.000000    0.000000    80     0.2000
  2. axis:    yes    0.000000   16.000000    0.000000    80     0.2000
  3. axis:    yes    0.000000    0.000000   10.000000    48     0.2083

Effective grid spacing dv^(1/3) = 0.2027

                     log10-error:    total        iterations:
           time      wfs    density  energy       fermi  poisson
iter:   1  14:13:28          +inf  -127.520239    4      5      
iter:   2  14:13:29         -1.28  -127.416873    3      2      
iter:   3  14:13:29         -1.46  -126.767670    3      2      
iter:   4  14:13:30         -1.73  -126.649773    3      2      
iter:   5  14:13:30         -1.97  -126.644243    3      2      
iter:   6  14:13:31         -1.99  -126.608327    3      2      
iter:   7  14:13:31         -2.22  -126.599091    3      2      
iter:   8  14:13:32         -2.44  -126.594392    3      2      
iter:   9  14:13:33         -2.57  -126.595443    3      2      
iter:  10  14:13:33         -2.90  -126.593262    2      2      
iter:  11  14:13:34         -2.99  -126.594558    2      1      
iter:  12  14:13:34         -3.17  -126.595350    2      1      
iter:  13  14:13:35         -3.26  -126.593426    2      1      
iter:  14  14:13:35         -3.41  -126.593979    2      1      
iter:  15  14:13:36         -3.54  -126.595371    2      1      
iter:  16  14:13:36         -3.75  -126.593989    2      1      
iter:  17  14:13:37         -3.86  -126.593009    2      1      
iter:  18  14:13:37         -3.99  -126.593178    2      1      
iter:  19  14:13:38         -4.05  -126.592640    2      1      

Converged after 19 iterations.

Dipole moment: (0.717471, 0.299591, 0.796542) |e|*Ang

Energy contributions relative to reference atoms: (reference = -24663.074771)

Kinetic:       +205.211291
Potential:     -170.680949
External:        +0.000000
XC:            -163.599584
Entropy (-ST):   -0.462479
Local:           +2.707842
--------------------------
Free energy:   -126.823880
Extrapolated:  -126.592640

Fermi level: -5.23694

 Band  Eigenvalues  Occupancy
    0    -29.86688    2.00000
    1    -27.74932    2.00000
    2    -25.45238    2.00000
    3    -23.12386    2.00000
    4    -22.06303    2.00000
    5    -21.20359    2.00000
    6    -21.10459    2.00000
    7    -19.66781    2.00000
    8    -19.17959    2.00000
    9    -17.55895    2.00000
   10    -16.94558    2.00000
   11    -16.55168    2.00000
   12    -16.48458    2.00000
   13    -16.19422    2.00000
   14    -15.11162    2.00000
   15    -14.64136    2.00000
   16    -14.43747    2.00000
   17    -14.27437    2.00000
   18    -13.14717    2.00000
   19    -12.86966    2.00000
   20    -12.05978    2.00000
   21    -11.65522    2.00000
   22    -11.14992    2.00000
   23    -10.59094    2.00000
   24    -10.42049    2.00000
   25    -10.10266    2.00000
   26     -9.94348    2.00000
   27     -9.68790    2.00000
   28     -9.07785    2.00000
   29     -8.76346    2.00000
   30     -8.67715    2.00000
   31     -8.59966    2.00000
   32     -8.19709    2.00000
   33     -8.17746    2.00000
   34     -7.85167    2.00000
   35     -7.67623    2.00000
   36     -7.35240    2.00000
   37     -7.10731    2.00000
   38     -6.84885    2.00000
   39     -6.55208    2.00000
   40     -6.27318    1.99994
   41     -6.18694    1.99985
   42     -6.06953    1.99952
   43     -5.81934    1.99411
   44     -5.60969    1.95303
   45     -5.57870    1.93650
   46     -5.38187    1.61978
   47     -5.36623    1.56928
   48     -5.17319    0.69161
   49     -5.03118    0.22657
   50     -4.70509    0.00975
   51     -4.17104    0.00005
   52     -4.11130    0.00003
   53     -3.75860    0.00000
   54     -3.57194    0.00000
   55     -3.46560    0.00000
   56     -2.70578    0.00000
   57     -2.57335    0.00000
   58     -2.48521    0.00000
   59     -2.27274    0.00000
   60     -2.18976    0.00000
   61     -1.82088    0.00000
   62     -1.34799    0.00000
   63     -0.84433    0.00000
   64     -0.46486    0.00000
   65     -0.37060    0.00000
   66     -0.17234    0.00000
   67     -0.05842    0.00000
   68     -0.00017    0.00000
   69      0.38013    0.00000
   70      0.48027    0.00000
   71      0.94048    0.00000
   72      1.04910    0.00000
   73      2.28087    0.00000
   74      2.56297    0.00000
   75      3.10387    0.00000
   76      3.20402    0.00000
   77      3.88843    0.00000
   78      4.56145    0.00000
   79      5.17060    0.00000
   80      6.04442    0.00000
   81      6.45237    0.00000
   82      6.58264    0.00000
   83      6.70008    0.00000
   84      6.75646    0.00000
   85      6.93585    0.00000
   86      7.28562    0.00000
   87      7.50762    0.00000
   88      7.60543    0.00000
   89      7.86364    0.00000
   90      7.95879    0.00000
   91      8.03549    0.00000
   92      8.45397    0.00000
   93      8.74973    0.00000
   94      8.84106    0.00000
   95      8.93972    0.00000
   96      9.11678    0.00000
   97      9.31645    0.00000


Forces in eV/Ang:
  0 C    -0.67454   -0.39833    0.15735
  1 C     4.08996   -0.85035    0.81244
  2 C    -2.75465  -12.89959    6.96390
  3 C    -2.33619    3.11448   -2.41044
  4 C     6.43039   -4.29408   -3.02436
  5 C    -2.22524   -2.48250   -2.01352
  6 C    -0.57435  -13.90308  -21.56360
  7 C    -0.08432   -3.36564   -0.60833
  8 C     2.57223    0.85224   -0.19391
  9 C   -10.66854    2.33400    0.71096
 10 C    -6.16211    1.45496    1.51323
 11 C    -4.63441   -0.85629    2.04391
 12 C    26.42629    7.78123    3.96668
 13 C     7.65164   -4.00972    2.32132
 14 C    -4.17979   12.95051    8.33201
 15 C     1.81460    2.09763  -11.54886
 16 C     2.23196    2.25093   -1.78173
 17 C    -4.53276   -3.12929   25.98700
 18 C   -18.98524    7.40851   -8.84493
 19 C     5.05659    1.37854   -1.41312
 20 C     0.78653    1.03524   -3.18927
 21 C    -0.36170    1.28117    0.66312
 22 C    -2.34821    0.01880    1.85562
 23 C     3.42080    2.30877    1.35800

System changes: positions 

Initializing position-dependent things.

Density initialized from wave functions
           .--------------------------------------.  
          /|                                      |  
         / |                                      |  
        /  |                                      |  
       /   |                                      |  
      /    |                                      |  
     /     |                                      |  
    /      |                                      |  
   /       |              C  C                    |  
  /        |     C        C  C  C                 |  
 *         |      C   C   C   C                   |  
 |         |       C     C C  C  C                |  
 |         .-----------C-------C-C----------------.  
 |        /   C  C         C                     /   
 |       /              C                       /    
 |      /            C                         /     
 |     /                                      /      
 |    /                                      /       
 |   /                                      /        
 |  /                                      /         
 | /                                      /          
 |/                                      /           
 *--------------------------------------*            

Positions:
   0 C      9.315197    5.759787    4.627879
   1 C      4.965155    8.611497    5.645869
   2 C     10.193427    7.041222    5.446988
   3 C      9.640700   11.407080    5.131569
   4 C     11.325457    6.582445    5.062489
   5 C      8.453655    4.007411    4.947367
   6 C      7.555614   10.299987    4.594941
   7 C      6.375458    8.451292    5.728581
   8 C      8.295429    8.577505    4.759035
   9 C      8.849851   10.109451    5.548742
  10 C      7.805480    7.503519    5.421235
  11 C      5.014168    6.275869    4.283657
  12 C      8.297351   11.924513    5.206419
  13 C     10.142144    9.899454    5.597662
  14 C      9.914114    8.262303    5.460483
  15 C     10.182065    7.855300    4.281933
  16 C     10.637466   10.004167    4.297258
  17 C      7.430803   10.830933    5.663878
  18 C      7.146579   11.914217    4.904296
  19 C      3.708331    5.938650    4.686208
  20 C      4.810337    9.593514    4.412344
  21 C      7.755884    5.024156    5.516251
  22 C      4.078874    9.678994    5.527493
  23 C      7.371928    3.186263    4.467656

Unit cell:
           periodic     x           y           z      points  spacing
  1. axis:    yes   16.000000    0.000000    0.000000    80     0.2000
  2. axis:    yes    0.000000   16.000000    0.000000    80     0.2000
  3. axis:    yes    0.000000    0.000000   10.000000    48     0.2083

Effective grid spacing dv^(1/3) = 0.2027

                     log10-error:    total        iterations:
           time      wfs    density  energy       fermi  poisson
iter:   1  14:13:39          +inf  -131.995735    4      5      
iter:   2  14:13:40         -1.26  -131.637365    33     2      
iter:   3  14:13:41         -1.51  -131.101084    4      2      
iter:   4  14:13:41         -1.79  -131.016718    3      2      
iter:   5  14:13:42         -1.97  -131.014303    3      2      
iter:   6  14:13:42         -1.95  -130.958189    3      2      
iter:   7  14:13:43         -2.26  -130.952843    3      2      
iter:   8  14:13:43         -2.40  -130.945574    3      2      
iter:   9  14:13:44         -2.54  -130.947477    3      2      
iter:  10  14:13:44         -2.69  -130.945639    3      2      
iter:  11  14:13:45         -2.88  -130.946166    2      2      
iter:  12  14:13:45         -3.06  -130.948176    2      1      
iter:  13  14:13:46         -3.18  -130.948185    2      1      
iter:  14  14:13:46         -3.34  -130.947012    2      1      
iter:  15  14:13:47         -3.43  -130.947472    2      1      
iter:  16  14:13:48         -3.57  -130.947191    2      1      
iter:  17  14:13:48         -3.72  -130.947057    2      1      
iter:  18  14:13:49         -3.83  -130.946793    2      1      
iter:  19  14:13:49         -4.00  -130.946511    2      1      
iter:  20  14:13:50         -4.18  -130.946329    2      1      

Converged after 20 iterations.

Dipole moment: (0.751185, 0.315649, 0.823174) |e|*Ang

Energy contributions relative to reference atoms: (reference = -24663.074771)

Kinetic:       +184.594623
Potential:     -157.180277
External:        +0.000000
XC:            -160.836346
Entropy (-ST):   -0.420217
Local:           +2.685780
--------------------------
Free energy:   -131.156437
Extrapolated:  -130.946329

Fermi level: -5.30421

 Band  Eigenvalues  Occupancy
    0    -29.25761    2.00000
    1    -27.48652    2.00000
    2    -25.06200    2.00000
    3    -23.02237    2.00000
    4    -21.90740    2.00000
    5    -21.27267    2.00000
    6    -20.83873    2.00000
    7    -19.68339    2.00000
    8    -19.09852    2.00000
    9    -17.65114    2.00000
   10    -16.85133    2.00000
   11    -16.76882    2.00000
   12    -16.53615    2.00000
   13    -16.08711    2.00000
   14    -15.11847    2.00000
   15    -14.56816    2.00000
   16    -14.32793    2.00000
   17    -14.19449    2.00000
   18    -13.01921    2.00000
   19    -12.86714    2.00000
   20    -12.01295    2.00000
   21    -11.54075    2.00000
   22    -11.17867    2.00000
   23    -10.57732    2.00000
   24    -10.31178    2.00000
   25    -10.08210    2.00000
   26     -9.95067    2.00000
   27     -9.61721    2.00000
   28     -9.03998    2.00000
   29     -8.74189    2.00000
   30     -8.69020    2.00000
   31     -8.46389    2.00000
   32     -8.19452    2.00000
   33     -8.11553    2.00000
   34     -7.87355    2.00000
   35     -7.70117    2.00000
   36     -7.43603    2.00000
   37     -7.13980    2.00000
   38     -6.92316    2.00000
   39     -6.58066    1.99999
   40     -6.36127    1.99995
   41     -6.24211    1.99983
   42     -6.11330    1.99939
   43     -5.89089    1.99435
   44     -5.71711    1.96831
   45     -5.67250    1.95093
   46     -5.46830    1.67531
   47     -5.44316    1.60103
   48     -5.22798    0.63630
   49     -5.06461    0.16695
   50     -4.74770    0.00763
   51     -4.12742    0.00002
   52     -4.10418    0.00001
   53     -3.79492    0.00000
   54     -3.61134    0.00000
   55     -3.38235    0.00000
   56     -2.79268    0.00000
   57     -2.63790    0.00000
   58     -2.46960    0.00000
   59     -2.23476    0.00000
   60     -2.13382    0.00000
   61     -1.64710    0.00000
   62     -1.35542    0.00000
   63     -0.78929    0.00000
   64     -0.40859    0.00000
   65     -0.19293    0.00000
   66     -0.03578    0.00000
   67     -0.00147    0.00000
   68      0.18953    0.00000
   69      0.42555    0.00000
   70      0.52325    0.00000
   71      1.01012    0.00000
   72      1.06825    0.00000
   73      2.20093    0.00000
   74      2.32023    0.00000
   75      3.05032    0.00000
   76      3.24670    0.00000
   77      3.62341    0.00000
   78      4.47506    0.00000
   79      5.06683    0.00000
   80      6.07813    0.00000
   81      6.19888    0.00000
   82      6.53687    0.00000
   83      6.57578    0.00000
   84      6.85439    0.00000
   85      7.10674    0.00000
   86      7.28158    0.00000
   87      7.38377    0.00000
   88      7.60319    0.00000
   89      7.87398    0.00000
   90      7.93125    0.00000
   91      8.19321    0.00000
   92      8.44929    0.00000
   93      8.68119    0.00000
   94      8.75570    0.00000
   95      8.97504    0.00000
   96      9.09536    0.00000
   97      9.31913    0.00000


Forces in eV/Ang:
  0 C    -0.57033   -0.31156    0.25289
  1 C     3.51133   -0.43624    0.65969
  2 C    -2.76225  -11.21693    5.92804
  3 C    -1.76687    2.55179   -2.31625
  4 C     5.38666   -3.65411   -2.87444
  5 C    -1.82005   -1.85864   -1.49931
  6 C    -1.54723   -9.80620  -16.75338
  7 C     0.33947   -3.43161   -0.71309
  8 C     2.55221    0.24740   -0.07322
  9 C    -9.09704    2.45521    0.92342
 10 C    -6.17009    2.20496    1.30153
 11 C    -3.57399   -0.60225    1.69628
 12 C    20.11935    6.31907    2.84456
 13 C     6.69050   -4.10810    1.58478
 14 C    -3.27044   11.21830    8.07473
 15 C     1.66350    1.55982  -10.58803
 16 C     1.73336    2.41302   -0.81788
 17 C    -2.84233   -3.21621   19.73618
 18 C   -14.13755    5.05931   -6.55803
 19 C     3.96580    1.09286   -1.08940
 20 C     0.48261    0.99684   -2.57858
 21 C    -0.06309    1.17689    0.47954
 22 C    -1.71890   -0.38349    1.43465
 23 C     2.78832    1.76734    1.03470

System changes: positions 

Initializing position-dependent things.

Density initialized from wave functions
           .--------------------------------------.  
          /|                                      |  
         / |                                      |  
        /  |                                      |  
       /   |                                      |  
      /    |                                      |  
     /     |                                      |  
    /      |                                      |  
   /       |              C  C                    |  
  /        |     C        C  C  C                 |  
 *         |       C  C   C   C                   |  
 |         |       C     C C  C  C                |  
 |         .-----------C-------C-C----------------.  
 |        /   C  C         C                     /   
 |       /              C                       /    
 |      /            C                         /     
 |     /                                      /      
 |    /                                      /       
 |   /                                      /        
 |  /                                      /         
 | /                                      /          
 |/                                      /           
 *--------------------------------------*            

Positions:
   0 C      9.313284    5.760109    4.630606
   1 C      4.978553    8.615027    5.647838
   2 C     10.183508    7.017043    5.455879
   3 C      9.634416   11.415777    5.119269
   4 C     11.329943    6.578257    5.052013
   5 C      8.444025    4.002278    4.943203
   6 C      7.535190   10.306541    4.573475
   7 C      6.380128    8.431495    5.723829
   8 C      8.311127    8.572824    4.760091
   9 C      8.836558   10.123446    5.558368
  10 C      7.770648    7.522563    5.426140
  11 C      4.999737    6.273818    4.291310
  12 C      8.317635   11.937724    5.204766
  13 C     10.144213    9.879414    5.599684
  14 C      9.919603    8.274671    5.475397
  15 C     10.184970    7.859944    4.269367
  16 C     10.643635   10.018870    4.299628
  17 C      7.435419   10.809785    5.680760
  18 C      7.148196   11.905641    4.903328
  19 C      3.724772    5.943219    4.681827
  20 C      4.808441    9.598582    4.406328
  21 C      7.758813    5.028664    5.516732
  22 C      4.077948    9.671409    5.528979
  23 C      7.383774    3.192849    4.471436

Unit cell:
           periodic     x           y           z      points  spacing
  1. axis:    yes   16.000000    0.000000    0.000000    80     0.2000
  2. axis:    yes    0.000000   16.000000    0.000000    80     0.2000
  3. axis:    yes    0.000000    0.000000   10.000000    48     0.2083

Effective grid spacing dv^(1/3) = 0.2027

                     log10-error:    total        iterations:
           time      wfs    density  energy       fermi  poisson
iter:   1  14:13:51          +inf  -134.326952    3      5      
iter:   2  14:13:52         -1.40  -134.181435    33     2      
iter:   3  14:13:52         -1.60  -133.870151    4      2      
iter:   4  14:13:53         -1.95  -133.830556    3      2      
iter:   5  14:13:53         -2.12  -133.817906    3      2      
iter:   6  14:13:54         -2.20  -133.803775    3      2      
iter:   7  14:13:55         -2.40  -133.798245    3      2      
iter:   8  14:13:55         -2.61  -133.796043    3      2      
iter:   9  14:13:56         -2.78  -133.797911    3      1      
iter:  10  14:13:56         -2.94  -133.798600    2      2      
iter:  11  14:13:57         -3.21  -133.798709    2      1      
iter:  12  14:13:57         -3.31  -133.799568    2      1      
iter:  13  14:13:58         -3.43  -133.799173    2      1      
iter:  14  14:13:58         -3.58  -133.798408    2      1      
iter:  15  14:13:59         -3.69  -133.798312    2      1      
iter:  16  14:13:59         -3.85  -133.798376    2      1      
iter:  17  14:14:00         -4.01  -133.797897    2      1      

Converged after 17 iterations.

Dipole moment: (0.749852, 0.352248, 0.861406) |e|*Ang

Energy contributions relative to reference atoms: (reference = -24663.074771)

Kinetic:       +172.126466
Potential:     -149.102999
External:        +0.000000
XC:            -159.286829
Entropy (-ST):   -0.385892
Local:           +2.658411
--------------------------
Free energy:   -133.990843
Extrapolated:  -133.797897

Fermi level: -5.34995

 Band  Eigenvalues  Occupancy
    0    -29.00407    2.00000
    1    -27.07299    2.00000
    2    -24.77552    2.00000
    3    -23.00132    2.00000
    4    -21.82747    2.00000
    5    -21.30635    2.00000
    6    -20.66607    2.00000
    7    -19.75626    2.00000
    8    -19.00422    2.00000
    9    -17.71929    2.00000
   10    -16.96702    2.00000
   11    -16.77625    2.00000
   12    -16.55465    2.00000
   13    -15.94392    2.00000
   14    -15.11258    2.00000
   15    -14.60225    2.00000
   16    -14.23730    2.00000
   17    -14.14163    2.00000
   18    -13.01213    2.00000
   19    -12.86276    2.00000
   20    -12.03551    2.00000
   21    -11.44661    2.00000
   22    -11.23065    2.00000
   23    -10.55997    2.00000
   24    -10.22563    2.00000
   25    -10.06306    2.00000
   26     -9.92882    2.00000
   27     -9.58473    2.00000
   28     -9.01341    2.00000
   29     -8.72876    2.00000
   30     -8.67832    2.00000
   31     -8.37319    2.00000
   32     -8.17821    2.00000
   33     -8.12897    2.00000
   34     -7.87376    2.00000
   35     -7.76908    2.00000
   36     -7.42573    2.00000
   37     -7.12743    2.00000
   38     -6.97240    2.00000
   39     -6.62285    1.99999
   40     -6.40349    1.99995
   41     -6.26858    1.99980
   42     -6.15909    1.99939
   43     -5.92849    1.99388
   44     -5.82007    1.98200
   45     -5.72546    1.95428
   46     -5.52637    1.70748
   47     -5.50284    1.64370
   48     -5.26265    0.58927
   49     -5.07859    0.12436
   50     -4.76770    0.00590
   51     -4.08918    0.00001
   52     -4.08822    0.00001
   53     -3.77173    0.00000
   54     -3.62195    0.00000
   55     -3.29863    0.00000
   56     -2.83583    0.00000
   57     -2.69254    0.00000
   58     -2.47213    0.00000
   59     -2.17517    0.00000
   60     -2.09026    0.00000
   61     -1.54663    0.00000
   62     -1.30323    0.00000
   63     -0.69994    0.00000
   64     -0.36454    0.00000
   65     -0.11213    0.00000
   66     -0.05406    0.00000
   67      0.08401    0.00000
   68      0.40351    0.00000
   69      0.48932    0.00000
   70      0.63185    0.00000
   71      0.99096    0.00000
   72      1.26492    0.00000
   73      1.95782    0.00000
   74      2.25949    0.00000
   75      3.03699    0.00000
   76      3.26396    0.00000
   77      3.57055    0.00000
   78      4.42760    0.00000
   79      4.89859    0.00000
   80      5.92613    0.00000
   81      6.12136    0.00000
   82      6.46926    0.00000
   83      6.53141    0.00000
   84      6.87763    0.00000
   85      7.05247    0.00000
   86      7.24719    0.00000
   87      7.56560    0.00000
   88      7.68343    0.00000
   89      7.86088    0.00000
   90      7.96727    0.00000
   91      8.24879    0.00000
   92      8.45390    0.00000
   93      8.63371    0.00000
   94      8.73756    0.00000
   95      8.94443    0.00000
   96      9.09191    0.00000
   97      9.33073    0.00000


Forces in eV/Ang:
  0 C    -0.47471   -0.19954    0.32831
  1 C     3.27790   -0.31132    0.57906
  2 C    -3.03121   -8.90187    5.02008
  3 C    -1.43256    2.21294   -2.30998
  4 C     4.70052   -3.19164   -2.78267
  5 C    -1.41672   -1.44432   -1.13397
  6 C    -2.17445   -7.95878  -14.73909
  7 C     0.58939   -3.47709   -0.78528
  8 C     2.70440   -0.09833   -0.02903
  9 C    -7.36175    2.37215    1.01470
 10 C    -6.28032    2.65484    1.19748
 11 C    -2.62192   -0.36306    1.39573
 12 C    17.26243    5.72582    2.32281
 13 C     5.61702   -4.21493    1.46338
 14 C    -2.13647    8.50634    6.36328
 15 C     1.15980    1.46105   -8.28832
 16 C     1.51083    2.60786   -0.43036
 17 C    -1.98239   -3.17393   17.13206
 18 C   -12.23538    3.99619   -5.59660
 19 C     3.01201    0.83229   -0.81353
 20 C     0.36415    0.97392   -2.28827
 21 C     0.10663    1.18452    0.37590
 22 C    -1.45038   -0.52723    1.26746
 23 C     2.26743    1.34468    0.77867

System changes: positions 

Initializing position-dependent things.

Density initialized from wave functions
           .--------------------------------------.  
          /|                                      |  
         / |                                      |  
        /  |                                      |  
       /   |                                      |  
      /    |                                      |  
     /     |                                      |  
    /      |                                      |  
   /       |              C  C                    |  
  /        |     C        C  C  C                 |  
 *         |       C  C   C   C                   |  
 |         |       C     C C  C  C                |  
 |         .-----------C-------C-C----------------.  
 |        /   C  C         C                     /   
 |       /              C                       /    
 |      /            C                         /     
 |     /                                      /      
 |    /                                      /       
 |   /                                      /        
 |  /                                      /         
 | /                                      /          
 |/                                      /           
 *--------------------------------------*            

Positions:
   0 C      9.311911    5.760800    4.633514
   1 C      4.991076    8.617756    5.649504
   2 C     10.169138    7.004549    5.463406
   3 C      9.630431   11.422703    5.107312
   4 C     11.336197    6.573415    5.040980
   5 C      8.438342    3.999572    4.941284
   6 C      7.513111   10.313818    4.553235
   7 C      6.386062    8.412368    5.718848
   8 C      8.327113    8.567012    4.761025
   9 C      8.828273   10.136112    5.567114
  10 C      7.736454    7.542834    5.430596
  11 C      4.992961    6.273642    4.296432
  12 C      8.334310   11.950826    5.202767
  13 C     10.147011    9.858373    5.602518
  14 C      9.928401    8.275949    5.482742
  15 C     10.185000    7.864717    4.264824
  16 C     10.648581   10.034360    4.303395
  17 C      7.442201   10.790112    5.697264
  18 C      7.146962   11.897660    4.901789
  19 C      3.733508    5.945673    4.679640
  20 C      4.806927    9.603372    4.400676
  21 C      7.762162    5.033687    5.516916
  22 C      4.076901    9.664456    5.530855
  23 C      7.391477    3.196287    4.473321

Unit cell:
           periodic     x           y           z      points  spacing
  1. axis:    yes   16.000000    0.000000    0.000000    80     0.2000
  2. axis:    yes    0.000000   16.000000    0.000000    80     0.2000
  3. axis:    yes    0.000000    0.000000   10.000000    48     0.2083

Effective grid spacing dv^(1/3) = 0.2027

                     log10-error:    total        iterations:
           time      wfs    density  energy       fermi  poisson
iter:   1  14:14:01          +inf  -136.097737    3      5      
iter:   2  14:14:02         -1.64  -136.013652    4      2      
iter:   3  14:14:03         -1.86  -135.948316    3      2      
iter:   4  14:14:03         -2.14  -135.926813    3      2      
iter:   5  14:14:04         -2.26  -135.920145    3      2      
iter:   6  14:14:04         -2.40  -135.914525    3      2      
iter:   7  14:14:05         -2.61  -135.913483    2      2      
iter:   8  14:14:05         -2.71  -135.913310    3      2      
iter:   9  14:14:06         -2.97  -135.914239    2      1      
iter:  10  14:14:06         -3.04  -135.913441    2      2      
iter:  11  14:14:07         -3.33  -135.914336    2      1      
iter:  12  14:14:07         -3.49  -135.916468    2      1      
iter:  13  14:14:08         -3.53  -135.912832    2      1      
iter:  14  14:14:08         -3.75  -135.913722    2      1      
iter:  15  14:14:09         -3.87  -135.913939    2      1      
iter:  16  14:14:09         -4.00  -135.913601    2      1      

Converged after 16 iterations.

Dipole moment: (0.745488, 0.383452, 0.888869) |e|*Ang

Energy contributions relative to reference atoms: (reference = -24663.074771)

Kinetic:       +162.659030
Potential:     -143.010870
External:        +0.000000
XC:            -158.041990
Entropy (-ST):   -0.359632
Local:           +2.660045
--------------------------
Free energy:   -136.093417
Extrapolated:  -135.913601

Fermi level: -5.37507

 Band  Eigenvalues  Occupancy
    0    -28.73633    2.00000
    1    -26.88525    2.00000
    2    -24.51764    2.00000
    3    -22.96797    2.00000
    4    -21.74656    2.00000
    5    -21.29951    2.00000
    6    -20.46363    2.00000
    7    -19.80842    2.00000
    8    -18.92223    2.00000
    9    -17.76482    2.00000
   10    -17.05412    2.00000
   11    -16.70818    2.00000
   12    -16.55397    2.00000
   13    -15.81039    2.00000
   14    -15.13368    2.00000
   15    -14.64323    2.00000
   16    -14.19756    2.00000
   17    -14.07777    2.00000
   18    -13.07282    2.00000
   19    -12.77137    2.00000
   20    -12.05239    2.00000
   21    -11.37972    2.00000
   22    -11.25845    2.00000
   23    -10.51808    2.00000
   24    -10.15651    2.00000
   25    -10.02847    2.00000
   26     -9.87625    2.00000
   27     -9.55924    2.00000
   28     -8.97959    2.00000
   29     -8.73009    2.00000
   30     -8.64734    2.00000
   31     -8.33574    2.00000
   32     -8.19682    2.00000
   33     -8.16459    2.00000
   34     -7.89394    2.00000
   35     -7.80989    2.00000
   36     -7.40922    2.00000
   37     -7.13934    2.00000
   38     -7.00259    2.00000
   39     -6.65611    1.99999
   40     -6.42166    1.99994
   41     -6.27225    1.99975
   42     -6.18599    1.99940
   43     -5.94395    1.99326
   44     -5.89780    1.98932
   45     -5.75866    1.95775
   46     -5.55482    1.71569
   47     -5.54273    1.68490
   48     -5.28293    0.56935
   49     -5.06482    0.08601
   50     -4.76864    0.00464
   51     -4.07273    0.00000
   52     -4.03596    0.00000
   53     -3.75240    0.00000
   54     -3.62004    0.00000
   55     -3.24399    0.00000
   56     -2.85467    0.00000
   57     -2.73587    0.00000
   58     -2.49433    0.00000
   59     -2.11913    0.00000
   60     -2.05620    0.00000
   61     -1.48222    0.00000
   62     -1.24935    0.00000
   63     -0.63535    0.00000
   64     -0.32519    0.00000
   65     -0.11720    0.00000
   66     -0.07053    0.00000
   67      0.17712    0.00000
   68      0.50815    0.00000
   69      0.55920    0.00000
   70      0.71083    0.00000
   71      0.99946    0.00000
   72      1.38775    0.00000
   73      1.82979    0.00000
   74      2.21305    0.00000
   75      3.00820    0.00000
   76      3.31000    0.00000
   77      3.65541    0.00000
   78      4.47025    0.00000
   79      4.81371    0.00000
   80      5.67176    0.00000
   81      6.13903    0.00000
   82      6.39161    0.00000
   83      6.52253    0.00000
   84      6.85964    0.00000
   85      6.99817    0.00000
   86      7.18289    0.00000
   87      7.62945    0.00000
   88      7.78811    0.00000
   89      7.86390    0.00000
   90      8.02672    0.00000
   91      8.27783    0.00000
   92      8.44407    0.00000
   93      8.56251    0.00000
   94      8.76275    0.00000
   95      8.89967    0.00000
   96      9.08828    0.00000
   97      9.28777    0.00000


Forces in eV/Ang:
  0 C    -0.37707   -0.11240    0.44228
  1 C     3.08111   -0.20022    0.48806
  2 C    -2.30917   -8.73133    4.29094
  3 C    -1.13592    1.85542   -2.33412
  4 C     3.49124   -2.63010   -2.50973
  5 C    -1.16707   -1.15371   -0.87865
  6 C    -2.68865   -6.40861  -12.84549
  7 C     0.70704   -3.46162   -0.82982
  8 C     2.74676   -0.38753   -0.03603
  9 C    -5.80808    2.09787    1.02554
 10 C    -6.24659    3.01616    1.06916
 11 C    -2.05373   -0.22972    1.20737
 12 C    14.82264    5.23405    1.86348
 13 C     4.72949   -4.23397    1.39366
 14 C    -1.79204    7.98149    5.86787
 15 C     0.94183    1.18755   -7.49835
 16 C     1.25948    2.80334   -0.05141
 17 C    -1.40803   -3.03713   14.73599
 18 C   -10.55126    3.14546   -4.74168
 19 C     2.42899    0.68959   -0.62689
 20 C     0.24181    0.95209   -1.98854
 21 C     0.24607    1.19957    0.26962
 22 C    -1.14780   -0.66590    1.06998
 23 C     1.90914    1.04463    0.58592

System changes: positions 

Initializing position-dependent things.

Density initialized from wave functions
           .--------------------------------------.  
          /|                                      |  
         / |                                      |  
        /  |                                      |  
       /   |                                      |  
      /    |                                      |  
     /     |                                      |  
    /      |                                      |  
   /       |              C  C                    |  
  /        |     C        C  C  C                 |  
 *         |       C  C   C   C                   |  
 |         |       C     C C  C  C                |  
 |         .-----------C-------C-C----------------.  
 |        /   C  C         C                     /   
 |       /              C                       /    
 |      /            C                         /     
 |     /                                      /      
 |    /                                      /       
 |   /                                      /        
 |  /                                      /         
 | /                                      /          
 |/                                      /           
 *--------------------------------------*            

Positions:
   0 C      9.311116    5.761840    4.637150
   1 C      5.003173    8.620203    5.650733
   2 C     10.160711    6.985456    5.469125
   3 C      9.628095   11.427718    5.095028
   4 C     11.336404    6.570545    5.031505
   5 C      8.434401    3.998071    4.940505
   6 C      7.489172   10.323048    4.536545
   7 C      6.392151    8.393734    5.713730
   8 C      8.343063    8.560138    4.761522
   9 C      8.826518   10.146067    5.575006
  10 C      7.703004    7.564435    5.434399
  11 C      4.989301    6.274168    4.300481
  12 C      8.346747   11.963739    5.199933
  13 C     10.148297    9.837014    5.606329
  14 C      9.935410    8.282769    5.491216
  15 C     10.184387    7.867966    4.258509
  16 C     10.652187   10.051130    4.308679
  17 C      7.449644   10.772071    5.710092
  18 C      7.146114   11.889354    4.901069
  19 C      3.739024    5.947390    4.678537
  20 C      4.805284    9.608040    4.395944
  21 C      7.765950    5.039208    5.516646
  22 C      4.076730    9.657477    5.532290
  23 C      7.397145    3.198071    4.474098

Unit cell:
           periodic     x           y           z      points  spacing
  1. axis:    yes   16.000000    0.000000    0.000000    80     0.2000
  2. axis:    yes    0.000000   16.000000    0.000000    80     0.2000
  3. axis:    yes    0.000000    0.000000   10.000000    48     0.2083

Effective grid spacing dv^(1/3) = 0.2027

                     log10-error:    total        iterations:
           time      wfs    density  energy       fermi  poisson
iter:   1  14:14:11          +inf  -137.798769    3      5      
iter:   2  14:14:12         -1.81  -137.737362    4      2      
iter:   3  14:14:12         -2.02  -137.711293    3      2      
iter:   4  14:14:13         -2.20  -137.691681    3      2      
iter:   5  14:14:13         -2.36  -137.688051    3      2      
iter:   6  14:14:14         -2.47  -137.684831    3      2      
iter:   7  14:14:14         -2.66  -137.684182    2      2      
iter:   8  14:14:15         -2.90  -137.684336    3      2      
iter:   9  14:14:15         -3.04  -137.685738    2      1      
iter:  10  14:14:16         -3.21  -137.685729    2      1      
iter:  11  14:14:17         -3.35  -137.686067    2      1      
iter:  12  14:14:17         -3.56  -137.685903    2      1      
iter:  13  14:14:18         -3.69  -137.684806    2      1      
iter:  14  14:14:18         -3.91  -137.684766    2      1      
iter:  15  14:14:19         -4.00  -137.684612    2      1      
iter:  16  14:14:19         -4.12  -137.684364    2      1      

Converged after 16 iterations.

Dipole moment: (0.729759, 0.430027, 0.915347) |e|*Ang

Energy contributions relative to reference atoms: (reference = -24663.074771)

Kinetic:       +155.313240
Potential:     -138.370168
External:        +0.000000
XC:            -157.112830
Entropy (-ST):   -0.341978
Local:           +2.656383
--------------------------
Free energy:   -137.855353
Extrapolated:  -137.684364

Fermi level: -5.38869

 Band  Eigenvalues  Occupancy
    0    -28.50963    2.00000
    1    -26.63920    2.00000
    2    -24.33687    2.00000
    3    -22.94565    2.00000
    4    -21.68957    2.00000
    5    -21.27132    2.00000
    6    -20.31383    2.00000
    7    -19.85386    2.00000
    8    -18.86998    2.00000
    9    -17.79647    2.00000
   10    -17.10734    2.00000
   11    -16.69008    2.00000
   12    -16.55044    2.00000
   13    -15.67900    2.00000
   14    -15.15705    2.00000
   15    -14.68628    2.00000
   16    -14.16689    2.00000
   17    -13.99388    2.00000
   18    -13.18153    2.00000
   19    -12.68015    2.00000
   20    -12.07473    2.00000
   21    -11.42820    2.00000
   22    -11.18585    2.00000
   23    -10.47584    2.00000
   24    -10.13487    2.00000
   25     -9.98591    2.00000
   26     -9.83420    2.00000
   27     -9.55183    2.00000
   28     -8.95076    2.00000
   29     -8.75092    2.00000
   30     -8.60913    2.00000
   31     -8.33560    2.00000
   32     -8.23237    2.00000
   33     -8.18327    2.00000
   34     -7.91786    2.00000
   35     -7.82497    2.00000
   36     -7.37793    2.00000
   37     -7.14141    2.00000
   38     -7.01317    2.00000
   39     -6.69953    2.00000
   40     -6.43640    1.99994
   41     -6.26118    1.99968
   42     -6.20011    1.99940
   43     -5.97831    1.99452
   44     -5.92530    1.99070
   45     -5.78061    1.96106
   46     -5.57140    1.72282
   47     -5.56571    1.70895
   48     -5.29352    0.55706
   49     -5.04486    0.06224
   50     -4.75766    0.00363
   51     -4.05548    0.00000
   52     -3.98174    0.00000
   53     -3.74652    0.00000
   54     -3.60035    0.00000
   55     -3.18618    0.00000
   56     -2.85823    0.00000
   57     -2.77388    0.00000
   58     -2.53013    0.00000
   59     -2.06518    0.00000
   60     -2.01990    0.00000
   61     -1.41926    0.00000
   62     -1.23501    0.00000
   63     -0.59089    0.00000
   64     -0.27631    0.00000
   65     -0.14784    0.00000
   66     -0.03138    0.00000
   67      0.27015    0.00000
   68      0.57905    0.00000
   69      0.62555    0.00000
   70      0.76913    0.00000
   71      0.97246    0.00000
   72      1.31836    0.00000
   73      1.87404    0.00000
   74      2.17482    0.00000
   75      3.02119    0.00000
   76      3.37766    0.00000
   77      3.81553    0.00000
   78      4.52486    0.00000
   79      4.73843    0.00000
   80      5.46725    0.00000
   81      6.11736    0.00000
   82      6.34407    0.00000
   83      6.53848    0.00000
   84      6.80891    0.00000
   85      7.00340    0.00000
   86      7.15091    0.00000
   87      7.67594    0.00000
   88      7.82001    0.00000
   89      7.89067    0.00000
   90      8.09231    0.00000
   91      8.30588    0.00000
   92      8.43825    0.00000
   93      8.53389    0.00000
   94      8.79617    0.00000
   95      8.87611    0.00000
   96      9.09051    0.00000
   97      9.25817    0.00000


Forces in eV/Ang:
  0 C    -0.33725   -0.04593    0.51589
  1 C     2.92172   -0.12083    0.41016
  2 C    -2.44265   -7.39873    3.88906
  3 C    -1.00032    1.62638   -2.36778
  4 C     3.12589   -2.37454   -2.49755
  5 C    -1.00188   -0.95443   -0.67681
  6 C    -3.06819   -5.29687  -11.45303
  7 C     0.65785   -3.35653   -0.82560
  8 C     2.76575   -0.67883   -0.01340
  9 C    -4.73070    2.00758    0.95950
 10 C    -5.99453    3.23601    0.92785
 11 C    -1.66979   -0.14021    1.07772
 12 C    13.12526    4.83679    1.56929
 13 C     4.28562   -4.24676    1.39669
 14 C    -1.32203    6.36645    5.07592
 15 C     0.67205    1.03292   -6.49943
 16 C     1.03720    2.97342    0.27826
 17 C    -1.02001   -2.87108   13.04210
 18 C    -9.41242    2.54919   -4.14605
 19 C     2.02653    0.58344   -0.50266
 20 C     0.16610    0.92916   -1.74707
 21 C     0.36187    1.20600    0.16369
 22 C    -0.91371   -0.77109    0.93768
 23 C     1.66889    0.84157    0.45221

System changes: positions 

Initializing position-dependent things.

Density initialized from wave functions
           .--------------------------------------.  
          /|                                      |  
         / |                                      |  
        /  |                                      |  
       /   |                                      |  
      /    |                                      |  
     /     |                                      |  
    /      |                                      |  
   /       |              C  C                    |  
  /        |     C        C  C  C                 |  
 *         |       C  C   C   C                   |  
 |         |       C    C  C  C  C                |  
 |         .-----------C-------C-C----------------.  
 |        /   C  C         C                     /   
 |       /              C                       /    
 |      /            C                         /     
 |     /                                      /      
 |    /                                      /       
 |   /                                      /        
 |  /                                      /         
 | /                                      /          
 |/                                      /           
 *--------------------------------------*            

Positions:
   0 C      9.310300    5.763156    4.641429
   1 C      5.015547    8.622630    5.651595
   2 C     10.149380    6.971352    5.475913
   3 C      9.625823   11.432074    5.081570
   4 C     11.338013    6.567050    5.020503
   5 C      8.431051    3.997057    4.940536
   6 C      7.462582   10.333273    4.520646
   7 C      6.397123    8.375352    5.708630
   8 C      8.359671    8.551213    4.762046
   9 C      8.827680   10.155959    5.581893
  10 C      7.670673    7.587793    5.437424
  11 C      4.986799    6.275008    4.304255
  12 C      8.359140   11.977095    5.197061
  13 C     10.151691    9.814129    5.611530
  14 C      9.942898    8.283167    5.498407
  15 C     10.182572    7.870597    4.252613
  16 C     10.654568   10.070119    4.316081
  17 C      7.457337   10.754979    5.722612
  18 C      7.143528   11.880966    4.900237
  19 C      3.743320    5.948810    4.677881
  20 C      4.803580    9.612845    4.391830
  21 C      7.770425    5.045351    5.515719
  22 C      4.077364    9.649956    5.533600
  23 C      7.402181    3.199127    4.474307

Unit cell:
           periodic     x           y           z      points  spacing
  1. axis:    yes   16.000000    0.000000    0.000000    80     0.2000
  2. axis:    yes    0.000000   16.000000    0.000000    80     0.2000
  3. axis:    yes    0.000000    0.000000   10.000000    48     0.2083

Effective grid spacing dv^(1/3) = 0.2027

                     log10-error:    total        iterations:
           time      wfs    density  energy       fermi  poisson
iter:   1  14:14:21          +inf  -139.405297    4      5      
iter:   2  14:14:21         -1.86  -139.340165    4      2      
iter:   3  14:14:22         -2.06  -139.316184    3      2      
iter:   4  14:14:22         -2.21  -139.294850    3      2      
iter:   5  14:14:23         -2.39  -139.290902    3      2      
iter:   6  14:14:24         -2.51  -139.289257    3      2      
iter:   7  14:14:24         -2.67  -139.288411    2      2      
iter:   8  14:14:25         -2.96  -139.288847    2      1      
iter:   9  14:14:25         -3.04  -139.288792    2      2      
iter:  10  14:14:26         -3.23  -139.289678    2      1      
iter:  11  14:14:26         -3.37  -139.290072    2      1      
iter:  12  14:14:27         -3.50  -139.290156    2      1      
iter:  13  14:14:27         -3.70  -139.289642    2      1      
iter:  14  14:14:28         -3.81  -139.289064    2      1      
iter:  15  14:14:28         -3.90  -139.289022    2      1      
iter:  16  14:14:29         -4.02  -139.289002    2      1      

Converged after 16 iterations.

Dipole moment: (0.713496, 0.482976, 0.938451) |e|*Ang

Energy contributions relative to reference atoms: (reference = -24663.074771)

Kinetic:       +149.023359
Potential:     -134.475628
External:        +0.000000
XC:            -156.341972
Entropy (-ST):   -0.328866
Local:           +2.669672
--------------------------
Free energy:   -139.453435
Extrapolated:  -139.289002

Fermi level: -5.39338

 Band  Eigenvalues  Occupancy
    0    -28.26342    2.00000
    1    -26.45584    2.00000
    2    -24.15869    2.00000
    3    -22.93647    2.00000
    4    -21.63772    2.00000
    5    -21.23424    2.00000
    6    -20.17762    2.00000
    7    -19.85129    2.00000
    8    -18.82222    2.00000
    9    -17.81770    2.00000
   10    -17.14156    2.00000
   11    -16.66783    2.00000
   12    -16.53321    2.00000
   13    -15.55222    2.00000
   14    -15.19565    2.00000
   15    -14.73073    2.00000
   16    -14.13851    2.00000
   17    -13.92717    2.00000
   18    -13.28750    2.00000
   19    -12.59200    2.00000
   20    -12.09342    2.00000
   21    -11.49320    2.00000
   22    -11.08750    2.00000
   23    -10.42789    2.00000
   24    -10.12901    2.00000
   25     -9.92531    2.00000
   26     -9.77390    2.00000
   27     -9.54743    2.00000
   28     -8.92676    2.00000
   29     -8.77763    2.00000
   30     -8.57224    2.00000
   31     -8.39767    2.00000
   32     -8.25149    2.00000
   33     -8.19077    2.00000
   34     -7.92003    2.00000
   35     -7.83584    2.00000
   36     -7.37112    2.00000
   37     -7.16403    2.00000
   38     -7.00750    2.00000
   39     -6.73308    2.00000
   40     -6.45835    1.99995
   41     -6.24709    1.99961
   42     -6.19126    1.99931
   43     -6.02727    1.99647
   44     -5.92631    1.99035
   45     -5.79146    1.96335
   46     -5.59019    1.75483
   47     -5.56558    1.69679
   48     -5.29691    0.55191
   49     -5.01534    0.04461
   50     -4.73663    0.00281
   51     -4.03939    0.00000
   52     -3.92103    0.00000
   53     -3.75010    0.00000
   54     -3.55712    0.00000
   55     -3.13791    0.00000
   56     -2.85415    0.00000
   57     -2.79775    0.00000
   58     -2.57492    0.00000
   59     -2.02535    0.00000
   60     -1.96847    0.00000
   61     -1.35453    0.00000
   62     -1.24987    0.00000
   63     -0.55760    0.00000
   64     -0.23305    0.00000
   65     -0.19162    0.00000
   66      0.02273    0.00000
   67      0.35246    0.00000
   68      0.64295    0.00000
   69      0.69210    0.00000
   70      0.82196    0.00000
   71      0.96440    0.00000
   72      1.20932    0.00000
   73      1.86842    0.00000
   74      2.19578    0.00000
   75      3.10494    0.00000
   76      3.42864    0.00000
   77      4.00202    0.00000
   78      4.59720    0.00000
   79      4.71836    0.00000
   80      5.31337    0.00000
   81      6.06200    0.00000
   82      6.30324    0.00000
   83      6.56864    0.00000
   84      6.76608    0.00000
   85      7.02183    0.00000
   86      7.16120    0.00000
   87      7.70562    0.00000
   88      7.82600    0.00000
   89      7.90986    0.00000
   90      8.15977    0.00000
   91      8.34811    0.00000
   92      8.44108    0.00000
   93      8.49762    0.00000
   94      8.82005    0.00000
   95      8.87792    0.00000
   96      9.09728    0.00000
   97      9.23903    0.00000


Forces in eV/Ang:
  0 C    -0.28481    0.05540    0.61976
  1 C     2.71249   -0.06962    0.31917
  2 C    -2.07631   -6.92366    3.44584
  3 C    -0.86210    1.34516   -2.36993
  4 C     2.43305   -2.04425   -2.39921
  5 C    -0.88412   -0.80985   -0.50526
  6 C    -3.37516   -4.28722  -10.08905
  7 C     0.45821   -3.14269   -0.78069
  8 C     2.71628   -0.88783   -0.00708
  9 C    -3.60423    1.87608    0.90482
 10 C    -5.56274    3.27095    0.75878
 11 C    -1.36800   -0.07448    0.97834
 12 C    11.39123    4.46091    1.24490
 13 C     3.79097   -4.11861    1.39380
 14 C    -1.09195    5.55826    4.50266
 15 C     0.49321    0.82277   -5.79644
 16 C     0.85018    3.15095    0.59222
 17 C    -0.72493   -2.67386   11.39675
 18 C    -8.17684    2.03222   -3.57565
 19 C     1.71363    0.50168   -0.41041
 20 C     0.11821    0.90755   -1.52470
 21 C     0.47992    1.23523    0.04254
 22 C    -0.70952   -0.85121    0.82763
 23 C     1.49164    0.67652    0.34822

System changes: positions 

Initializing position-dependent things.

Density initialized from wave functions
           .--------------------------------------.  
          /|                                      |  
         / |                                      |  
        /  |                                      |  
       /   |                                      |  
      /    |                                      |  
     /     |                                      |  
    /      |                                      |  
   /       |              C  C                    |  
  /        |     C        C  C  C                 |  
 *         |       C  C   C   C                   |  
 |         |       C    C  C  C  C                |  
 |         .-----------C-------C-C----------------.  
 |        /   C  C         C                     /   
 |       /              C                       /    
 |      /            C                         /     
 |     /                                      /      
 |    /                                      /       
 |   /                                      /        
 |  /                                      /         
 | /                                      /          
 |/                                      /           
 *--------------------------------------*            

Positions:
   0 C      9.309577    5.765378    4.647066
   1 C      5.028391    8.624925    5.651962
   2 C     10.139525    6.953492    5.483231
   3 C      9.623534   11.435362    5.066321
   4 C     11.337245    6.563714    5.008055
   5 C      8.427618    3.995951    4.941188
   6 C      7.431906   10.345012    4.504950
   7 C      6.399490    8.357204    5.703663
   8 C      8.377490    8.540422    4.762503
   9 C      8.833405   10.166214    5.588543
  10 C      7.639267    7.612478    5.439504
  11 C      4.984740    6.276066    4.308277
  12 C      8.370422   11.991834    5.193259
  13 C     10.156109    9.789722    5.618406
  14 C      9.949661    8.283850    5.505540
  15 C     10.180073    7.872259    4.245547
  16 C     10.656327   10.092969    4.326089
  17 C      7.465202   10.737848    5.735116
  18 C      7.141387   11.872226    4.899421
  19 C      3.747357    5.950193    4.677340
  20 C      4.802007    9.618165    4.387881
  21 C      7.776053    5.052874    5.513816
  22 C      4.078545    9.641573    5.535136
  23 C      7.407544    3.199833    4.474238

Unit cell:
           periodic     x           y           z      points  spacing
  1. axis:    yes   16.000000    0.000000    0.000000    80     0.2000
  2. axis:    yes    0.000000   16.000000    0.000000    80     0.2000
  3. axis:    yes    0.000000    0.000000   10.000000    48     0.2083

Effective grid spacing dv^(1/3) = 0.2027

                     log10-error:    total        iterations:
           time      wfs    density  energy       fermi  poisson
iter:   1  14:14:30          +inf  -140.949042    4      5      
iter:   2  14:14:31         -1.89  -140.882880    4      2      
iter:   3  14:14:32         -2.06  -140.857903    3      2      
iter:   4  14:14:32         -2.20  -140.835581    3      2      
iter:   5  14:14:33         -2.38  -140.831201    2      2      
iter:   6  14:14:33         -2.53  -140.830310    3      2      
iter:   7  14:14:34         -2.66  -140.829052    3      2      
iter:   8  14:14:34         -2.94  -140.829168    2      1      
iter:   9  14:14:35         -3.03  -140.829733    3      2      
iter:  10  14:14:35         -3.21  -140.830447    2      1      
iter:  11  14:14:36         -3.32  -140.830997    2      1      
iter:  12  14:14:36         -3.47  -140.831796    2      1      
iter:  13  14:14:37         -3.76  -140.830464    2      1      
iter:  14  14:14:37         -3.83  -140.829771    2      1      
iter:  15  14:14:38         -3.94  -140.830127    2      1      
iter:  16  14:14:38         -4.13  -140.829840    2      1      

Converged after 16 iterations.

Dipole moment: (0.697255, 0.552360, 0.959652) |e|*Ang

Energy contributions relative to reference atoms: (reference = -24663.074771)

Kinetic:       +143.625724
Potential:     -131.231645
External:        +0.000000
XC:            -155.732488
Entropy (-ST):   -0.320391
Local:           +2.668765
--------------------------
Free energy:   -140.990035
Extrapolated:  -140.829840

Fermi level: -5.38967

 Band  Eigenvalues  Occupancy
    0    -27.99845    2.00000
    1    -26.25429    2.00000
    2    -24.00455    2.00000
    3    -22.93366    2.00000
    4    -21.59101    2.00000
    5    -21.19098    2.00000
    6    -20.14496    2.00000
    7    -19.73738    2.00000
    8    -18.79087    2.00000
    9    -17.83163    2.00000
   10    -17.16517    2.00000
   11    -16.67094    2.00000
   12    -16.51412    2.00000
   13    -15.41985    2.00000
   14    -15.24486    2.00000
   15    -14.77681    2.00000
   16    -14.11231    2.00000
   17    -13.86618    2.00000
   18    -13.38060    2.00000
   19    -12.52333    2.00000
   20    -12.09945    2.00000
   21    -11.55755    2.00000
   22    -10.98220    2.00000
   23    -10.38944    2.00000
   24    -10.13208    2.00000
   25     -9.87058    2.00000
   26     -9.72752    2.00000
   27     -9.54406    2.00000
   28     -8.91600    2.00000
   29     -8.80549    2.00000
   30     -8.54651    2.00000
   31     -8.50500    2.00000
   32     -8.24449    2.00000
   33     -8.17391    2.00000
   34     -7.90047    2.00000
   35     -7.85922    2.00000
   36     -7.37375    2.00000
   37     -7.19411    2.00000
   38     -6.99562    2.00000
   39     -6.75616    2.00000
   40     -6.48522    1.99997
   41     -6.24448    1.99961
   42     -6.15948    1.99909
   43     -6.06714    1.99772
   44     -5.92323    1.99041
   45     -5.79203    1.96485
   46     -5.59990    1.78226
   47     -5.55526    1.67938
   48     -5.29271    0.54993
   49     -4.98585    0.03465
   50     -4.70473    0.00212
   51     -4.02452    0.00000
   52     -3.87026    0.00000
   53     -3.74841    0.00000
   54     -3.50496    0.00000
   55     -3.09355    0.00000
   56     -2.87295    0.00000
   57     -2.78225    0.00000
   58     -2.62218    0.00000
   59     -1.98538    0.00000
   60     -1.90461    0.00000
   61     -1.29927    0.00000
   62     -1.29195    0.00000
   63     -0.52786    0.00000
   64     -0.26243    0.00000
   65     -0.14597    0.00000
   66      0.08876    0.00000
   67      0.42677    0.00000
   68      0.70511    0.00000
   69      0.75827    0.00000
   70      0.85392    0.00000
   71      0.98336    0.00000
   72      1.14791    0.00000
   73      1.80630    0.00000
   74      2.23092    0.00000
   75      3.22657    0.00000
   76      3.47811    0.00000
   77      4.17921    0.00000
   78      4.64600    0.00000
   79      4.77452    0.00000
   80      5.23014    0.00000
   81      5.98362    0.00000
   82      6.24884    0.00000
   83      6.59450    0.00000
   84      6.74255    0.00000
   85      7.03488    0.00000
   86      7.22434    0.00000
   87      7.71949    0.00000
   88      7.84896    0.00000
   89      7.90084    0.00000
   90      8.22015    0.00000
   91      8.37603    0.00000
   92      8.44436    0.00000
   93      8.52355    0.00000
   94      8.82077    0.00000
   95      8.92216    0.00000
   96      9.11097    0.00000
   97      9.23404    0.00000


Forces in eV/Ang:
  0 C    -0.25273    0.16897    0.73459
  1 C     2.39286   -0.03452    0.24799
  2 C    -1.91166   -6.19639    3.07282
  3 C    -0.74336    1.11669   -2.39382
  4 C     1.94366   -1.80548   -2.33294
  5 C    -0.78088   -0.67515   -0.32408
  6 C    -3.61946   -3.39316   -8.75152
  7 C     0.16249   -2.82882   -0.66560
  8 C     2.65084   -1.08544    0.01182
  9 C    -2.63398    1.74858    0.81788
 10 C    -4.88506    3.18151    0.54088
 11 C    -1.08740   -0.01239    0.89103
 12 C     9.93183    4.10767    0.97738
 13 C     3.39118   -3.88200    1.41775
 14 C    -0.90269    4.45085    3.85290
[...]
Entropy (-ST):   -0.141596
Local:           +2.980067
--------------------------
Free energy:   -182.386740
Extrapolated:  -182.315942

Fermi level: -4.13371

 Band  Eigenvalues  Occupancy
    0    -23.42665    2.00000
    1    -23.16513    2.00000
    2    -22.80585    2.00000
    3    -21.24073    2.00000
    4    -20.80526    2.00000
    5    -20.59365    2.00000
    6    -19.80499    2.00000
    7    -19.52393    2.00000
    8    -19.02094    2.00000
    9    -18.19179    2.00000
   10    -18.02552    2.00000
   11    -17.20812    2.00000
   12    -16.27184    2.00000
   13    -15.73818    2.00000
   14    -15.35006    2.00000
   15    -14.85451    2.00000
   16    -14.29117    2.00000
   17    -13.76575    2.00000
   18    -13.36849    2.00000
   19    -12.98658    2.00000
   20    -12.54665    2.00000
   21    -12.47716    2.00000
   22    -11.40011    2.00000
   23    -11.04912    2.00000
   24    -10.86512    2.00000
   25    -10.77050    2.00000
   26    -10.24441    2.00000
   27    -10.14783    2.00000
   28     -9.87896    2.00000
   29     -9.64911    2.00000
   30     -9.58888    2.00000
   31     -9.15079    2.00000
   32     -8.80085    2.00000
   33     -8.69933    2.00000
   34     -8.60286    2.00000
   35     -8.28445    2.00000
   36     -8.10891    2.00000
   37     -7.81957    2.00000
   38     -7.48200    2.00000
   39     -7.16678    2.00000
   40     -6.59524    2.00000
   41     -6.45513    2.00000
   42     -6.27507    2.00000
   43     -5.72823    2.00000
   44     -5.34154    1.99999
   45     -5.26894    1.99998
   46     -4.93958    1.99937
   47     -4.34029    1.77508
   48     -3.92735    0.22537
   49     -3.19197    0.00016
   50     -3.07830    0.00005
   51     -2.78274    0.00000
   52     -2.51868    0.00000
   53     -2.35953    0.00000
   54     -1.88221    0.00000
   55     -1.58909    0.00000
   56     -1.56077    0.00000
   57     -0.39474    0.00000
   58     -0.14077    0.00000
   59      0.52510    0.00000
   60      1.34783    0.00000
   61      1.64243    0.00000
   62      2.07246    0.00000
   63      2.45102    0.00000
   64      2.69254    0.00000
   65      3.05765    0.00000
   66      3.14282    0.00000
   67      3.37775    0.00000
   68      4.15485    0.00000
   69      4.27397    0.00000
   70      4.50623    0.00000
   71      4.82948    0.00000
   72      4.98235    0.00000
   73      5.62453    0.00000
   74      6.39013    0.00000
   75      6.64413    0.00000
   76      6.81221    0.00000
   77      7.38193    0.00000
   78      7.71642    0.00000
   79      7.89194    0.00000
   80      8.10046    0.00000
   81      8.36403    0.00000
   82      8.59232    0.00000
   83      8.71398    0.00000
   84      8.73906    0.00000
   85      9.04450    0.00000
   86      9.16908    0.00000
   87      9.35597    0.00000
   88      9.39994    0.00000
   89      9.50060    0.00000
   90      9.57916    0.00000
   91      9.81341    0.00000
   92      9.89898    0.00000
   93     10.09279    0.00000
   94     10.14054    0.00000
   95     10.18932    0.00000
   96     10.38991    0.00000
   97     10.49211    0.00000


Forces in eV/Ang:
  0 C    -0.06220   -0.00324   -0.07262
  1 C    -0.06278   -0.01750   -0.02665
  2 C     0.02638   -0.06154    0.06388
  3 C    -0.03335    0.02902    0.07270
  4 C     0.06721    0.03604    0.04490
  5 C    -0.04299    0.05281   -0.01928
  6 C     0.10699   -0.01947   -0.10912
  7 C     0.00093   -0.03826   -0.00647
  8 C     0.00873   -0.09795    0.04039
  9 C    -0.06639    0.07771    0.02808
 10 C    -0.05412   -0.00703    0.02659
 11 C     0.04199   -0.09868    0.02478
 12 C    -0.01079    0.05920    0.08824
 13 C    -0.04871   -0.02554   -0.01489
 14 C     0.06588   -0.06519    0.05630
 15 C    -0.26924    0.08840   -0.07331
 16 C     0.17915   -0.01530   -0.11125
 17 C    -0.08854    0.15457   -0.02783
 18 C     0.04545   -0.06866    0.01764
 19 C     0.18393   -0.07728    0.01550
 20 C    -0.05463   -0.12802    0.00955
 21 C     0.02800    0.09123   -0.04798
 22 C    -0.01194    0.11745    0.02071
 23 C    -0.09056    0.11146    0.03532

System changes: positions 

Initializing position-dependent things.

Density initialized from wave functions
           .--------------------------------------.  
          /|                                      |  
         / |                                      |  
        /  |                                      |  
       /   |                                      |  
      /    |                                      |  
     /     |                                      |  
    /      |                                      |  
   /       |                C C                   |  
  /        |             C  C  C C                |  
 *         |        C  C C     C C                |  
 |         |     C      C  C   C  C               |  
 |         .------C--C-----C----------------------.  
 |        /      C    C  C                       /   
 |       /         C                            /    
 |      /                                      /     
 |     /                                      /      
 |    /                                      /       
 |   /                                      /        
 |  /                                      /         
 | /                                      /          
 |/                                      /           
 *--------------------------------------*            

Positions:
   0 C      9.251023    6.256417    5.375329
   1 C      4.945681    7.800336    4.594095
   2 C     11.178570    7.558991    5.664068
   3 C      9.040127   11.779872    5.387355
   4 C     10.674235    6.229518    5.600147
   5 C      7.527782    4.284617    5.020353
   6 C      6.301373   10.752008    4.783086
   7 C      6.309907    7.500373    4.832960
   8 C      8.825288    7.664541    5.302458
   9 C      8.617518   10.364480    5.413531
  10 C      7.507500    8.257090    5.049667
  11 C      5.287176    6.449351    4.610598
  12 C      7.936660   12.510553    4.996422
  13 C      9.937405    9.845051    5.558494
  14 C     10.068708    8.463512    5.506079
  15 C     12.084010    6.460181    5.852080
  16 C     10.361995   11.215519    5.111900
  17 C      7.415842    9.755745    5.020259
  18 C      6.745966   12.088038    4.782296
  19 C      5.156086    5.066755    4.551031
  20 C      5.012713   10.191305    4.623730
  21 C      8.438599    5.146415    5.216884
  22 C      4.408456    9.096307    4.555356
  23 C      6.222304    4.378110    4.744076

Unit cell:
           periodic     x           y           z      points  spacing
  1. axis:    yes   16.000000    0.000000    0.000000    80     0.2000
  2. axis:    yes    0.000000   16.000000    0.000000    80     0.2000
  3. axis:    yes    0.000000    0.000000   10.000000    48     0.2083

Effective grid spacing dv^(1/3) = 0.2027

                     log10-error:    total        iterations:
           time      wfs    density  energy       fermi  poisson
iter:   1  14:43:21          +inf  -182.306486    2      5      
iter:   2  14:43:21         -2.22  -182.316575    2      2      
iter:   3  14:43:22         -2.89  -182.317845    1      1      
iter:   4  14:43:22         -2.98  -182.317263    2      1      
iter:   5  14:43:23         -3.15  -182.313705    2      1      
iter:   6  14:43:23         -3.23  -182.318026    2      1      
iter:   7  14:43:24         -3.52  -182.320823    2      1      
iter:   8  14:43:24         -3.35  -182.318654    2      1      
iter:   9  14:43:25         -3.87  -182.318446    1      1      
iter:  10  14:43:25         -3.90  -182.320133    2      1      
iter:  11  14:43:26         -3.70  -182.318285    2      1      
iter:  12  14:43:26         -4.02  -182.318245    1      1      

Converged after 12 iterations.

Dipole moment: (-0.809042, 0.255683, 0.013227) |e|*Ang

Energy contributions relative to reference atoms: (reference = -24663.074771)

Kinetic:       +111.320077
Potential:     -117.573736
External:        +0.000000
XC:            -178.976049
Entropy (-ST):   -0.147220
Local:           +2.985073
--------------------------
Free energy:   -182.391856
Extrapolated:  -182.318245

Fermi level: -4.12542

 Band  Eigenvalues  Occupancy
    0    -23.42296    2.00000
    1    -23.16182    2.00000
    2    -22.82221    2.00000
    3    -21.24625    2.00000
    4    -20.80804    2.00000
    5    -20.59838    2.00000
    6    -19.80611    2.00000
    7    -19.53192    2.00000
    8    -19.02050    2.00000
    9    -18.19555    2.00000
   10    -18.03063    2.00000
   11    -17.20279    2.00000
   12    -16.26845    2.00000
   13    -15.73822    2.00000
   14    -15.34903    2.00000
   15    -14.85516    2.00000
   16    -14.29231    2.00000
   17    -13.77072    2.00000
   18    -13.37260    2.00000
   19    -12.99143    2.00000
   20    -12.55255    2.00000
   21    -12.49070    2.00000
   22    -11.38964    2.00000
   23    -11.05447    2.00000
   24    -10.86427    2.00000
   25    -10.76545    2.00000
   26    -10.24049    2.00000
   27    -10.14668    2.00000
   28     -9.88692    2.00000
   29     -9.65300    2.00000
   30     -9.58584    2.00000
   31     -9.15434    2.00000
   32     -8.80494    2.00000
   33     -8.70718    2.00000
   34     -8.60321    2.00000
   35     -8.29043    2.00000
   36     -8.10678    2.00000
   37     -7.82076    2.00000
   38     -7.48144    2.00000
   39     -7.17396    2.00000
   40     -6.59328    2.00000
   41     -6.45685    2.00000
   42     -6.27725    2.00000
   43     -5.73141    2.00000
   44     -5.34004    1.99999
   45     -5.27018    1.99998
   46     -4.94710    1.99946
   47     -4.32515    1.76101
   48     -3.92586    0.23933
   49     -3.18839    0.00017
   50     -3.08056    0.00006
   51     -2.77278    0.00000
   52     -2.51197    0.00000
   53     -2.35923    0.00000
   54     -1.87600    0.00000
   55     -1.58122    0.00000
   56     -1.55789    0.00000
   57     -0.39799    0.00000
   58     -0.13313    0.00000
   59      0.52576    0.00000
   60      1.35557    0.00000
   61      1.64478    0.00000
   62      2.07477    0.00000
   63      2.45054    0.00000
   64      2.69736    0.00000
   65      3.07113    0.00000
   66      3.16623    0.00000
   67      3.36970    0.00000
   68      4.18607    0.00000
   69      4.28369    0.00000
   70      4.51524    0.00000
   71      4.82659    0.00000
   72      4.99095    0.00000
   73      5.59649    0.00000
   74      6.36394    0.00000
   75      6.64166    0.00000
   76      6.81594    0.00000
   77      7.38051    0.00000
   78      7.71828    0.00000
   79      7.89964    0.00000
   80      8.11157    0.00000
   81      8.37854    0.00000
   82      8.58760    0.00000
   83      8.71784    0.00000
   84      8.73895    0.00000
   85      9.04448    0.00000
   86      9.16442    0.00000
   87      9.35443    0.00000
   88      9.39573    0.00000
   89      9.50870    0.00000
   90      9.57939    0.00000
   91      9.82019    0.00000
   92      9.89674    0.00000
   93     10.09140    0.00000
   94     10.14101    0.00000
   95     10.19097    0.00000
   96     10.38436    0.00000
   97     10.49772    0.00000


Forces in eV/Ang:
  0 C    -0.01809    0.00491   -0.00591
  1 C    -0.03842   -0.02100   -0.03626
  2 C     0.04336   -0.01636    0.04792
  3 C    -0.01118    0.01391    0.03887
  4 C     0.04121   -0.03021    0.02207
  5 C    -0.03780    0.02500   -0.02363
  6 C     0.04850   -0.01887   -0.05803
  7 C    -0.01155   -0.02449   -0.02729
  8 C     0.00030   -0.04681    0.02453
  9 C    -0.07020    0.03172    0.01273
 10 C    -0.01786   -0.00466    0.01355
 11 C     0.00135   -0.02570    0.02744
 12 C    -0.00922    0.02986    0.06804
 13 C    -0.01182   -0.00957   -0.02008
 14 C     0.03256   -0.01799    0.05850
 15 C    -0.00659   -0.02246   -0.02485
 16 C     0.05566   -0.03993   -0.07388
 17 C    -0.04256    0.04958   -0.00287
 18 C     0.01932   -0.00214    0.00072
 19 C     0.06906   -0.04515   -0.00698
 20 C     0.01642    0.00183   -0.01031
 21 C     0.00718    0.03795   -0.02698
 22 C    -0.04057    0.01353    0.01877
 23 C     0.01093    0.03827    0.01881

System changes: positions 

Initializing position-dependent things.

Density initialized from wave functions
           .--------------------------------------.  
          /|                                      |  
         / |                                      |  
        /  |                                      |  
       /   |                                      |  
      /    |                                      |  
     /     |                                      |  
    /      |                                      |  
   /       |                C C                   |  
  /        |             C  C  C C                |  
 *         |        C  C C     C C                |  
 |         |     C      C  C   C  C               |  
 |         .------C--C-----C----------------------.  
 |        /      C    C  C                       /   
 |       /         C                            /    
 |      /                                      /     
 |     /                                      /      
 |    /                                      /       
 |   /                                      /        
 |  /                                      /         
 | /                                      /          
 |/                                      /           
 *--------------------------------------*            

Positions:
   0 C      9.250780    6.255832    5.372242
   1 C      4.944928    7.798754    4.589344
   2 C     11.179025    7.557348    5.664344
   3 C      9.041725   11.778453    5.387672
   4 C     10.672979    6.227493    5.601601
   5 C      7.526224    4.283557    5.028561
   6 C      6.301740   10.752036    4.783200
   7 C      6.310243    7.499682    4.824957
   8 C      8.825929    7.663093    5.295121
   9 C      8.618784   10.364209    5.406035
  10 C      7.508154    8.256990    5.042147
  11 C      5.287113    6.447587    4.609432
  12 C      7.935361   12.511924    5.010073
  13 C      9.938603    9.843161    5.548405
  14 C     10.070118    8.461115    5.499478
  15 C     12.080157    6.457487    5.861338
  16 C     10.363612   11.214820    5.104439
  17 C      7.416248    9.756505    5.013305
  18 C      6.746221   12.087455    4.794291
  19 C      5.155535    5.064773    4.557319
  20 C      5.012474   10.191093    4.626670
  21 C      8.437416    5.146799    5.216975
  22 C      4.408403    9.095768    4.557097
  23 C      6.220952    4.376574    4.754138

Unit cell:
           periodic     x           y           z      points  spacing
  1. axis:    yes   16.000000    0.000000    0.000000    80     0.2000
  2. axis:    yes    0.000000   16.000000    0.000000    80     0.2000
  3. axis:    yes    0.000000    0.000000   10.000000    48     0.2083

Effective grid spacing dv^(1/3) = 0.2027

                     log10-error:    total        iterations:
           time      wfs    density  energy       fermi  poisson
iter:   1  14:43:28          +inf  -182.320223    2      5      
iter:   2  14:43:28         -3.17  -182.319451    2      1      
iter:   3  14:43:29         -3.24  -182.318485    2      1      
iter:   4  14:43:29         -3.38  -182.318703    2      1      
iter:   5  14:43:30         -3.55  -182.317914    2      1      
iter:   6  14:43:30         -3.78  -182.321718    2      1      
iter:   7  14:43:31         -3.35  -182.319466    2      1      
iter:   8  14:43:31         -4.09  -182.318754    2      1      

Converged after 8 iterations.

Dipole moment: (-0.808597, 0.254743, 0.009913) |e|*Ang

Energy contributions relative to reference atoms: (reference = -24663.074771)

Kinetic:       +111.375711
Potential:     -117.609597
External:        +0.000000
XC:            -178.992936
Entropy (-ST):   -0.147162
Local:           +2.981649
--------------------------
Free energy:   -182.392335
Extrapolated:  -182.318754

Fermi level: -4.12169

 Band  Eigenvalues  Occupancy
    0    -23.42198    2.00000
    1    -23.15852    2.00000
    2    -22.82959    2.00000
    3    -21.24916    2.00000
    4    -20.80952    2.00000
    5    -20.60139    2.00000
    6    -19.80335    2.00000
    7    -19.53579    2.00000
    8    -19.01968    2.00000
    9    -18.19501    2.00000
   10    -18.03478    2.00000
   11    -17.19917    2.00000
   12    -16.26814    2.00000
   13    -15.73981    2.00000
   14    -15.34810    2.00000
   15    -14.85494    2.00000
   16    -14.29344    2.00000
   17    -13.77166    2.00000
   18    -13.37462    2.00000
   19    -12.99268    2.00000
   20    -12.55731    2.00000
   21    -12.49574    2.00000
   22    -11.38550    2.00000
   23    -11.05937    2.00000
   24    -10.86578    2.00000
   25    -10.76105    2.00000
   26    -10.23697    2.00000
   27    -10.14637    2.00000
   28     -9.89110    2.00000
   29     -9.65329    2.00000
   30     -9.58402    2.00000
   31     -9.15654    2.00000
   32     -8.80675    2.00000
   33     -8.71170    2.00000
   34     -8.60442    2.00000
   35     -8.29465    2.00000
   36     -8.10554    2.00000
   37     -7.82377    2.00000
   38     -7.47926    2.00000
   39     -7.17708    2.00000
   40     -6.59163    2.00000
   41     -6.45809    2.00000
   42     -6.27590    2.00000
   43     -5.73156    2.00000
   44     -5.33727    1.99999
   45     -5.27238    1.99998
   46     -4.94963    1.99949
   47     -4.32144    1.76107
   48     -3.92208    0.23923
   49     -3.18404    0.00017
   50     -3.08101    0.00006
   51     -2.76961    0.00000
   52     -2.50921    0.00000
   53     -2.35939    0.00000
   54     -1.87361    0.00000
   55     -1.57897    0.00000
   56     -1.55626    0.00000
   57     -0.40176    0.00000
   58     -0.13047    0.00000
   59      0.52636    0.00000
   60      1.35622    0.00000
   61      1.63981    0.00000
   62      2.07277    0.00000
   63      2.44898    0.00000
   64      2.69786    0.00000
   65      3.07418    0.00000
   66      3.16685    0.00000
   67      3.35871    0.00000
   68      4.19329    0.00000
   69      4.28466    0.00000
   70      4.51527    0.00000
   71      4.82453    0.00000
   72      4.99119    0.00000
   73      5.58392    0.00000
   74      6.35394    0.00000
   75      6.64008    0.00000
   76      6.81536    0.00000
   77      7.38127    0.00000
   78      7.71559    0.00000
   79      7.89867    0.00000
   80      8.11497    0.00000
   81      8.38638    0.00000
   82      8.58432    0.00000
   83      8.71761    0.00000
   84      8.73861    0.00000
   85      9.04323    0.00000
   86      9.16513    0.00000
   87      9.35306    0.00000
   88      9.39440    0.00000
   89      9.51204    0.00000
   90      9.57943    0.00000
   91      9.82099    0.00000
   92      9.89577    0.00000
   93     10.08887    0.00000
   94     10.14170    0.00000
   95     10.19073    0.00000
   96     10.38099    0.00000
   97     10.50103    0.00000


Forces in eV/Ang:
  0 C    -0.01479    0.00220    0.00086
  1 C    -0.01917   -0.00923   -0.01953
  2 C     0.01312   -0.02382    0.03859
  3 C    -0.00033    0.00846    0.03720
  4 C     0.02764   -0.01442    0.02593
  5 C    -0.00563    0.02772   -0.03980
  6 C     0.02161   -0.02507   -0.03496
  7 C    -0.00709   -0.01466   -0.00442
  8 C    -0.01223   -0.01383    0.03529
  9 C    -0.03343   -0.00760    0.00296
 10 C    -0.03360   -0.02038   -0.00463
 11 C    -0.00476   -0.00816    0.01973
 12 C     0.00840    0.05045    0.04204
 13 C    -0.00432   -0.00232   -0.00666
 14 C     0.02004    0.01643    0.05171
 15 C     0.01976   -0.03838   -0.00715
 16 C     0.03849   -0.04883   -0.05839
 17 C    -0.02156    0.01093    0.02363
 18 C    -0.01328    0.04057   -0.01313
 19 C     0.04439   -0.02530   -0.00084
 20 C     0.00481   -0.01690   -0.02459
 21 C    -0.00159    0.00830   -0.01897
 22 C    -0.02417    0.01649    0.01656
 23 C    -0.01496    0.04325    0.02606

