
  ___ ___ ___ _ _ _  
 |   |   |_  | | | | 
 | | | | | . | | | | 
 |__ |  _|___|_____|  1.3.0b1
 |___|_|             

User:   esb@s65n12.grendel.cscaa.dk
Date:   Thu Nov  9 10:43:00 2017
Arch:   x86_64
Pid:    19950
Python: 2.7.13
gpaw:   /home/esb/DFT/gpaw_git/gpaw
_gpaw:  /home/esb/DFT/gpaw_git/build/bin.linux-x86_64-2.7/gpaw-python
ase:    /home/esb/DFT/ase_git/ase (version 3.15.0b1)
numpy:  /comm/swstack/core/python/2.7.13/lib/python2.7/site-packages/numpy (version 1.13.3)
scipy:  /comm/swstack/core/python/2.7.13/lib/python2.7/site-packages/scipy (version 0.19.1)
units:  Angstrom and eV
cores:  16
Extra parameters: {'blacs': True}

Input parameters:
  basis: dzp
  gpts: [80 80 48]
  kpts: [1 1 1]
  maxiter: 99
  mixer: {backend: pulay,
          beta: 0.05,
          method: separate,
          nmaxold: 5,
          weight: 75}
  mode: lcao
  nbands: -50
  occupations: {name: fermi-dirac,
                width: 0.1}
  poissonsolver: {eps: 1e-07,
                  name: fd,
                  nn: 3,
                  relax: GS}
  xc: PBE

System changes: positions, numbers, cell, pbc, initial_charges, initial_magmoms 

Initialize ...

C-setup:
  name: Carbon
  id: 4aa54d4b901d75f77cc0ea3eec22967b
  Z: 6
  valence: 4
  core: 2
  charge: 0.0
  file: /home/esb/DFT/gpaw-setups-0.8.7929/C.PBE.gz
  cutoffs: 0.64(comp), 1.14(filt), 1.14(core), lmax=2
  valence states:
                energy  radius
    2s(2.00)   -13.751   0.635
    2p(2.00)    -5.284   0.635
    *s          13.461   0.635
    *p          21.927   0.635
    *d           0.000   0.635

  LCAO basis set for C:
    Name: dzp
    File: /home/esb/DFT/gpaw-setups-0.8.7929/C.dzp.basis.gz
    Number of radial functions: 5
    Number of spherical harmonics: 13
      l=0, rc=5.5469 Bohr: 2s-sz confined orbital
      l=1, rc=6.6719 Bohr: 2p-sz confined orbital
      l=0, rc=3.0312 Bohr: 2s-dz split-valence wave
      l=1, rc=3.7500 Bohr: 2p-dz split-valence wave
      l=2, rc=6.6719 Bohr: d-type Gaussian polarization

Reference energy: -24663.074771

Spin-paired calculation

Occupation numbers:
  Fermi-Dirac: width=0.1000 eV

Convergence criteria:
  Maximum total energy change: 0.0005 eV / electron
  Maximum integral of absolute density change: 0.0001 electrons
  Maximum integral of absolute eigenstate change: 4e-08 eV^2
  Maximum number of iterations: 99

Symmetries present (total): 1

  ( 1  0  0)
  ( 0  1  0)
  ( 0  0  1)

1 k-point (Gamma)
1 k-point in the irreducible part of the Brillouin zone
       k-points in crystal coordinates                weights
   0:     0.00000000    0.00000000    0.00000000          1/1

Wave functions: LCAO
  Diagonalizer: Serial LAPACK
  Atomic Correction: dense with blas
  Datatype: float
  Eigensolver: None 

LCAO using direct dense diagonalizer 

Densities:
  Coarse grid: 80*80*48 grid
  Fine grid: 160*160*96 grid
  Total Charge: 0.000000 

Density mixing:
  Method: separate
  Backend: pulay
  Linear mixing parameter: 0.05
  Mixing with 5 old densities
  Damping of long wave oscillations: 75 

Hamiltonian:
  XC and Coulomb potentials evaluated on a 160*160*96 grid
  Using the PBE Exchange-Correlation functional
  Interpolation: tri-quintic (5. degree polynomial)
  Poisson solver: Gauss-Seidel solver with 6 multi-grid levels
    Coarsest grid: 5 x 5 x 3 points
    Stencil: 6*3+1=19 point O(h^6) finite-difference Laplacian
    Max iterations: 1000
    Tolerance: 1.000000e-07 

Memory estimate:
  Process memory now: 77.58 MiB
  Calculator: 15.59 MiB
    Density: 6.13 MiB
      Arrays: 3.81 MiB
      Localized functions: 0.86 MiB
      Mixer: 1.46 MiB
    Hamiltonian: 5.40 MiB
      Arrays: 2.49 MiB
      XC: 0.00 MiB
      Poisson: 2.85 MiB
      vbar: 0.07 MiB
    Wavefunctions: 4.05 MiB
      C [qnM]: 0.23 MiB
      S, T [2 x qmm]: 1.49 MiB
      P [aqMi]: 0.01 MiB
      TCI: 0.00 MiB
      BasisFunctions: 2.33 MiB
      Eigensolver: 0.00 MiB

Total number of cores used: 16
Domain decomposition: 2 x 4 x 2

Number of atoms: 24
Number of atomic orbitals: 312
Number of bands in calculation: 98
Bands to converge: occupied states only
Number of valence electrons: 96

... initialized

Initializing position-dependent things.

Density initialized from atomic densities
           .--------------------------------------.  
          /|                                      |  
         / |                                      |  
        /  |                                      |  
       /   |                                      |  
      /    |                                      |  
     /     |                                      |  
    /      |                                      |  
   /       |            C                         |  
  /       C|         C   C                    C   |  
 *         | C C          C                       |  
 |         |      C   C  C C                      |  
 |         .--CC--C-----C-------------------------.  
 |        /   C        C       C                 /   
 |       /      C        C  C                   /    
 |      /          C  C                        /     
 |     /                                      /      
 |    /                                      /       
 |   /                                      /        
 |  /                                      /         
 | /                                      /          
 |/                                      /           
 *--------------------------------------*            

Positions:
   0 C      7.567119    5.330725    4.779731
   1 C     11.052407    5.231061    4.462846
   2 C      8.668653    4.274082    4.628508
   3 C      7.906437    3.027591    4.639161
   4 C     10.005737    4.489879    4.508034
   5 C      7.625917    6.738184    4.833321
   6 C      6.612039    7.816023    4.912455
   7 C      7.656935   10.241733    4.775335
   8 C      7.654213    8.858196    4.828001
   9 C      6.312542   12.498341    4.745992
  10 C      5.041381   12.134258    4.838565
  11 C      8.701647    7.859182    4.774697
  12 C      7.079111   11.370885    4.744714
  13 C      6.741196    2.264913    5.007565
  14 C      4.608842    3.479230    5.519144
  15 C      5.475356    2.547808    5.380250
  16 C      4.277668    4.765506    5.438223
  17 C      5.062943    7.136226    4.972492
  18 C      4.278956    6.028984    5.283401
  19 C      4.733790    8.568184    4.941612
  20 C      1.043271    9.945784    5.354893
  21 C      3.472503    9.088549    5.173458
  22 C     15.796336   10.186026    5.302523
  23 C      2.310062    9.550679    5.322292

Unit cell:
           periodic     x           y           z      points  spacing
  1. axis:    yes   16.000000    0.000000    0.000000    80     0.2000
  2. axis:    yes    0.000000   16.000000    0.000000    80     0.2000
  3. axis:    yes    0.000000    0.000000   10.000000    48     0.2083

Effective grid spacing dv^(1/3) = 0.2027

                     log10-error:    total        iterations:
           time      wfs    density  energy       fermi  poisson
iter:   1  10:43:01          +inf  -173.943580    2      6      
iter:   2  10:43:02         -0.88  -172.264484    3      3      
iter:   3  10:43:02         -0.92  -169.848595    3      3      
iter:   4  10:43:03         -1.03  -169.291212    4      3      
iter:   5  10:43:03         -1.10  -168.561405    34     4      
iter:   6  10:43:04         -1.38  -168.397703    3      2      
iter:   7  10:43:04         -1.48  -168.419593    4      3      
iter:   8  10:43:05         -1.63  -168.370900    3      3      
iter:   9  10:43:05         -1.80  -168.349813    3      2      
iter:  10  10:43:06         -1.89  -168.312294    3      3      
iter:  11  10:43:06         -2.06  -168.309228    3      2      
iter:  12  10:43:07         -2.23  -168.303943    3      2      
iter:  13  10:43:07         -2.41  -168.300745    3      2      
iter:  14  10:43:08         -2.66  -168.296639    3      2      
iter:  15  10:43:08         -2.94  -168.299682    2      1      
iter:  16  10:43:09         -3.05  -168.296875    2      1      
iter:  17  10:43:09         -3.22  -168.290408    2      1      
iter:  18  10:43:10         -3.35  -168.293110    2      1      
iter:  19  10:43:10         -3.45  -168.292606    2      1      
iter:  20  10:43:11         -3.57  -168.293025    2      1      
iter:  21  10:43:11         -3.63  -168.295188    2      1      
iter:  22  10:43:12         -3.78  -168.295448    2      1      
iter:  23  10:43:12         -3.93  -168.294744    2      1      
iter:  24  10:43:12         -4.26  -168.293986    2      1      

Converged after 24 iterations.

Dipole moment: (13.193677, -1.337136, 0.141342) |e|*Ang

Energy contributions relative to reference atoms: (reference = -24663.074771)

Kinetic:        +79.678946
Potential:      -94.857591
External:        +0.000000
XC:            -155.829968
Entropy (-ST):   -0.343779
Local:           +2.886517
--------------------------
Free energy:   -168.465875
Extrapolated:  -168.293986

Fermi level: -5.12476

 Band  Eigenvalues  Occupancy
    0    -23.18439    2.00000
    1    -21.45874    2.00000
    2    -21.12625    2.00000
    3    -20.79367    2.00000
    4    -20.42817    2.00000
    5    -20.26577    2.00000
    6    -19.66208    2.00000
    7    -18.92324    2.00000
    8    -18.62259    2.00000
    9    -18.26384    2.00000
   10    -17.90494    2.00000
   11    -17.47179    2.00000
   12    -16.51049    2.00000
   13    -16.46129    2.00000
   14    -15.69810    2.00000
   15    -15.30645    2.00000
   16    -14.86454    2.00000
   17    -14.39536    2.00000
   18    -13.73093    2.00000
   19    -13.35324    2.00000
   20    -13.19843    2.00000
   21    -12.57737    2.00000
   22    -11.36417    2.00000
   23    -10.58760    2.00000
   24    -10.56920    2.00000
   25    -10.15830    2.00000
   26     -9.90139    2.00000
   27     -9.64106    2.00000
   28     -9.44082    2.00000
   29     -9.09548    2.00000
   30     -8.70166    2.00000
   31     -8.65740    2.00000
   32     -8.50289    2.00000
   33     -8.29698    2.00000
   34     -7.89306    2.00000
   35     -7.56023    2.00000
   36     -6.79317    2.00000
   37     -6.77889    2.00000
   38     -6.67845    2.00000
   39     -6.47136    2.00000
   40     -6.39123    1.99999
   41     -6.16122    1.99994
   42     -5.98797    1.99964
   43     -5.91070    1.99923
   44     -5.63789    1.98825
   45     -5.46024    1.93252
   46     -5.35374    1.81605
   47     -5.28008    1.65073
   48     -5.02527    0.53987
   49     -4.77738    0.06013
   50     -4.62513    0.01343
   51     -4.20624    0.00021
   52     -3.81366    0.00000
   53     -3.44464    0.00000
   54     -3.16822    0.00000
   55     -2.71421    0.00000
   56     -1.91156    0.00000
   57     -1.76647    0.00000
   58     -1.51444    0.00000
   59     -1.00597    0.00000
   60     -0.56739    0.00000
   61     -0.50254    0.00000
   62     -0.28637    0.00000
   63      0.01255    0.00000
   64      0.69854    0.00000
   65      1.00340    0.00000
   66      1.16400    0.00000
   67      2.92373    0.00000
   68      3.04500    0.00000
   69      3.28322    0.00000
   70      3.59139    0.00000
   71      3.73931    0.00000
   72      4.06078    0.00000
   73      4.33235    0.00000
   74      4.60072    0.00000
   75      5.29145    0.00000
   76      5.70258    0.00000
   77      5.73510    0.00000
   78      6.53808    0.00000
   79      6.92651    0.00000
   80      7.06437    0.00000
   81      7.54319    0.00000
   82      7.86621    0.00000
   83      8.03599    0.00000
   84      8.15095    0.00000
   85      8.35457    0.00000
   86      8.45816    0.00000
   87      8.47940    0.00000
   88      8.71791    0.00000
   89      8.91339    0.00000
   90      9.05704    0.00000
   91      9.20635    0.00000
   92      9.35890    0.00000
   93      9.46888    0.00000
   94      9.56841    0.00000
   95      9.60702    0.00000
   96      9.72123    0.00000
   97      9.81275    0.00000


Forces in eV/Ang:
  0 C     3.16765    1.47818   -0.22750
  1 C     1.51154    0.78146   -0.08695
  2 C    -3.40033    0.20499    0.33384
  3 C    -6.06166   -2.84569    2.06637
  4 C    -0.83008   -0.10093    0.04080
  5 C     0.52698   -4.27062   -0.22939
  6 C    -0.86690   -4.24389   -0.00422
  7 C     0.10564   -0.77045    0.04771
  8 C     0.58764    2.19563   -0.13825
  9 C    -0.20682   -0.87649    0.03295
 10 C    -0.25722    0.81370   -0.01045
 11 C    -1.28945   -0.49038    0.15211
 12 C    -0.09659    0.30459    0.03594
 13 C     5.53022    4.05812   -1.54649
 14 C    -0.55854   -0.11741    0.01352
 15 C     0.90859    0.25528   -0.44728
 16 C     0.47611   -0.98657    0.11880
 17 C     1.02379    5.66317    0.23348
 18 C     1.49575    0.65704   -0.45176
 19 C    -4.42903   -1.67788    0.79978
 20 C     3.55710   -0.81201    0.24079
 21 C     4.61547   -1.23561   -0.72169
 22 C    -3.18525    0.70531   -0.08231
 23 C    -2.32042    1.23889   -0.09300

System changes: positions 

Initializing position-dependent things.

Density initialized from wave functions
           .--------------------------------------.  
          /|                                      |  
         / |                                      |  
        /  |                                      |  
       /   |                                      |  
      /    |                                      |  
     /     |                                      |  
    /      |                                      |  
   /       |            C                         |  
  /       C|         C   C                    C   |  
 *         | C C          C                       |  
 |         |      C   C  C C                      |  
 |         .--CC--C-----C-------------------------.  
 |        /   C        C       C                 /   
 |       /      C        C  C                   /    
 |      /          C  C                        /     
 |     /                                      /      
 |    /                                      /       
 |   /                                      /        
 |  /                                      /         
 | /                                      /          
 |/                                      /           
 *--------------------------------------*            

Positions:
   0 C      7.585139    5.339134    4.778437
   1 C     11.061006    5.235506    4.462351
   2 C      8.649310    4.275248    4.630407
   3 C      7.871955    3.011403    4.650916
   4 C     10.001015    4.489305    4.508266
   5 C      7.628914    6.713890    4.832017
   6 C      6.607108    7.791881    4.912431
   7 C      7.657535   10.237351    4.775607
   8 C      7.657556    8.870686    4.827214
   9 C      6.311366   12.493355    4.746179
  10 C      5.039918   12.138887    4.838505
  11 C      8.694312    7.856392    4.775563
  12 C      7.078561   11.372618    4.744918
  13 C      6.772656    2.287998    4.998767
  14 C      4.605665    3.478562    5.519221
  15 C      5.480525    2.549260    5.377705
  16 C      4.280376    4.759894    5.438899
  17 C      5.068767    7.168441    4.973820
  18 C      4.287465    6.032722    5.280831
  19 C      4.708595    8.558639    4.946161
  20 C      1.063506    9.941164    5.356262
  21 C      3.498758    9.081520    5.169352
  22 C     15.778216   10.190038    5.302055
  23 C      2.296862    9.557727    5.321763

Unit cell:
           periodic     x           y           z      points  spacing
  1. axis:    yes   16.000000    0.000000    0.000000    80     0.2000
  2. axis:    yes    0.000000   16.000000    0.000000    80     0.2000
  3. axis:    yes    0.000000    0.000000   10.000000    48     0.2083

Effective grid spacing dv^(1/3) = 0.2027

                     log10-error:    total        iterations:
           time      wfs    density  energy       fermi  poisson
iter:   1  10:43:14          +inf  -170.022298    4      5      
iter:   2  10:43:14         -1.65  -169.806063    3      2      
iter:   3  10:43:15         -1.84  -169.671104    3      2      
iter:   4  10:43:15         -2.13  -169.656729    3      2      
iter:   5  10:43:16         -2.25  -169.645487    2      2      
iter:   6  10:43:16         -2.36  -169.642206    2      2      
iter:   7  10:43:17         -2.50  -169.642418    2      2      
iter:   8  10:43:17         -2.62  -169.641716    2      2      
iter:   9  10:43:18         -2.79  -169.641454    2      2      
iter:  10  10:43:18         -2.91  -169.640363    2      2      
iter:  11  10:43:19         -3.30  -169.639912    2      1      
iter:  12  10:43:19         -3.43  -169.640354    2      1      
iter:  13  10:43:20         -3.56  -169.640778    2      1      
iter:  14  10:43:20         -3.66  -169.640354    2      1      
iter:  15  10:43:21         -3.91  -169.640779    2      1      
iter:  16  10:43:21         -4.03  -169.640911    2      1      

Converged after 16 iterations.

Dipole moment: (14.206531, -1.205722, 0.151233) |e|*Ang

Energy contributions relative to reference atoms: (reference = -24663.074771)

Kinetic:        +78.825417
Potential:      -94.928101
External:        +0.000000
XC:            -156.287703
Entropy (-ST):   -0.290294
Local:           +2.894623
--------------------------
Free energy:   -169.786058
Extrapolated:  -169.640911

Fermi level: -5.03454

 Band  Eigenvalues  Occupancy
    0    -22.96814    2.00000
    1    -21.38184    2.00000
    2    -21.16144    2.00000
    3    -20.74278    2.00000
    4    -20.39264    2.00000
    5    -20.24955    2.00000
    6    -19.71704    2.00000
    7    -18.93045    2.00000
    8    -18.70330    2.00000
    9    -18.24533    2.00000
   10    -17.88257    2.00000
   11    -17.32984    2.00000
   12    -16.67625    2.00000
   13    -16.46518    2.00000
   14    -15.66608    2.00000
   15    -15.24627    2.00000
   16    -14.94109    2.00000
   17    -14.30859    2.00000
   18    -13.72534    2.00000
   19    -13.29162    2.00000
   20    -13.16525    2.00000
   21    -12.52479    2.00000
   22    -11.37730    2.00000
   23    -10.63973    2.00000
   24    -10.50191    2.00000
   25    -10.17328    2.00000
   26     -9.78882    2.00000
   27     -9.62118    2.00000
   28     -9.47646    2.00000
   29     -9.08667    2.00000
   30     -8.79579    2.00000
   31     -8.66048    2.00000
   32     -8.43670    2.00000
   33     -8.20111    2.00000
   34     -7.90270    2.00000
   35     -7.66672    2.00000
   36     -6.87103    2.00000
   37     -6.76907    2.00000
   38     -6.62193    2.00000
   39     -6.52163    2.00000
   40     -6.36284    2.00000
   41     -6.12529    1.99996
   42     -6.04904    1.99992
   43     -5.95668    1.99980
   44     -5.86703    1.99952
   45     -5.40549    1.95220
   46     -5.26937    1.82561
   47     -5.22240    1.73490
   48     -4.90861    0.44220
   49     -4.64485    0.03980
   50     -4.44764    0.00564
   51     -4.19518    0.00045
   52     -3.58746    0.00000
   53     -3.42535    0.00000
   54     -2.97476    0.00000
   55     -2.63069    0.00000
   56     -1.90465    0.00000
   57     -1.68308    0.00000
   58     -1.52979    0.00000
   59     -1.16597    0.00000
   60     -0.53170    0.00000
   61     -0.46771    0.00000
   62     -0.21399    0.00000
   63      0.03302    0.00000
   64      0.76521    0.00000
   65      1.22344    0.00000
   66      1.30459    0.00000
   67      2.81621    0.00000
   68      2.95057    0.00000
   69      3.30982    0.00000
   70      3.57297    0.00000
   71      3.78664    0.00000
   72      4.02601    0.00000
   73      4.51721    0.00000
   74      4.76965    0.00000
   75      5.42663    0.00000
   76      5.63186    0.00000
   77      5.79355    0.00000
   78      6.65173    0.00000
   79      7.03604    0.00000
   80      7.14255    0.00000
   81      7.41113    0.00000
   82      7.83964    0.00000
   83      8.02615    0.00000
   84      8.20241    0.00000
   85      8.39981    0.00000
   86      8.45694    0.00000
   87      8.62813    0.00000
   88      8.80613    0.00000
   89      8.93317    0.00000
   90      9.06910    0.00000
   91      9.24979    0.00000
   92      9.44769    0.00000
   93      9.51139    0.00000
   94      9.64700    0.00000
   95      9.74039    0.00000
   96      9.77132    0.00000
   97      9.91747    0.00000


Forces in eV/Ang:
  0 C     2.96272    0.75955   -0.23867
  1 C     0.80516    0.31268   -0.04213
  2 C    -2.85903   -0.25998    0.17583
  3 C    -3.80247   -1.55957    1.55886
  4 C    -0.90308    0.22434    0.08919
  5 C     0.50262   -2.70803   -0.16030
  6 C    -0.43278   -4.05374   -0.08653
  7 C    -0.07060    0.18360    0.01442
  8 C     0.11856    0.63849   -0.09450
  9 C    -0.22851   -0.70390    0.02188
 10 C    -0.33201    0.80413   -0.00868
 11 C    -1.36843   -0.43566    0.15815
 12 C     0.16162   -0.19212    0.04574
 13 C     3.20697    3.18937   -0.91855
 14 C     0.23810   -1.29225   -0.05998
 15 C     0.73923    0.55541   -0.42982
 16 C     0.34133    0.80340   -0.08416
 17 C     1.70720    4.37757    0.31038
 18 C     1.62883    0.09870   -0.41177
 19 C    -3.84595   -1.36718    0.66933
 20 C    -0.42418    0.11835    0.19429
 21 C     1.07229    0.29163   -0.25774
 22 C    -0.84566    0.24987    0.01926
 23 C     1.58744   -0.12146   -0.42935

System changes: positions 

Initializing position-dependent things.

Density initialized from wave functions
           .--------------------------------------.  
          /|                                      |  
         / |                                      |  
        /  |                                      |  
       /   |                                      |  
      /    |                                      |  
     /     |                                      |  
    /      |                                      |  
   /       |            C                         |  
  /       C|         C   C                    C   |  
 *         | C C          C                       |  
 |         |      C   C  C C                      |  
 |         .--CC--C-----C-------------------------.  
 |        /   C        C       C                 /   
 |       /      C        C  C                   /    
 |      /          C  C                        /     
 |     /                                      /      
 |    /                                      /       
 |   /                                      /        
 |  /                                      /         
 | /                                      /          
 |/                                      /           
 *--------------------------------------*            

Positions:
   0 C      7.610442    5.345384    4.776388
   1 C     11.067650    5.238017    4.462006
   2 C      8.625014    4.272855    4.631857
   3 C      7.840190    2.998503    4.664088
   4 C      9.993254    4.491342    4.509048
   5 C      7.633211    6.691251    4.830668
   6 C      6.603555    7.757227    4.911661
   7 C      7.656868   10.239263    4.775719
   8 C      7.658404    8.875600    4.826420
   9 C      6.309401   12.487387    4.746362
  10 C      5.037047   12.145771    4.838432
  11 C      8.682563    7.852680    4.776919
  12 C      7.080038   11.370795    4.745313
  13 C      6.799297    2.315006    4.991123
  14 C      4.607988    3.467074    5.518681
  15 C      5.486796    2.554124    5.374030
  16 C      4.283252    4.767413    5.438106
  17 C      5.083634    7.205479    4.976506
  18 C      4.301464    6.033368    5.277318
  19 C      4.675861    8.547040    4.951848
  20 C      1.058455    9.942510    5.357910
  21 C      3.506681    9.084562    5.167310
  22 C     15.771806   10.192016    5.302256
  23 C      2.311851    9.556202    5.317965

Unit cell:
           periodic     x           y           z      points  spacing
  1. axis:    yes   16.000000    0.000000    0.000000    80     0.2000
  2. axis:    yes    0.000000   16.000000    0.000000    80     0.2000
  3. axis:    yes    0.000000    0.000000   10.000000    48     0.2083

Effective grid spacing dv^(1/3) = 0.2027

                     log10-error:    total        iterations:
           time      wfs    density  energy       fermi  poisson
iter:   1  10:43:23          +inf  -171.065776    3      5      
iter:   2  10:43:23         -1.60  -170.795540    3      2      
iter:   3  10:43:24         -1.80  -170.634191    3      2      
iter:   4  10:43:24         -2.14  -170.615552    2      2      
iter:   5  10:43:25         -2.27  -170.602808    2      2      
iter:   6  10:43:25         -2.42  -170.601690    2      2      
iter:   7  10:43:26         -2.53  -170.600425    2      2      
iter:   8  10:43:26         -2.72  -170.600865    2      2      
iter:   9  10:43:27         -2.81  -170.599469    3      2      
iter:  10  10:43:27         -3.07  -170.600058    2      2      
iter:  11  10:43:27         -3.30  -170.598815    2      1      
iter:  12  10:43:28         -3.48  -170.599807    2      1      
iter:  13  10:43:28         -3.60  -170.600447    2      1      
iter:  14  10:43:29         -3.79  -170.600460    2      1      
iter:  15  10:43:29         -3.87  -170.600964    2      1      
iter:  16  10:43:30         -4.01  -170.601430    2      1      

Converged after 16 iterations.

Dipole moment: (14.477233, -1.165879, 0.144797) |e|*Ang

Energy contributions relative to reference atoms: (reference = -24663.074771)

Kinetic:        +84.456790
Potential:      -99.811638
External:        +0.000000
XC:            -158.041435
Entropy (-ST):   -0.259038
Local:           +2.924372
--------------------------
Free energy:   -170.730948
Extrapolated:  -170.601430

Fermi level: -5.02949

 Band  Eigenvalues  Occupancy
    0    -22.91830    2.00000
    1    -21.42465    2.00000
    2    -21.27674    2.00000
    3    -20.73979    2.00000
    4    -20.40611    2.00000
    5    -20.24180    2.00000
    6    -19.76736    2.00000
    7    -18.97455    2.00000
    8    -18.79808    2.00000
    9    -18.34299    2.00000
   10    -17.94049    2.00000
   11    -17.24972    2.00000
   12    -16.82040    2.00000
   13    -16.48278    2.00000
   14    -15.69635    2.00000
   15    -15.21227    2.00000
   16    -14.92018    2.00000
   17    -14.27344    2.00000
   18    -13.75229    2.00000
   19    -13.29817    2.00000
   20    -13.17751    2.00000
   21    -12.54020    2.00000
   22    -11.52730    2.00000
   23    -10.78547    2.00000
   24    -10.53931    2.00000
   25    -10.27393    2.00000
   26     -9.74584    2.00000
   27     -9.65544    2.00000
   28     -9.55379    2.00000
   29     -9.09737    2.00000
   30     -8.88388    2.00000
   31     -8.68411    2.00000
   32     -8.43016    2.00000
   33     -8.17450    2.00000
   34     -7.96049    2.00000
   35     -7.74154    2.00000
   36     -6.97989    2.00000
   37     -6.80252    2.00000
   38     -6.63529    2.00000
   39     -6.57906    2.00000
   40     -6.37065    2.00000
   41     -6.15174    1.99997
   42     -6.08850    1.99995
   43     -5.97113    1.99984
   44     -5.91087    1.99970
   45     -5.42013    1.96057
   46     -5.29474    1.86833
   47     -5.22392    1.74964
   48     -4.88896    0.39395
   49     -4.59239    0.02496
   50     -4.36075    0.00249
   51     -4.21937    0.00061
   52     -3.48161    0.00000
   53     -3.35046    0.00000
   54     -2.69613    0.00000
   55     -2.53431    0.00000
   56     -1.83201    0.00000
   57     -1.63967    0.00000
   58     -1.46922    0.00000
   59     -1.12770    0.00000
   60     -0.55818    0.00000
   61     -0.33646    0.00000
   62     -0.11565    0.00000
   63      0.04353    0.00000
   64      0.88762    0.00000
   65      1.24139    0.00000
   66      1.65287    0.00000
   67      2.72042    0.00000
   68      2.93433    0.00000
   69      3.32858    0.00000
   70      3.59550    0.00000
   71      3.83148    0.00000
   72      4.09794    0.00000
   73      4.59968    0.00000
   74      4.93113    0.00000
   75      5.49415    0.00000
   76      5.69140    0.00000
   77      5.79632    0.00000
   78      6.62646    0.00000
   79      6.94717    0.00000
   80      7.11512    0.00000
   81      7.16712    0.00000
   82      7.68095    0.00000
   83      7.94043    0.00000
   84      8.21186    0.00000
   85      8.37808    0.00000
   86      8.41736    0.00000
   87      8.61763    0.00000
   88      8.89109    0.00000
   89      8.92820    0.00000
   90      9.05851    0.00000
   91      9.41226    0.00000
   92      9.49728    0.00000
   93      9.57407    0.00000
   94      9.74925    0.00000
   95      9.77356    0.00000
   96      9.79140    0.00000
   97      9.92777    0.00000


Forces in eV/Ang:
  0 C     2.60303   -0.02514   -0.22217
  1 C     0.20013   -0.06927   -0.01772
  2 C    -1.98367   -0.66898    0.07207
  3 C    -0.61234    0.33064    0.65662
  4 C    -1.04884    0.46736    0.13195
  5 C     0.47998   -1.25895   -0.08406
  6 C    -0.27000   -3.50285   -0.14729
  7 C     0.03084   -0.07295    0.02132
  8 C    -0.36556   -0.27170   -0.05897
  9 C    -0.18034   -0.63904    0.01360
 10 C    -0.39352    0.79512   -0.00643
 11 C    -1.16958   -0.40374    0.11552
 12 C     0.02674    0.06959    0.03994
 13 C     0.23571    1.44149   -0.04739
 14 C     0.18357   -0.78619   -0.09375
 15 C     0.76186    0.44268   -0.41842
 16 C     0.43812    0.59204   -0.09512
 17 C     2.17273    2.98228    0.37959
 18 C     1.80752    0.36806   -0.47346
 19 C    -2.91469   -1.01089    0.50939
 20 C     0.78655   -0.23030    0.12587
 21 C     0.28358    0.67508   -0.13752
 22 C    -0.71965    0.21726    0.02628
 23 C    -0.39647    0.53213   -0.27046

System changes: positions 

Initializing position-dependent things.

Density initialized from wave functions
           .--------------------------------------.  
          /|                                      |  
         / |                                      |  
        /  |                                      |  
       /   |                                      |  
      /    |                                      |  
     /     |                                      |  
    /      |                                      |  
   /       |                                      |  
  /       C|         C  CC                    C   |  
 *         | C C          C                       |  
 |         |      C   C  C C                      |  
 |         .--CC--------C-------------------------.  
 |        /   C        C       C                 /   
 |       /      C        C  C                   /    
 |      /          C  C                        /     
 |     /                                      /      
 |    /                                      /       
 |   /                                      /        
 |  /                                      /         
 | /                                      /          
 |/                                      /           
 *--------------------------------------*            

Positions:
   0 C      7.638338    5.345695    4.774017
   1 C     11.070206    5.237553    4.461802
   2 C      8.603298    4.266051    4.632692
   3 C      7.831282    3.000578    4.671748
   4 C      9.982238    4.496131    4.510417
   5 C      7.638320    6.676846    4.829720
   6 C      6.600596    7.719627    4.910140
   7 C      7.657096   10.238784    4.775936
   8 C      7.654880    8.873324    4.825769
   9 C      6.307446   12.480569    4.746513
  10 C      5.032915   12.154214    4.838362
  11 C      8.669983    7.848375    4.778180
  12 C      7.080455   11.371275    4.745743
  13 C      6.804024    2.331655    4.989963
  14 C      4.610051    3.458214    5.517707
  15 C      5.494846    2.558940    5.369582
  16 C      4.287809    4.774027    5.437088
  17 C      5.106367    7.238150    4.980484
  18 C      4.320508    6.037003    5.272348
  19 C      4.644225    8.536050    4.957372
  20 C      1.065454    9.940434    5.359297
  21 C      3.510020    9.091547    5.165794
  22 C     15.764276   10.194308    5.302538
  23 C      2.309617    9.561192    5.314936

Unit cell:
           periodic     x           y           z      points  spacing
  1. axis:    yes   16.000000    0.000000    0.000000    80     0.2000
  2. axis:    yes    0.000000   16.000000    0.000000    80     0.2000
  3. axis:    yes    0.000000    0.000000   10.000000    48     0.2083

Effective grid spacing dv^(1/3) = 0.2027

                     log10-error:    total        iterations:
           time      wfs    density  energy       fermi  poisson
iter:   1  10:43:31          +inf  -171.504840    4      5      
iter:   2  10:43:32         -1.70  -171.331203    3      2      
iter:   3  10:43:32         -1.91  -171.222304    3      2      
iter:   4  10:43:33         -2.27  -171.218251    3      2      
iter:   5  10:43:33         -2.39  -171.205253    2      1      
iter:   6  10:43:34         -2.50  -171.203200    2      2      
iter:   7  10:43:34         -2.65  -171.203698    2      1      
iter:   8  10:43:35         -2.75  -171.205392    2      2      
iter:   9  10:43:35         -2.96  -171.202956    2      1      
iter:  10  10:43:36         -3.05  -171.205641    2      2      
iter:  11  10:43:36         -3.27  -171.202182    2      1      
iter:  12  10:43:37         -3.59  -171.204301    2      1      
iter:  13  10:43:37         -3.69  -171.206479    2      1      
iter:  14  10:43:37         -3.78  -171.205516    2      1      
iter:  15  10:43:38         -3.82  -171.206886    2      1      
iter:  16  10:43:38         -4.07  -171.205960    2      1      

Converged after 16 iterations.

Dipole moment: (14.794533, -1.111567, 0.147141) |e|*Ang

Energy contributions relative to reference atoms: (reference = -24663.074771)

Kinetic:        +89.857731
Potential:     -104.285178
External:        +0.000000
XC:            -159.592095
Entropy (-ST):   -0.242593
Local:           +2.934879
--------------------------
Free energy:   -171.327257
Extrapolated:  -171.205960

Fermi level: -4.98094

 Band  Eigenvalues  Occupancy
    0    -22.90575    2.00000
    1    -21.50379    2.00000
    2    -21.34531    2.00000
    3    -20.75469    2.00000
    4    -20.42874    2.00000
    5    -20.26593    2.00000
    6    -19.78934    2.00000
    7    -18.96959    2.00000
    8    -18.86284    2.00000
    9    -18.36999    2.00000
   10    -17.92105    2.00000
   11    -17.22714    2.00000
   12    -16.93641    2.00000
   13    -16.42963    2.00000
   14    -15.69097    2.00000
   15    -15.24157    2.00000
   16    -14.92285    2.00000
   17    -14.30776    2.00000
   18    -13.73175    2.00000
   19    -13.29182    2.00000
   20    -13.17676    2.00000
   21    -12.59189    2.00000
   22    -11.67382    2.00000
   23    -10.84888    2.00000
   24    -10.57996    2.00000
   25    -10.34560    2.00000
   26     -9.73384    2.00000
   27     -9.71031    2.00000
   28     -9.56219    2.00000
   29     -9.11942    2.00000
   30     -9.03355    2.00000
   31     -8.69920    2.00000
   32     -8.39812    2.00000
   33     -8.17344    2.00000
   34     -7.96887    2.00000
   35     -7.78020    2.00000
   36     -7.10611    2.00000
   37     -6.79064    2.00000
   38     -6.62870    2.00000
   39     -6.57844    2.00000
   40     -6.33804    2.00000
   41     -6.26429    1.99999
   42     -6.10856    1.99997
   43     -5.92443    1.99984
   44     -5.90790    1.99981
   45     -5.38756    1.96629
   46     -5.28482    1.90859
   47     -5.16848    1.73416
   48     -4.83199    0.36799
   49     -4.51360    0.01851
   50     -4.36441    0.00419
   51     -4.17601    0.00064
   52     -3.42165    0.00000
   53     -3.27414    0.00000
   54     -2.59646    0.00000
   55     -2.41134    0.00000
   56     -1.80055    0.00000
   57     -1.58214    0.00000
   58     -1.45150    0.00000
   59     -1.14957    0.00000
   60     -0.57958    0.00000
   61     -0.27587    0.00000
   62     -0.04722    0.00000
   63      0.10875    0.00000
   64      0.93026    0.00000
   65      1.30877    0.00000
   66      2.02330    0.00000
   67      2.66413    0.00000
   68      2.97527    0.00000
   69      3.43153    0.00000
   70      3.66835    0.00000
   71      3.92213    0.00000
   72      4.21084    0.00000
   73      4.78789    0.00000
   74      5.11009    0.00000
   75      5.55708    0.00000
   76      5.76454    0.00000
   77      5.81938    0.00000
   78      6.58191    0.00000
   79      6.91878    0.00000
   80      7.08241    0.00000
   81      7.15602    0.00000
   82      7.60333    0.00000
   83      7.93957    0.00000
   84      8.26167    0.00000
   85      8.34282    0.00000
   86      8.38564    0.00000
   87      8.60122    0.00000
   88      8.88086    0.00000
   89      8.98167    0.00000
   90      9.04447    0.00000
   91      9.46851    0.00000
   92      9.50896    0.00000
   93      9.65112    0.00000
   94      9.77258    0.00000
   95      9.82773    0.00000
   96      9.86160    0.00000
   97      9.94208    0.00000


Forces in eV/Ang:
  0 C     2.06845   -0.35935   -0.18211
  1 C    -0.23894   -0.32868    0.00129
  2 C    -1.03908   -0.74229   -0.02127
  3 C     0.36618    0.71085    0.32601
  4 C    -0.96399    0.62764    0.13113
  5 C     0.45360   -0.54475   -0.03066
  6 C    -0.12910   -2.75898   -0.16576
  7 C    -0.01835   -0.21884    0.02382
  8 C    -0.68731   -0.64375   -0.03632
  9 C    -0.23708   -0.46812    0.01048
 10 C    -0.45233    0.80773    0.00188
 11 C    -0.82973   -0.34338    0.09417
 12 C     0.11004   -0.11317    0.04087
 13 C    -0.47308    0.67346    0.17706
 14 C    -0.06026   -0.15755   -0.09581
 15 C     0.46728    0.38938   -0.31424
 16 C     0.55011    0.39897   -0.10660
 17 C     2.34113    1.54903    0.41676
 18 C     1.94508    0.47019   -0.49317
 19 C    -2.18949   -0.59741    0.38844
 20 C    -0.43351    0.06644    0.11288
 21 C    -0.73730    1.10875    0.01837
 22 C     0.05563    0.06094    0.06944
 23 C     0.05256    0.38534   -0.27661

System changes: positions 

Initializing position-dependent things.

Density initialized from wave functions
           .--------------------------------------.  
          /|                                      |  
         / |                                      |  
        /  |                                      |  
       /   |                                      |  
      /    |                                      |  
     /     |                                      |  
    /      |                                      |  
   /       |                                      |  
  /       C|         C  CC                    C   |  
 *         | C C          C                       |  
 |         |      C   C  C C                      |  
 |         .--CC--------C-------------------------.  
 |        /   C        C       C                 /   
 |       /      C        C  C                   /    
 |      /          C  C                        /     
 |     /                                      /      
 |    /                                      /       
 |   /                                      /        
 |  /                                      /         
 | /                                      /          
 |/                                      /           
 *--------------------------------------*            

Positions:
   0 C      7.667618    5.343366    4.771513
   1 C     11.069175    5.234507    4.461703
   2 C      8.586620    4.257390    4.632844
   3 C      7.826836    3.004784    4.678671
   4 C      9.969435    4.503752    4.512055
   5 C      7.644606    6.664239    4.829051
   6 C      6.597836    7.680576    4.908116
   7 C      7.656943   10.234725    4.776303
   8 C      7.647114    8.868680    4.825137
   9 C      6.304149   12.473770    4.746689
  10 C      5.026960   12.165296    4.838381
  11 C      8.658398    7.843531    4.779537
  12 C      7.081793   11.370045    4.746297
  13 C      6.806712    2.345454    4.989785
  14 C      4.608045    3.457025    5.516576
  15 C      5.501467    2.563990    5.365235
  16 C      4.295375    4.776995    5.435975
  17 C      5.136446    7.263947    4.985935
  18 C      4.346578    6.043841    5.265650
  19 C      4.611638    8.526729    4.963187
  20 C      1.063698    9.940488    5.361041
  21 C      3.507060    9.103563    5.165081
  22 C     15.761053   10.195932    5.303313
  23 C      2.307688    9.567453    5.311401

Unit cell:
           periodic     x           y           z      points  spacing
  1. axis:    yes   16.000000    0.000000    0.000000    80     0.2000
  2. axis:    yes    0.000000   16.000000    0.000000    80     0.2000
  3. axis:    yes    0.000000    0.000000   10.000000    48     0.2083

Effective grid spacing dv^(1/3) = 0.2027

                     log10-error:    total        iterations:
           time      wfs    density  energy       fermi  poisson
iter:   1  10:43:40          +inf  -171.908563    3      5      
iter:   2  10:43:40         -1.78  -171.778121    3      2      
iter:   3  10:43:41         -1.99  -171.700101    3      2      
iter:   4  10:43:41         -2.32  -171.696922    2      2      
iter:   5  10:43:42         -2.45  -171.685699    2      1      
iter:   6  10:43:42         -2.55  -171.682887    2      2      
iter:   7  10:43:43         -2.70  -171.683534    2      1      
iter:   8  10:43:43         -2.80  -171.685850    2      2      
iter:   9  10:43:44         -3.03  -171.683784    2      1      
iter:  10  10:43:44         -3.11  -171.686222    2      2      
iter:  11  10:43:45         -3.30  -171.682261    2      1      
iter:  12  10:43:45         -3.62  -171.685148    2      1      
iter:  13  10:43:46         -3.73  -171.687164    2      1      
iter:  14  10:43:46         -3.84  -171.686380    2      1      
iter:  15  10:43:47         -3.95  -171.687746    2      1      
iter:  16  10:43:47         -3.90  -171.686121    2      1      
iter:  17  10:43:47         -4.33  -171.686049    1      1      

Converged after 17 iterations.

Dipole moment: (14.882271, -1.097147, 0.147408) |e|*Ang

Energy contributions relative to reference atoms: (reference = -24663.074771)

Kinetic:        +95.354117
Potential:     -108.756965
External:        +0.000000
XC:            -161.104171
Entropy (-ST):   -0.233682
Local:           +2.937811
--------------------------
Free energy:   -171.802890
Extrapolated:  -171.686049

Fermi level: -4.94313

 Band  Eigenvalues  Occupancy
    0    -22.92289    2.00000
    1    -21.58074    2.00000
    2    -21.42812    2.00000
    3    -20.79693    2.00000
    4    -20.47713    2.00000
    5    -20.26481    2.00000
    6    -19.80616    2.00000
    7    -18.97970    2.00000
    8    -18.94790    2.00000
    9    -18.38325    2.00000
   10    -17.90933    2.00000
   11    -17.27066    2.00000
   12    -17.03305    2.00000
   13    -16.42647    2.00000
   14    -15.70576    2.00000
   15    -15.29930    2.00000
   16    -14.91673    2.00000
   17    -14.37613    2.00000
   18    -13.72048    2.00000
   19    -13.30492    2.00000
   20    -13.19188    2.00000
   21    -12.70028    2.00000
   22    -11.82091    2.00000
   23    -10.89083    2.00000
   24    -10.64095    2.00000
   25    -10.40688    2.00000
   26     -9.82080    2.00000
   27     -9.71134    2.00000
   28     -9.57147    2.00000
   29     -9.20683    2.00000
   30     -9.13836    2.00000
   31     -8.71554    2.00000
   32     -8.37113    2.00000
   33     -8.18034    2.00000
   34     -7.98757    2.00000
   35     -7.80570    2.00000
   36     -7.21943    2.00000
   37     -6.78591    2.00000
   38     -6.66688    2.00000
   39     -6.56582    2.00000
   40     -6.33237    2.00000
   41     -6.30448    2.00000
   42     -6.07170    1.99997
   43     -5.92547    1.99989
   44     -5.85474    1.99978
   45     -5.36496    1.97098
   46     -5.27969    1.93323
   47     -5.12427    1.71907
   48     -4.78950    0.35417
   49     -4.44576    0.01374
   50     -4.39684    0.00845
   51     -4.15135    0.00073
   52     -3.39015    0.00000
   53     -3.24732    0.00000
   54     -2.54965    0.00000
   55     -2.32013    0.00000
   56     -1.75989    0.00000
   57     -1.53733    0.00000
   58     -1.41252    0.00000
   59     -1.13347    0.00000
   60     -0.62533    0.00000
   61     -0.22794    0.00000
   62      0.01809    0.00000
   63      0.19749    0.00000
   64      0.93687    0.00000
   65      1.37383    0.00000
   66      2.32581    0.00000
   67      2.64701    0.00000
   68      3.02108    0.00000
   69      3.53548    0.00000
   70      3.73874    0.00000
   71      4.02091    0.00000
   72      4.31672    0.00000
   73      4.96997    0.00000
   74      5.29739    0.00000
   75      5.57915    0.00000
   76      5.77509    0.00000
   77      5.92856    0.00000
   78      6.51816    0.00000
   79      6.91763    0.00000
   80      7.12988    0.00000
   81      7.20030    0.00000
   82      7.61409    0.00000
   83      7.92291    0.00000
   84      8.29035    0.00000
   85      8.34767    0.00000
   86      8.37098    0.00000
   87      8.56637    0.00000
   88      8.86095    0.00000
   89      9.01698    0.00000
   90      9.08331    0.00000
   91      9.48413    0.00000
   92      9.52933    0.00000
   93      9.68688    0.00000
   94      9.77172    0.00000
   95      9.85401    0.00000
   96      9.90630    0.00000
   97      9.95136    0.00000


Forces in eV/Ang:
  0 C     1.53767   -0.47878   -0.14481
  1 C    -0.46556   -0.43765    0.01761
  2 C    -0.22043   -0.76004   -0.08563
  3 C     0.93463    0.79642    0.09719
  4 C    -0.80848    0.65206    0.10468
  5 C     0.42237   -0.06253   -0.02404
  6 C     0.16542   -1.82136   -0.17593
  7 C    -0.13141   -0.23911    0.01969
  8 C    -0.79570   -0.99375   -0.02118
  9 C    -0.18266   -0.42405    0.00985
 10 C    -0.48774    0.79863    0.03259
 11 C    -0.54252   -0.25265    0.09686
 12 C     0.12964   -0.23105    0.04386
 13 C    -0.97019    0.13378    0.32047
 14 C     0.10713   -0.27907   -0.12230
 15 C     0.00379    0.54248   -0.19253
 16 C     0.58578    1.00502   -0.19860
 17 C     1.96634    0.57808    0.43208
 18 C     1.91743    0.08976   -0.35479
 19 C    -1.34726   -0.53102    0.26141
 20 C    -0.48285    0.10460    0.09602
 21 C    -1.11481    1.24871    0.10171
 22 C     0.10112    0.05035    0.07759
 23 C    -0.34106    0.51580   -0.20349

System changes: positions 

Initializing position-dependent things.

Density initialized from wave functions
           .--------------------------------------.  
          /|                                      |  
         / |                                      |  
        /  |                                      |  
       /   |                                      |  
      /    |                                      |  
     /     |                                      |  
    /      |                                      |  
   /       |                                      |  
  /       C|         C  CC                    C   |  
 *         | C C          C                       |  
 |         |     CC   C  C C                      |  
 |         .--CC--------C-------------------------.  
 |        /   C        C       C                 /   
 |       /      C     C  C  C                   /    
 |      /          C                           /     
 |     /                                      /      
 |    /                                      /       
 |   /                                      /        
 |  /                                      /         
 | /                                      /          
 |/                                      /           
 *--------------------------------------*            

Positions:
   0 C      7.698621    5.339731    4.768765
   1 C     11.065562    5.229611    4.461770
   2 C      8.575487    4.246374    4.632294
   3 C      7.825408    3.009242    4.685440
   4 C      9.955167    4.513583    4.513736
   5 C      7.652381    6.652742    4.828133
   6 C      6.598345    7.642701    4.905414
   7 C      7.655033   10.229204    4.776719
   8 C      7.636228    8.858873    4.824478
   9 C      6.300725   12.465270    4.746923
  10 C      5.018787   12.179606    4.838866
  11 C      8.647171    7.838497    4.781405
  12 C      7.083766   11.366791    4.747066
  13 C      6.806467    2.357707    4.990613
  14 C      4.608103    3.452802    5.514744
  15 C      5.503348    2.573001    5.361301
  16 C      4.305624    4.790061    5.433191
  17 C      5.169122    7.285858    4.993160
  18 C      4.379810    6.046729    5.259107
  19 C      4.580325    8.514717    4.969126
  20 C      1.062398    9.940775    5.363140
  21 C      3.500329    9.120098    5.165010
  22 C     15.755791   10.198242    5.304359
  23 C      2.298916    9.577714    5.307905

Unit cell:
           periodic     x           y           z      points  spacing
  1. axis:    yes   16.000000    0.000000    0.000000    80     0.2000
  2. axis:    yes    0.000000   16.000000    0.000000    80     0.2000
  3. axis:    yes    0.000000    0.000000   10.000000    48     0.2083

Effective grid spacing dv^(1/3) = 0.2027

                     log10-error:    total        iterations:
           time      wfs    density  energy       fermi  poisson
iter:   1  10:43:49          +inf  -172.253109    3      5      
iter:   2  10:43:49         -1.84  -172.150499    2      2      
iter:   3  10:43:50         -2.07  -172.095544    2      2      
iter:   4  10:43:50         -2.36  -172.093641    2      2      
iter:   5  10:43:51         -2.48  -172.083044    2      1      
iter:   6  10:43:51         -2.58  -172.080207    2      2      
iter:   7  10:43:52         -2.72  -172.081963    2      1      
iter:   8  10:43:52         -2.83  -172.084074    2      2      
iter:   9  10:43:53         -3.13  -172.082270    2      1      
iter:  10  10:43:53         -3.22  -172.080459    2      1      
iter:  11  10:43:54         -3.40  -172.080992    2      1      
iter:  12  10:43:54         -3.67  -172.084916    2      1      
iter:  13  10:43:55         -3.76  -172.085695    2      1      
iter:  14  10:43:55         -3.89  -172.084595    2      1      
iter:  15  10:43:56         -3.99  -172.086031    2      1      
iter:  16  10:43:56         -4.09  -172.085161    2      1      

Converged after 16 iterations.

Dipole moment: (15.034408, -1.077053, 0.147321) |e|*Ang

Energy contributions relative to reference atoms: (reference = -24663.074771)

Kinetic:       +101.596277
Potential:     -113.778049
External:        +0.000000
XC:            -162.754811
Entropy (-ST):   -0.228747
Local:           +2.965796
--------------------------
Free energy:   -172.199534
Extrapolated:  -172.085161

Fermi level: -4.90343

 Band  Eigenvalues  Occupancy
    0    -22.97893    2.00000
    1    -21.63866    2.00000
    2    -21.50207    2.00000
    3    -20.83774    2.00000
    4    -20.54540    2.00000
    5    -20.24088    2.00000
    6    -19.80936    2.00000
    7    -19.05430    2.00000
    8    -18.96602    2.00000
    9    -18.41261    2.00000
   10    -17.89992    2.00000
   11    -17.32624    2.00000
   12    -17.08726    2.00000
   13    -16.39499    2.00000
   14    -15.71059    2.00000
   15    -15.38344    2.00000
   16    -14.92862    2.00000
   17    -14.43920    2.00000
   18    -13.71762    2.00000
   19    -13.32081    2.00000
   20    -13.21639    2.00000
   21    -12.83940    2.00000
   22    -11.95328    2.00000
   23    -10.90973    2.00000
   24    -10.70858    2.00000
   25    -10.45889    2.00000
   26     -9.89431    2.00000
   27     -9.71489    2.00000
   28     -9.56615    2.00000
   29     -9.35221    2.00000
   30     -9.18607    2.00000
   31     -8.72625    2.00000
   32     -8.33625    2.00000
   33     -8.19303    2.00000
   34     -7.99712    2.00000
   35     -7.81947    2.00000
   36     -7.30885    2.00000
   37     -6.78651    2.00000
   38     -6.70383    2.00000
   39     -6.54681    2.00000
   40     -6.40949    2.00000
   41     -6.28730    2.00000
   42     -6.05233    1.99998
   43     -5.94277    1.99994
   44     -5.78860    1.99971
   45     -5.34916    1.97708
   46     -5.27603    1.95296
   47     -5.07622    1.69830
   48     -4.74627    0.34399
   49     -4.43223    0.01781
   50     -4.36709    0.00933
   51     -4.13385    0.00091
   52     -3.31004    0.00000
   53     -3.16618    0.00000
   54     -2.50735    0.00000
   55     -2.23441    0.00000
   56     -1.72586    0.00000
   57     -1.49248    0.00000
   58     -1.37084    0.00000
   59     -1.13677    0.00000
   60     -0.64550    0.00000
   61     -0.19813    0.00000
   62      0.05843    0.00000
   63      0.30896    0.00000
   64      0.94704    0.00000
   65      1.45346    0.00000
   66      2.52303    0.00000
   67      2.65869    0.00000
   68      3.08475    0.00000
   69      3.63437    0.00000
   70      3.81814    0.00000
   71      4.13680    0.00000
   72      4.42287    0.00000
   73      5.11517    0.00000
   74      5.50622    0.00000
   75      5.62367    0.00000
   76      5.80880    0.00000
   77      6.05867    0.00000
   78      6.43934    0.00000
   79      6.94397    0.00000
   80      7.15942    0.00000
   81      7.32829    0.00000
   82      7.65002    0.00000
   83      7.89524    0.00000
   84      8.30506    0.00000
   85      8.34303    0.00000
   86      8.37165    0.00000
   87      8.53619    0.00000
   88      8.85235    0.00000
   89      9.06105    0.00000
   90      9.13498    0.00000
   91      9.47832    0.00000
   92      9.54790    0.00000
   93      9.73727    0.00000
   94      9.77166    0.00000
   95      9.87997    0.00000
   96      9.91517    0.00000
   97      9.98108    0.00000


Forces in eV/Ang:
  0 C     1.01067   -0.48255   -0.12123
  1 C    -0.55999   -0.45340    0.02511
  2 C     0.43180   -0.72800   -0.13078
  3 C     1.05297    0.54106   -0.01995
  4 C    -0.56952    0.61088    0.07831
  5 C     0.43217    0.14169   -0.01449
  6 C     0.51366   -0.77349   -0.18005
  7 C    -0.20992   -0.48081    0.01704
  8 C    -0.84308   -1.06749   -0.01564
  9 C    -0.18623   -0.41285    0.01821
 10 C    -0.45673    0.79624    0.02301
 11 C    -0.22432   -0.18582    0.07994
 12 C     0.08429   -0.24378    0.04665
 13 C    -1.08731   -0.16160    0.35148
 14 C    -0.28128    0.49188   -0.09633
 15 C     0.05420    0.27675   -0.17204
 16 C     0.63230    0.30574   -0.14748
 17 C     1.20453   -0.16493    0.41183
 18 C     1.93011    0.46367   -0.38449
 19 C    -0.87658   -0.40232    0.23053
 20 C    -1.16643    0.31766    0.10103
 21 C    -1.09803    1.15670    0.09170
 22 C     0.26011    0.01711    0.09150
 23 C    -0.04404    0.44863   -0.17851

System changes: positions 

Initializing position-dependent things.

Density initialized from wave functions
           .--------------------------------------.  
          /|                                      |  
         / |                                      |  
        /  |                                      |  
       /   |                                      |  
      /    |                                      |  
     /     |                                      |  
    /      |                                      |  
   /       |                                      |  
  /       C|         C  CC                    C   |  
 *         | C C          C                       |  
 |         |     CC   C  C C                      |  
 |         .---CC-------C-------------------------.  
 |        /   C        C       C                 /   
 |       /      C     C  C  C                   /    
 |      /          C                           /     
 |     /                                      /      
 |    /                                      /       
 |   /                                      /        
 |  /                                      /         
 | /                                      /          
 |/                                      /           
 *--------------------------------------*            

Positions:
   0 C      7.727697    5.335625    4.765863
   1 C     11.060476    5.223970    4.461938
   2 C      8.570632    4.233990    4.631117
   3 C      7.825499    3.011170    4.691694
   4 C      9.941859    4.524201    4.515328
   5 C      7.661512    6.642010    4.827154
   6 C      6.603763    7.612776    4.902232
   7 C      7.651813   10.219794    4.777153
   8 C      7.623313    8.846478    4.823778
   9 C      6.296868   12.455364    4.747310
  10 C      5.009867   12.196037    4.839283
  11 C      8.638164    7.833558    4.783346
  12 C      7.085233   11.363218    4.747990
  13 C      6.804038    2.368121    4.992107
  14 C      4.603358    3.457501    5.512966
  15 C      5.506680    2.579801    5.356884
  16 C      4.317898    4.796062    5.430657
  17 C      5.196026    7.302413    5.001180
  18 C      4.418128    6.055042    5.251195
  19 C      4.550126    8.502100    4.975653
  20 C      1.053469    9.943544    5.365612
  21 C      3.493691    9.137513    5.164642
  22 C     15.750950   10.200641    5.305701
  23 C      2.291861    9.588951    5.304259

Unit cell:
           periodic     x           y           z      points  spacing
  1. axis:    yes   16.000000    0.000000    0.000000    80     0.2000
  2. axis:    yes    0.000000   16.000000    0.000000    80     0.2000
  3. axis:    yes    0.000000    0.000000   10.000000    48     0.2083

Effective grid spacing dv^(1/3) = 0.2027

                     log10-error:    total        iterations:
           time      wfs    density  energy       fermi  poisson
iter:   1  10:43:58          +inf  -172.486301    3      5      
iter:   2  10:43:58         -1.98  -172.424577    2      2      
iter:   3  10:43:59         -2.19  -172.391390    2      2      
iter:   4  10:43:59         -2.46  -172.388802    2      2      
iter:   5  10:43:59         -2.59  -172.382557    2      2      
iter:   6  10:44:00         -2.69  -172.382466    2      2      
iter:   7  10:44:00         -2.85  -172.383486    2      2      
iter:   8  10:44:01         -3.05  -172.377688    2      1      
iter:   9  10:44:01         -3.23  -172.378590    2      1      
iter:  10  10:44:02         -3.42  -172.382340    2      1      
iter:  11  10:44:02         -3.62  -172.381971    2      1      
iter:  12  10:44:03         -3.83  -172.384854    2      1      
iter:  13  10:44:03         -3.90  -172.384892    2      1      
iter:  14  10:44:04         -3.99  -172.383580    2      1      
iter:  15  10:44:04         -4.10  -172.384591    2      1      

Converged after 15 iterations.

Dipole moment: (15.115831, -1.097051, 0.145938) |e|*Ang

Energy contributions relative to reference atoms: (reference = -24663.074771)

Kinetic:       +106.370926
Potential:     -117.548257
External:        +0.000000
XC:            -164.059737
Entropy (-ST):   -0.228786
Local:           +2.966870
--------------------------
Free energy:   -172.498984
Extrapolated:  -172.384591

Fermi level: -4.86693

 Band  Eigenvalues  Occupancy
    0    -23.05946    2.00000
    1    -21.70316    2.00000
    2    -21.58278    2.00000
    3    -20.88742    2.00000
    4    -20.59658    2.00000
    5    -20.21064    2.00000
    6    -19.82733    2.00000
    7    -19.13629    2.00000
    8    -18.96500    2.00000
    9    -18.41236    2.00000
   10    -17.89834    2.00000
   11    -17.39636    2.00000
   12    -17.13788    2.00000
   13    -16.42839    2.00000
   14    -15.73585    2.00000
   15    -15.44567    2.00000
   16    -14.97137    2.00000
   17    -14.50424    2.00000
   18    -13.73869    2.00000
   19    -13.35737    2.00000
   20    -13.26216    2.00000
   21    -12.98697    2.00000
   22    -12.06377    2.00000
   23    -10.93807    2.00000
   24    -10.77719    2.00000
   25    -10.51350    2.00000
   26     -9.96262    2.00000
   27     -9.74236    2.00000
   28     -9.58936    2.00000
   29     -9.45010    2.00000
   30     -9.23093    2.00000
   31     -8.72985    2.00000
   32     -8.30606    2.00000
   33     -8.20632    2.00000
   34     -8.02125    2.00000
   35     -7.83920    2.00000
   36     -7.36403    2.00000
   37     -6.80848    2.00000
   38     -6.72959    2.00000
   39     -6.52857    2.00000
   40     -6.40539    2.00000
   41     -6.26726    2.00000
   42     -6.02975    1.99998
   43     -5.94299    1.99996
   44     -5.73540    1.99966
   45     -5.34106    1.98270
   46     -5.26750    1.96423
   47     -5.03220    1.67850
   48     -4.70658    0.33499
   49     -4.45617    0.03236
   50     -4.28845    0.00613
   51     -4.14710    0.00149
   52     -3.29525    0.00000
   53     -3.17050    0.00000
   54     -2.48191    0.00000
   55     -2.18791    0.00000
   56     -1.68640    0.00000
   57     -1.45555    0.00000
   58     -1.33234    0.00000
   59     -1.11249    0.00000
   60     -0.66432    0.00000
   61     -0.18107    0.00000
   62      0.09428    0.00000
   63      0.42823    0.00000
   64      0.94936    0.00000
   65      1.52566    0.00000
   66      2.56772    0.00000
   67      2.75154    0.00000
   68      3.12750    0.00000
   69      3.68546    0.00000
   70      3.88826    0.00000
   71      4.23489    0.00000
   72      4.47592    0.00000
   73      5.19528    0.00000
   74      5.59493    0.00000
   75      5.68401    0.00000
   76      5.86089    0.00000
   77      6.17420    0.00000
   78      6.41277    0.00000
   79      6.95178    0.00000
   80      7.23512    0.00000
   81      7.42756    0.00000
   82      7.75934    0.00000
   83      7.91217    0.00000
   84      8.27611    0.00000
   85      8.33083    0.00000
   86      8.41196    0.00000
   87      8.57374    0.00000
   88      8.84004    0.00000
   89      9.10960    0.00000
   90      9.16020    0.00000
   91      9.47053    0.00000
   92      9.55072    0.00000
   93      9.73308    0.00000
   94      9.76547    0.00000
   95      9.88699    0.00000
   96      9.91254    0.00000
   97      9.98005    0.00000


Forces in eV/Ang:
  0 C     0.58260   -0.46510   -0.07967
  1 C    -0.50561   -0.38204    0.01715
  2 C     0.78898   -0.67181   -0.12727
  3 C     1.10778    0.29120   -0.10723
  4 C    -0.31653    0.48036    0.04291
  5 C     0.43789    0.24790   -0.02030
  6 C     0.84046    0.12424   -0.14846
  7 C    -0.36471   -0.43917    0.00742
  8 C    -0.79280   -1.03486   -0.03940
  9 C    -0.19852   -0.37664    0.02993
 10 C    -0.44013    0.80895    0.00147
 11 C     0.07492   -0.09828    0.08029
 12 C     0.13838   -0.48283    0.05211
 13 C    -1.07653   -0.36451    0.34481
 14 C     0.01031    0.17476   -0.13141
 15 C    -0.46184    0.51215   -0.03960
 16 C     0.64061    0.86542   -0.22047
 17 C     0.45683   -0.58722    0.37894
 18 C     1.72493   -0.05600   -0.23897
 19 C    -0.40585   -0.45660    0.17518
 20 C    -0.89722    0.30797    0.10533
 21 C    -1.00816    1.08614    0.08663
 22 C     0.01684    0.06003    0.08377
 23 C    -0.34472    0.54267   -0.14176

System changes: positions 

Initializing position-dependent things.

Density initialized from wave functions
           .--------------------------------------.  
          /|                                      |  
         / |                                      |  
        /  |                                      |  
       /   |                                      |  
      /    |                                      |  
     /     |                                      |  
    /      |                                      |  
   /       |                                      |  
  /       C|         C  CC                    C   |  
 *         | C C          C                       |  
 |         |     CC   C  C C                      |  
 |         .---CC-------C-------------------------.  
 |        /   C        C       C                 /   
 |       /      C     C  C  C                   /    
 |      /          C                           /     
 |     /                                      /      
 |    /                                      /       
 |   /                                      /        
 |  /                                      /         
 | /                                      /          
 |/                                      /           
 *--------------------------------------*            

Positions:
   0 C      7.753822    5.331076    4.763217
   1 C     11.055462    5.218630    4.462020
   2 C      8.569943    4.221032    4.629847
   3 C      7.827237    3.010551    4.697155
   4 C      9.930630    4.534170    4.516642
   5 C      7.671584    6.632118    4.826064
   6 C      6.614034    7.591859    4.899147
   7 C      7.646349   10.210018    4.777497
   8 C      7.609687    8.833140    4.822711
   9 C      6.292397   12.445089    4.747890
  10 C      5.000408   12.214122    4.839393
  11 C      8.632244    7.829279    4.785426
  12 C      7.087514   11.356263    4.749068
  13 C      6.800599    2.376497    4.993911
  14 C      4.601448    3.459482    5.510611
  15 C      5.504290    2.589782    5.353651
  16 C      4.331389    4.808520    5.427092
  17 C      5.215708    7.314685    5.009489
  18 C      4.457376    6.058297    5.244197
  19 C      4.523043    8.487952    4.982115
  20 C      1.045519    9.946840    5.368362
  21 C      3.486839    9.155866    5.164222
  22 C     15.743466   10.203625    5.307103
  23 C      2.281904    9.601890    5.300616

Unit cell:
           periodic     x           y           z      points  spacing
  1. axis:    yes   16.000000    0.000000    0.000000    80     0.2000
  2. axis:    yes    0.000000   16.000000    0.000000    80     0.2000
  3. axis:    yes    0.000000    0.000000   10.000000    48     0.2083

Effective grid spacing dv^(1/3) = 0.2027

                     log10-error:    total        iterations:
           time      wfs    density  energy       fermi  poisson
iter:   1  10:44:06          +inf  -172.685411    2      5      
iter:   2  10:44:06         -2.10  -172.647217    2      2      
iter:   3  10:44:07         -2.31  -172.627857    2      2      
iter:   4  10:44:07         -2.55  -172.627163    2      2      
iter:   5  10:44:08         -2.66  -172.621531    2      2      
iter:   6  10:44:08         -2.79  -172.624054    2      2      
iter:   7  10:44:09         -2.97  -172.623943    2      2      
iter:   8  10:44:09         -3.21  -172.619480    2      1      
iter:   9  10:44:10         -3.42  -172.621428    2      1      
iter:  10  10:44:10         -3.61  -172.624572    2      1      
iter:  11  10:44:10         -3.71  -172.624113    2      1      
iter:  12  10:44:11         -3.87  -172.625162    2      1      
iter:  13  10:44:11         -3.99  -172.625280    1      1      
iter:  14  10:44:12         -4.13  -172.625186    2      1      

Converged after 14 iterations.

Dipole moment: (15.262882, -1.119123, 0.144107) |e|*Ang

Energy contributions relative to reference atoms: (reference = -24663.074771)

Kinetic:       +110.644452
Potential:     -120.916469
External:        +0.000000
XC:            -165.224412
Entropy (-ST):   -0.227736
Local:           +2.985111
--------------------------
Free energy:   -172.739054
Extrapolated:  -172.625186

Fermi level: -4.83679

 Band  Eigenvalues  Occupancy
    0    -23.14970    2.00000
    1    -21.76042    2.00000
    2    -21.63713    2.00000
    3    -20.92826    2.00000
    4    -20.64014    2.00000
    5    -20.16797    2.00000
    6    -19.83478    2.00000
    7    -19.18938    2.00000
    8    -18.96410    2.00000
    9    -18.43886    2.00000
   10    -17.90437    2.00000
   11    -17.43100    2.00000
   12    -17.17538    2.00000
   13    -16.43501    2.00000
   14    -15.75432    2.00000
   15    -15.50307    2.00000
   16    -15.01904    2.00000
   17    -14.54723    2.00000
   18    -13.76368    2.00000
   19    -13.39524    2.00000
   20    -13.30783    2.00000
   21    -13.09479    2.00000
   22    -12.13761    2.00000
   23    -10.99116    2.00000
   24    -10.83300    2.00000
   25    -10.56506    2.00000
   26    -10.01052    2.00000
   27     -9.76875    2.00000
   28     -9.60797    2.00000
   29     -9.50835    2.00000
   30     -9.27092    2.00000
   31     -8.73045    2.00000
   32     -8.26943    2.00000
   33     -8.21438    2.00000
   34     -8.03415    2.00000
   35     -7.85185    2.00000
   36     -7.39615    2.00000
   37     -6.84222    2.00000
   38     -6.72295    2.00000
   39     -6.52018    2.00000
   40     -6.42014    2.00000
   41     -6.25333    2.00000
   42     -6.03264    1.99999
   43     -5.95805    1.99997
   44     -5.69346    1.99962
   45     -5.34367    1.98750
   46     -5.26797    1.97354
   47     -4.99764    1.66641
   48     -4.66971    0.31662
   49     -4.47008    0.04983
   50     -4.22284    0.00430
   51     -4.15691    0.00223
   52     -3.25567    0.00000
   53     -3.12758    0.00000
   54     -2.46850    0.00000
   55     -2.15095    0.00000
   56     -1.63329    0.00000
   57     -1.41885    0.00000
   58     -1.28921    0.00000
   59     -1.10403    0.00000
   60     -0.64683    0.00000
   61     -0.17128    0.00000
   62      0.11362    0.00000
   63      0.53317    0.00000
   64      0.96472    0.00000
   65      1.58521    0.00000
   66      2.55192    0.00000
   67      2.90460    0.00000
   68      3.18078    0.00000
   69      3.72245    0.00000
   70      3.95641    0.00000
   71      4.31323    0.00000
   72      4.51451    0.00000
   73      5.24928    0.00000
   74      5.61845    0.00000
   75      5.70433    0.00000
   76      5.93501    0.00000
   77      6.20898    0.00000
   78      6.43176    0.00000
   79      6.93649    0.00000
   80      7.25979    0.00000
   81      7.48301    0.00000
   82      7.78769    0.00000
   83      7.99813    0.00000
   84      8.23800    0.00000
   85      8.31387    0.00000
   86      8.40720    0.00000
   87      8.66733    0.00000
   88      8.83639    0.00000
   89      9.12564    0.00000
   90      9.19309    0.00000
   91      9.46229    0.00000
   92      9.54363    0.00000
   93      9.74094    0.00000
   94      9.76756    0.00000
   95      9.85452    0.00000
   96      9.92532    0.00000
   97      9.98699    0.00000


Forces in eV/Ang:
  0 C     0.27330   -0.44645   -0.06508
  1 C    -0.38450   -0.25796    0.00776
  2 C     0.97059   -0.52688   -0.12019
  3 C     0.97220   -0.03107   -0.11678
  4 C    -0.14987    0.30736    0.01941
  5 C     0.45018    0.23462   -0.03145
  6 C     0.82955    0.78435   -0.12071
  7 C    -0.41700   -0.62819    0.03237
  8 C    -0.65259   -0.92974   -0.06239
  9 C    -0.15021   -0.44745    0.03368
 10 C    -0.39333    0.81336   -0.00096
 11 C     0.34089   -0.02112    0.08197
 12 C     0.00420   -0.36423    0.05071
 13 C    -1.01409   -0.42433    0.32351
 14 C    -0.25965    0.63925   -0.10075
 15 C    -0.30386    0.25344   -0.05351
 16 C     0.62052    0.41084   -0.16509
 17 C     0.03608   -0.82746    0.30595
 18 C     1.56452    0.11297   -0.19353
 19 C    -0.20627   -0.41065    0.19203
 20 C    -1.06085    0.38308    0.11466
 21 C    -0.85862    0.90933    0.05352
 22 C    -0.02757    0.05938    0.07848
 23 C    -0.14749    0.47865   -0.11803

System changes: positions 

Initializing position-dependent things.

Density initialized from wave functions
           .--------------------------------------.  
          /|                                      |  
         / |                                      |  
        /  |                                      |  
       /   |                                      |  
      /    |                                      |  
     /     |                                      |  
    /      |                                      |  
   /       |                                      |  
  /       C|         C  CC                    C   |  
 *         | C C          C                       |  
 |         |     CC   C  C C                      |  
 |         .---CC-------C-------------------------.  
 |        /   C        C       C                 /   
 |       /      C     C  C  C                   /    
 |      /          C                           /     
 |     /                                      /      
 |    /                                      /       
 |   /                                      /        
 |  /                                      /         
 | /                                      /          
 |/                                      /           
 *--------------------------------------*            

Positions:
   0 C      7.776964    5.325950    4.760644
   1 C     11.051449    5.214445    4.461993
   2 C      8.572139    4.208950    4.628537
   3 C      7.829507    3.006758    4.702200
   4 C      9.921034    4.542449    4.517724
   5 C      7.682393    6.622668    4.824790
   6 C      6.625181    7.579286    4.896239
   7 C      7.639686   10.197679    4.778178
   8 C      7.596927    8.819465    4.821268
   9 C      6.288368   12.433327    4.748555
  10 C      4.990973   12.233330    4.839469
  11 C      8.629713    7.825895    4.787658
  12 C      7.088219   11.350192    4.750196
  13 C      6.795598    2.383461    4.996146
  14 C      4.596889    3.466333    5.508416
  15 C      5.503154    2.597474    5.350192
  16 C      4.345326    4.817719    5.423822
  17 C      5.230857    7.323537    5.017329
  18 C      4.496574    6.062838    5.237647
  19 C      4.497963    8.473581    4.989019
  20 C      1.035128    9.951287    5.371348
  21 C      3.480110    9.173590    5.163549
  22 C     15.735269   10.206705    5.308528
  23 C      2.273825    9.614731    5.297067

Unit cell:
           periodic     x           y           z      points  spacing
  1. axis:    yes   16.000000    0.000000    0.000000    80     0.2000
  2. axis:    yes    0.000000   16.000000    0.000000    80     0.2000
  3. axis:    yes    0.000000    0.000000   10.000000    48     0.2083

Effective grid spacing dv^(1/3) = 0.2027

                     log10-error:    total        iterations:
           time      wfs    density  energy       fermi  poisson
iter:   1  10:44:13          +inf  -172.861895    2      5      
iter:   2  10:44:14         -2.23  -172.842278    2      1      
iter:   3  10:44:14         -2.38  -172.828778    3      2      
iter:   4  10:44:15         -2.65  -172.828446    2      1      
iter:   5  10:44:15         -2.70  -172.825501    3      2      
iter:   6  10:44:16         -2.63  -172.823104    3      1      
iter:   7  10:44:16         -2.99  -172.828562    2      2      
iter:   8  10:44:17         -3.16  -172.824210    2      1      
iter:   9  10:44:17         -3.39  -172.826732    2      1      
iter:  10  10:44:18         -3.57  -172.828299    2      1      
iter:  11  10:44:18         -3.64  -172.827527    2      1      
iter:  12  10:44:18         -3.64  -172.828487    2      1      
iter:  13  10:44:19         -3.92  -172.828323    2      1      
iter:  14  10:44:19         -3.98  -172.827821    2      1      
iter:  15  10:44:20         -4.07  -172.828110    2      1      

Converged after 15 iterations.

Dipole moment: (15.377068, -1.151222, 0.140833) |e|*Ang

Energy contributions relative to reference atoms: (reference = -24663.074771)

Kinetic:       +113.349449
Potential:     -123.012842
External:        +0.000000
XC:            -166.018728
Entropy (-ST):   -0.225495
Local:           +2.966758
--------------------------
Free energy:   -172.940858
Extrapolated:  -172.828110

Fermi level: -4.80996

 Band  Eigenvalues  Occupancy
    0    -23.22802    2.00000
    1    -21.82139    2.00000
    2    -21.67466    2.00000
    3    -20.96517    2.00000
    4    -20.67060    2.00000
    5    -20.13404    2.00000
    6    -19.85067    2.00000
    7    -19.21985    2.00000
    8    -18.96388    2.00000
    9    -18.44750    2.00000
   10    -17.90592    2.00000
   11    -17.44993    2.00000
   12    -17.20955    2.00000
   13    -16.45936    2.00000
   14    -15.77724    2.00000
   15    -15.54804    2.00000
   16    -15.06542    2.00000
   17    -14.58026    2.00000
   18    -13.79813    2.00000
   19    -13.45043    2.00000
   20    -13.35895    2.00000
   21    -13.16804    2.00000
   22    -12.19190    2.00000
   23    -11.05681    2.00000
   24    -10.87725    2.00000
   25    -10.60021    2.00000
   26    -10.04723    2.00000
   27     -9.79460    2.00000
   28     -9.63060    2.00000
   29     -9.53655    2.00000
   30     -9.30454    2.00000
   31     -8.73188    2.00000
   32     -8.24780    2.00000
   33     -8.21147    2.00000
   34     -8.05159    2.00000
   35     -7.86956    2.00000
   36     -7.40555    2.00000
   37     -6.86773    2.00000
   38     -6.71662    2.00000
   39     -6.51691    2.00000
   40     -6.40289    2.00000
   41     -6.23783    2.00000
   42     -6.03135    1.99999
   43     -5.96061    1.99998
   44     -5.66632    1.99962
   45     -5.35446    1.99140
   46     -5.26319    1.97872
   47     -4.97022    1.66476
   48     -4.63359    0.29265
   49     -4.47189    0.06581
   50     -4.20731    0.00482
   51     -4.13159    0.00226
   52     -3.24965    0.00000
   53     -3.13301    0.00000
   54     -2.46915    0.00000
   55     -2.12798    0.00000
   56     -1.58243    0.00000
   57     -1.39752    0.00000
   58     -1.25295    0.00000
   59     -1.07886    0.00000
   60     -0.62538    0.00000
   61     -0.17192    0.00000
   62      0.12519    0.00000
   63      0.60937    0.00000
   64      0.97870    0.00000
   65      1.62536    0.00000
   66      2.52661    0.00000
   67      3.04435    0.00000
   68      3.24999    0.00000
   69      3.74567    0.00000
   70      4.00083    0.00000
   71      4.36149    0.00000
   72      4.52510    0.00000
   73      5.28289    0.00000
   74      5.61498    0.00000
   75      5.69075    0.00000
   76      5.98769    0.00000
   77      6.17688    0.00000
   78      6.50001    0.00000
   79      6.92944    0.00000
   80      7.27867    0.00000
   81      7.53337    0.00000
   82      7.80816    0.00000
   83      8.08500    0.00000
   84      8.21675    0.00000
   85      8.29894    0.00000
   86      8.43421    0.00000
   87      8.77204    0.00000
   88      8.83447    0.00000
   89      9.12541    0.00000
   90      9.22058    0.00000
   91      9.45502    0.00000
   92      9.53346    0.00000
   93      9.72167    0.00000
   94      9.75871    0.00000
   95      9.80595    0.00000
   96      9.93636    0.00000
   97      9.99094    0.00000


Forces in eV/Ang:
  0 C     0.03812   -0.38340   -0.03587
  1 C    -0.29605   -0.17611    0.00830
  2 C     0.97869   -0.54459   -0.11594
  3 C     0.88534   -0.24190   -0.12560
  4 C     0.11008    0.20891   -0.03242
  5 C     0.38891    0.28817   -0.06692
  6 C     0.75202    1.13481   -0.09585
  7 C    -0.53641   -0.52941    0.03376
  8 C    -0.48151   -0.80837   -0.06381
  9 C    -0.20506   -0.41559    0.03368
 10 C    -0.31452    0.81648   -0.00155
 11 C     0.52337    0.01672    0.08926
 12 C     0.04357   -0.56865    0.05453
 13 C    -0.85981   -0.47118    0.27091
 14 C    -0.12393    0.49745   -0.12954
 15 C    -0.57111    0.34460    0.02373
 16 C     0.57384    0.44696   -0.14644
 17 C    -0.19996   -0.84564    0.22814
 18 C     1.35707   -0.02505   -0.10576
 19 C    -0.11016   -0.33559    0.23103
 20 C    -0.90504    0.36183    0.09680
 21 C    -0.59163    0.70035   -0.00192
 22 C    -0.15220    0.08190    0.07195
 23 C    -0.26997    0.50187   -0.10378

System changes: positions 

Initializing position-dependent things.

Density initialized from wave functions
           .--------------------------------------.  
          /|                                      |  
         / |                                      |  
        /  |                                      |  
       /   |                                      |  
      /    |                                      |  
     /     |                                      |  
[...]

Fermi level: -4.85792

 Band  Eigenvalues  Occupancy
    0    -23.57071    2.00000
    1    -23.14907    2.00000
    2    -21.61663    2.00000
    3    -21.21318    2.00000
    4    -20.50832    2.00000
    5    -20.08514    2.00000
    6    -19.93500    2.00000
    7    -19.14217    2.00000
    8    -18.73872    2.00000
    9    -18.65298    2.00000
   10    -17.76112    2.00000
   11    -17.61545    2.00000
   12    -17.24010    2.00000
   13    -16.73349    2.00000
   14    -16.24355    2.00000
   15    -15.73344    2.00000
   16    -15.37104    2.00000
   17    -14.76220    2.00000
   18    -14.32223    2.00000
   19    -13.94566    2.00000
   20    -13.53425    2.00000
   21    -12.36988    2.00000
   22    -11.95333    2.00000
   23    -11.17322    2.00000
   24    -10.78636    2.00000
   25    -10.49665    2.00000
   26    -10.26382    2.00000
   27     -9.83443    2.00000
   28     -9.64290    2.00000
   29     -9.38558    2.00000
   30     -9.34411    2.00000
   31     -8.85338    2.00000
   32     -8.76614    2.00000
   33     -8.26133    2.00000
   34     -8.18067    2.00000
   35     -8.02215    2.00000
   36     -7.94746    2.00000
   37     -7.16804    2.00000
   38     -6.88594    2.00000
   39     -6.49741    2.00000
   40     -6.46695    2.00000
   41     -6.14175    1.99999
   42     -6.08018    1.99999
   43     -5.99319    1.99998
   44     -5.67081    1.99941
   45     -5.53241    1.99765
   46     -5.23026    1.95284
   47     -5.14138    1.88903
   48     -4.60177    0.14331
   49     -4.38491    0.01750
   50     -3.97681    0.00030
   51     -3.52393    0.00000
   52     -3.33853    0.00000
   53     -3.15559    0.00000
   54     -2.53661    0.00000
   55     -1.90550    0.00000
   56     -1.60433    0.00000
   57     -1.44107    0.00000
   58     -1.02129    0.00000
   59     -0.56972    0.00000
   60     -0.43404    0.00000
   61      0.29740    0.00000
   62      0.57658    0.00000
   63      1.40041    0.00000
   64      2.23408    0.00000
   65      2.45981    0.00000
   66      2.64125    0.00000
   67      3.14366    0.00000
   68      3.43470    0.00000
   69      3.80901    0.00000
   70      3.84470    0.00000
   71      4.05555    0.00000
   72      4.23679    0.00000
   73      4.59016    0.00000
   74      5.10670    0.00000
   75      5.28188    0.00000
   76      5.87268    0.00000
   77      6.30943    0.00000
   78      6.57542    0.00000
   79      7.08464    0.00000
   80      7.21122    0.00000
   81      7.48974    0.00000
   82      7.85281    0.00000
   83      7.90963    0.00000
   84      8.11514    0.00000
   85      8.19594    0.00000
   86      8.32984    0.00000
   87      8.59267    0.00000
   88      8.63161    0.00000
   89      8.82695    0.00000
   90      8.97279    0.00000
   91      9.22456    0.00000
   92      9.24436    0.00000
   93      9.33444    0.00000
   94      9.42090    0.00000
   95      9.56769    0.00000
   96      9.76483    0.00000
   97      9.79965    0.00000


Forces in eV/Ang:
  0 C    -0.01653   -0.02544    0.00933
  1 C     0.09148   -0.07146    0.01542
  2 C     0.00677   -0.07666   -0.01563
  3 C     0.01109   -0.07014    0.02503
  4 C     0.06931    0.08956    0.04658
  5 C     0.00960    0.00317   -0.02794
  6 C     0.05224    0.02252    0.07861
  7 C     0.02798    0.12482   -0.06034
  8 C    -0.02376    0.04132    0.06478
  9 C     0.03437   -0.07838    0.02828
 10 C     0.01027    0.01567   -0.01199
 11 C    -0.05008    0.03372   -0.04656
 12 C    -0.02020   -0.05995   -0.03926
 13 C    -0.00887   -0.07653   -0.02605
 14 C     0.03413   -0.03971   -0.00053
 15 C    -0.03315   -0.06568   -0.01540
 16 C    -0.02212    0.00634    0.00515
 17 C    -0.01114    0.01993   -0.06724
 18 C     0.00801   -0.03747    0.01378
 19 C    -0.04721    0.02444    0.04015
 20 C    -0.04201    0.02481   -0.02587
 21 C    -0.05895    0.00838    0.00609
 22 C     0.03131    0.08574    0.01929
 23 C    -0.00697   -0.00559    0.03930

System changes: positions 

Initializing position-dependent things.

Density initialized from wave functions
           .--------------------------------------.  
          /|                                      |  
         / |                                      |  
        /  |                                      |  
       /   |                                      |  
      /    |                                      |  
     /     |                                      |  
    /      |                                      |  
   /       |          C                           |  
  /       C|           C                       C  |  
 *         | C C        C                         |  
 |         |     C C    C  C                      |  
 |         .---CC-----C--C------------------------.  
 |        /   C          C     C                 /   
 |       /      C       C   C                   /    
 |      /          C  C                        /     
 |     /                                      /      
 |    /                                      /       
 |   /                                      /        
 |  /                                      /         
 | /                                      /          
 |/                                      /           
 *--------------------------------------*            

Positions:
   0 C      8.566708    5.342901    4.646838
   1 C     11.166396    5.073148    4.546743
   2 C      8.612562    3.968861    4.572293
   3 C      7.853055    2.817466    4.666629
   4 C      9.924335    4.596387    4.556346
   5 C      8.037230    6.609087    4.753233
   6 C      6.751428    7.333352    4.688277
   7 C      6.811545    9.868217    4.702761
   8 C      7.401046    8.639100    4.667504
   9 C      5.721461   12.237083    4.738848
  10 C      5.123315   13.400805    4.835207
  11 C      8.584425    7.897574    5.156135
  12 C      6.315970   11.049290    4.707243
  13 C      6.685341    2.409994    4.924152
  14 C      4.580569    3.428335    5.408820
  15 C      5.368959    2.449707    5.222485
  16 C      4.360022    4.755001    5.441096
  17 C      5.370122    7.195074    5.142151
  18 C      4.757579    5.943089    5.350834
  19 C      4.554241    8.321718    5.192388
  20 C      1.211198   10.305993    5.317009
  21 C      3.488723    9.033825    5.265480
  22 C     15.958459   10.735002    5.303678
  23 C      2.381207    9.722005    5.285491

Unit cell:
           periodic     x           y           z      points  spacing
  1. axis:    yes   16.000000    0.000000    0.000000    80     0.2000
  2. axis:    yes    0.000000   16.000000    0.000000    80     0.2000
  3. axis:    yes    0.000000    0.000000   10.000000    48     0.2083

Effective grid spacing dv^(1/3) = 0.2027

                     log10-error:    total        iterations:
           time      wfs    density  energy       fermi  poisson
iter:   1  10:50:45          +inf  -175.101890    2      5      
iter:   2  10:50:45         -2.57  -175.101224    2      1      
iter:   3  10:50:46         -2.65  -175.100290    2      2      
iter:   4  10:50:46         -2.85  -175.098423    2      2      
iter:   5  10:50:47         -3.04  -175.100788    2      2      
iter:   6  10:50:47         -2.88  -175.099747    2      1      
iter:   7  10:50:48         -3.06  -175.098584    2      2      
iter:   8  10:50:48         -3.15  -175.099165    2      1      
iter:   9  10:50:49         -3.79  -175.099065    2      1      
iter:  10  10:50:49         -3.82  -175.098822    2      1      
iter:  11  10:50:49         -3.79  -175.098996    2      1      
iter:  12  10:50:50         -4.01  -175.098772    2      1      

Converged after 12 iterations.

Dipole moment: (-4.369700, -2.242597, -0.071771) |e|*Ang

Energy contributions relative to reference atoms: (reference = -24663.074771)

Kinetic:       +103.493153
Potential:     -114.820006
External:        +0.000000
XC:            -166.675484
Entropy (-ST):   -0.129463
Local:           +2.968296
--------------------------
Free energy:   -175.163504
Extrapolated:  -175.098772

Fermi level: -4.85786

 Band  Eigenvalues  Occupancy
    0    -23.56701    2.00000
    1    -23.14119    2.00000
    2    -21.59912    2.00000
    3    -21.20714    2.00000
    4    -20.49565    2.00000
    5    -20.07788    2.00000
    6    -19.92880    2.00000
    7    -19.13139    2.00000
    8    -18.73334    2.00000
    9    -18.64209    2.00000
   10    -17.76596    2.00000
   11    -17.61401    2.00000
   12    -17.22539    2.00000
   13    -16.73700    2.00000
   14    -16.24020    2.00000
   15    -15.72547    2.00000
   16    -15.36593    2.00000
   17    -14.75987    2.00000
   18    -14.32075    2.00000
   19    -13.94618    2.00000
   20    -13.52557    2.00000
   21    -12.35444    2.00000
   22    -11.92726    2.00000
   23    -11.17480    2.00000
   24    -10.77655    2.00000
   25    -10.48075    2.00000
   26    -10.25418    2.00000
   27     -9.82848    2.00000
   28     -9.63755    2.00000
   29     -9.38248    2.00000
   30     -9.33533    2.00000
   31     -8.87887    2.00000
   32     -8.75845    2.00000
   33     -8.25604    2.00000
   34     -8.17585    2.00000
   35     -8.01636    2.00000
   36     -7.94399    2.00000
   37     -7.16570    2.00000
   38     -6.88047    2.00000
   39     -6.50025    2.00000
   40     -6.46493    2.00000
   41     -6.14229    1.99999
   42     -6.08209    1.99999
   43     -5.98972    1.99998
   44     -5.66988    1.99941
   45     -5.53881    1.99780
   46     -5.23116    1.95328
   47     -5.14074    1.88843
   48     -4.60161    0.14319
   49     -4.38579    0.01766
   50     -3.96805    0.00027
   51     -3.54978    0.00000
   52     -3.34853    0.00000
   53     -3.16599    0.00000
   54     -2.53531    0.00000
   55     -1.90321    0.00000
   56     -1.60982    0.00000
   57     -1.44279    0.00000
   58     -1.02353    0.00000
   59     -0.57243    0.00000
   60     -0.43853    0.00000
   61      0.30025    0.00000
   62      0.56277    0.00000
   63      1.39513    0.00000
   64      2.28214    0.00000
   65      2.45518    0.00000
   66      2.63514    0.00000
   67      3.15051    0.00000
   68      3.42595    0.00000
   69      3.81782    0.00000
   70      3.84947    0.00000
   71      4.04969    0.00000
   72      4.24869    0.00000
   73      4.58152    0.00000
   74      5.09241    0.00000
   75      5.28284    0.00000
   76      5.86763    0.00000
   77      6.32348    0.00000
   78      6.59607    0.00000
   79      7.06247    0.00000
   80      7.19225    0.00000
   81      7.46912    0.00000
   82      7.82985    0.00000
   83      7.92718    0.00000
   84      8.09115    0.00000
   85      8.22438    0.00000
   86      8.33853    0.00000
   87      8.59834    0.00000
   88      8.61767    0.00000
   89      8.82777    0.00000
   90      9.00365    0.00000
   91      9.20443    0.00000
   92      9.24252    0.00000
   93      9.33994    0.00000
   94      9.41006    0.00000
   95      9.55710    0.00000
   96      9.76453    0.00000
   97      9.79278    0.00000


Forces in eV/Ang:
  0 C    -0.00004   -0.08592   -0.01553
  1 C     0.02528   -0.02931   -0.00640
  2 C     0.02691   -0.10577   -0.01860
  3 C     0.04705   -0.03482    0.01892
  4 C     0.02416    0.05478    0.03711
  5 C     0.01472    0.05797   -0.04723
  6 C     0.01142    0.04259    0.10544
  7 C     0.04627    0.08537   -0.04284
  8 C    -0.07276    0.00245    0.09683
  9 C     0.05835   -0.15678    0.04626
 10 C     0.00710    0.01259   -0.02017
 11 C    -0.05290    0.09723   -0.04038
 12 C     0.02005   -0.05169   -0.05280
 13 C     0.02341   -0.07364   -0.04615
 14 C     0.04767   -0.02595   -0.01630
 15 C    -0.05190   -0.04194    0.00218
 16 C    -0.01760    0.04233    0.02303
 17 C    -0.03505    0.11644   -0.04867
 18 C     0.05618    0.01487   -0.03662
 19 C    -0.10600   -0.00583    0.02671
 20 C    -0.04551    0.01842   -0.02459
 21 C    -0.06980    0.02939    0.00731
 22 C     0.07091    0.05888    0.02523
 23 C    -0.04199    0.02029    0.04330

System changes: positions 

Initializing position-dependent things.

Density initialized from wave functions
           .--------------------------------------.  
          /|                                      |  
         / |                                      |  
        /  |                                      |  
       /   |                                      |  
      /    |                                      |  
     /     |                                      |  
    /      |                                      |  
   /       |          C                           |  
  /       C|           C                       C  |  
 *         | C C        C                         |  
 |         |     C C    C  C                      |  
 |         .---CC-----C--C------------------------.  
 |        /   C          C     C                 /   
 |       /      C       C   C                   /    
 |      /          C  C                        /     
 |     /                                      /      
 |    /                                      /       
 |   /                                      /        
 |  /                                      /         
 | /                                      /          
 |/                                      /           
 *--------------------------------------*            

Positions:
   0 C      8.560751    5.338146    4.644503
   1 C     11.158827    5.080604    4.540595
   2 C      8.611891    3.962993    4.572915
   3 C      7.855757    2.809358    4.672574
   4 C      9.922957    4.591838    4.555188
   5 C      8.036130    6.607254    4.751238
   6 C      6.754134    7.338473    4.691943
   7 C      6.826762    9.872222    4.704803
   8 C      7.408707    8.640712    4.672065
   9 C      5.724115   12.232130    4.741648
  10 C      5.120765   13.393622    4.835924
  11 C      8.589391    7.893958    5.154909
  12 C      6.323188   11.047806    4.707725
  13 C      6.685071    2.408387    4.927842
  14 C      4.585981    3.437507    5.407976
  15 C      5.367860    2.453338    5.225906
  16 C      4.361790    4.763835    5.439608
  17 C      5.370734    7.205318    5.139835
  18 C      4.759583    5.951769    5.347739
  19 C      4.552235    8.329924    5.190991
  20 C      1.201665   10.298621    5.315517
  21 C      3.484614    9.038637    5.263286
  22 C     15.948008   10.723090    5.306948
  23 C      2.374488    9.721871    5.284255

Unit cell:
           periodic     x           y           z      points  spacing
  1. axis:    yes   16.000000    0.000000    0.000000    80     0.2000
  2. axis:    yes    0.000000   16.000000    0.000000    80     0.2000
  3. axis:    yes    0.000000    0.000000   10.000000    48     0.2083

Effective grid spacing dv^(1/3) = 0.2027

                     log10-error:    total        iterations:
           time      wfs    density  energy       fermi  poisson
iter:   1  10:50:51          +inf  -175.102911    2      5      
iter:   2  10:50:52         -2.73  -175.101774    2      1      
iter:   3  10:50:52         -2.86  -175.101138    2      1      
iter:   4  10:50:53         -3.14  -175.101382    2      1      
iter:   5  10:50:53         -3.39  -175.101357    1      1      
iter:   6  10:50:54         -3.51  -175.101438    2      1      
iter:   7  10:50:54         -3.70  -175.101469    2      1      
iter:   8  10:50:55         -3.43  -175.101224    2      1      
iter:   9  10:50:55         -3.90  -175.101305    2      1      
iter:  10  10:50:55         -4.16  -175.101285    2      1      

Converged after 10 iterations.

Dipole moment: (-2.904326, -2.236550, -0.070818) |e|*Ang

Energy contributions relative to reference atoms: (reference = -24663.074771)

Kinetic:       +103.728905
Potential:     -115.024939
External:        +0.000000
XC:            -166.722732
Entropy (-ST):   -0.130387
Local:           +2.982674
--------------------------
Free energy:   -175.166479
Extrapolated:  -175.101285

Fermi level: -4.85858

 Band  Eigenvalues  Occupancy
    0    -23.56842    2.00000
    1    -23.13484    2.00000
    2    -21.60276    2.00000
    3    -21.20875    2.00000
    4    -20.50072    2.00000
    5    -20.08385    2.00000
    6    -19.93514    2.00000
    7    -19.13623    2.00000
    8    -18.73634    2.00000
    9    -18.64809    2.00000
   10    -17.76740    2.00000
   11    -17.61569    2.00000
   12    -17.23203    2.00000
   13    -16.73586    2.00000
   14    -16.24391    2.00000
   15    -15.72679    2.00000
   16    -15.36866    2.00000
   17    -14.76013    2.00000
   18    -14.32549    2.00000
   19    -13.94395    2.00000
   20    -13.52817    2.00000
   21    -12.35766    2.00000
   22    -11.94183    2.00000
   23    -11.17858    2.00000
   24    -10.78190    2.00000
   25    -10.49185    2.00000
   26    -10.25375    2.00000
   27     -9.83266    2.00000
   28     -9.64079    2.00000
   29     -9.38431    2.00000
   30     -9.34007    2.00000
   31     -8.86475    2.00000
   32     -8.76289    2.00000
   33     -8.26182    2.00000
   34     -8.18061    2.00000
   35     -8.02049    2.00000
   36     -7.94598    2.00000
   37     -7.16684    2.00000
   38     -6.88329    2.00000
   39     -6.49694    2.00000
   40     -6.46600    2.00000
   41     -6.14026    1.99999
   42     -6.08143    1.99999
   43     -5.99198    1.99998
   44     -5.67070    1.99941
   45     -5.53611    1.99772
   46     -5.23315    1.95385
   47     -5.13941    1.88625
   48     -4.60345    0.14468
   49     -4.38755    0.01784
   50     -3.97147    0.00028
   51     -3.54040    0.00000
   52     -3.34409    0.00000
   53     -3.16255    0.00000
   54     -2.53553    0.00000
   55     -1.90943    0.00000
   56     -1.60465    0.00000
   57     -1.43995    0.00000
   58     -1.02388    0.00000
   59     -0.57438    0.00000
   60     -0.43962    0.00000
   61      0.30087    0.00000
   62      0.56841    0.00000
   63      1.39967    0.00000
   64      2.26279    0.00000
   65      2.45935    0.00000
   66      2.64043    0.00000
   67      3.15271    0.00000
   68      3.42089    0.00000
   69      3.80821    0.00000
   70      3.85278    0.00000
   71      4.04986    0.00000
   72      4.23880    0.00000
   73      4.58770    0.00000
   74      5.09711    0.00000
   75      5.28777    0.00000
   76      5.86469    0.00000
   77      6.30917    0.00000
   78      6.58390    0.00000
   79      7.07641    0.00000
   80      7.19213    0.00000
   81      7.47810    0.00000
   82      7.84058    0.00000
   83      7.91021    0.00000
   84      8.09809    0.00000
   85      8.20166    0.00000
   86      8.33320    0.00000
   87      8.59055    0.00000
   88      8.62168    0.00000
   89      8.82693    0.00000
   90      8.98632    0.00000
   91      9.21131    0.00000
   92      9.24215    0.00000
   93      9.33674    0.00000
   94      9.41389    0.00000
   95      9.56225    0.00000
   96      9.76295    0.00000
   97      9.79197    0.00000


Forces in eV/Ang:
  0 C     0.01477   -0.08848   -0.01108
  1 C     0.06826   -0.00347   -0.00488
  2 C     0.05054   -0.04176   -0.00667
  3 C     0.03104   -0.04724    0.02335
  4 C    -0.06253    0.01314    0.03775
  5 C     0.00890    0.02450   -0.03357
  6 C    -0.02336    0.01911    0.08168
  7 C     0.05326    0.01405   -0.03965
  8 C    -0.04207    0.00936    0.08056
  9 C     0.02555   -0.07339    0.03390
 10 C     0.00339   -0.00599   -0.02060
 11 C    -0.02686    0.05454   -0.02953
 12 C    -0.01758    0.01775   -0.04275
 13 C     0.00235   -0.06546   -0.03186
 14 C     0.02388   -0.00993   -0.01082
 15 C     0.00053   -0.06724   -0.01604
 16 C    -0.01235    0.04063    0.00690
 17 C    -0.04069    0.04628   -0.02902
 18 C     0.04911    0.02101   -0.02841
 19 C    -0.07886   -0.03111    0.02513
 20 C    -0.04778    0.02456   -0.00785
 21 C    -0.03648    0.02224    0.00760
 22 C     0.02850    0.06627    0.00425
 23 C    -0.01432    0.00261    0.03765

