
  ___ ___ ___ _ _ _  
 |   |   |_  | | | | 
 | | | | | . | | | | 
 |__ |  _|___|_____|  1.3.0b1
 |___|_|             

User:   esb@s65n63.grendel.cscaa.dk
Date:   Wed Nov  8 17:09:53 2017
Arch:   x86_64
Pid:    73686
Python: 2.7.13
gpaw:   /home/esb/DFT/gpaw_git/gpaw
_gpaw:  /home/esb/DFT/gpaw_git/build/bin.linux-x86_64-2.7/gpaw-python
ase:    /home/esb/DFT/ase_git/ase (version 3.15.0b1)
numpy:  /comm/swstack/core/python/2.7.13/lib/python2.7/site-packages/numpy (version 1.13.3)
scipy:  /comm/swstack/core/python/2.7.13/lib/python2.7/site-packages/scipy (version 0.19.1)
units:  Angstrom and eV
cores:  16
Extra parameters: {'blacs': True}

Input parameters:
  basis: dzp
  gpts: [80 80 48]
  kpts: [1 1 1]
  maxiter: 99
  mixer: {backend: pulay,
          beta: 0.05,
          method: separate,
          nmaxold: 5,
          weight: 75}
  mode: lcao
  nbands: -50
  occupations: {name: fermi-dirac,
                width: 0.1}
  poissonsolver: {eps: 1e-07,
                  name: fd,
                  nn: 3,
                  relax: GS}
  xc: PBE

System changes: positions, numbers, cell, pbc, initial_charges, initial_magmoms 

Initialize ...

C-setup:
  name: Carbon
  id: 4aa54d4b901d75f77cc0ea3eec22967b
  Z: 6
  valence: 4
  core: 2
  charge: 0.0
  file: /home/esb/DFT/gpaw-setups-0.8.7929/C.PBE.gz
  cutoffs: 0.64(comp), 1.14(filt), 1.14(core), lmax=2
  valence states:
                energy  radius
    2s(2.00)   -13.751   0.635
    2p(2.00)    -5.284   0.635
    *s          13.461   0.635
    *p          21.927   0.635
    *d           0.000   0.635

  LCAO basis set for C:
    Name: dzp
    File: /home/esb/DFT/gpaw-setups-0.8.7929/C.dzp.basis.gz
    Number of radial functions: 5
    Number of spherical harmonics: 13
      l=0, rc=5.5469 Bohr: 2s-sz confined orbital
      l=1, rc=6.6719 Bohr: 2p-sz confined orbital
      l=0, rc=3.0312 Bohr: 2s-dz split-valence wave
      l=1, rc=3.7500 Bohr: 2p-dz split-valence wave
      l=2, rc=6.6719 Bohr: d-type Gaussian polarization

Reference energy: -24663.074771

Spin-paired calculation

Occupation numbers:
  Fermi-Dirac: width=0.1000 eV

Convergence criteria:
  Maximum total energy change: 0.0005 eV / electron
  Maximum integral of absolute density change: 0.0001 electrons
  Maximum integral of absolute eigenstate change: 4e-08 eV^2
  Maximum number of iterations: 99

Symmetries present (total): 1

  ( 1  0  0)
  ( 0  1  0)
  ( 0  0  1)

1 k-point (Gamma)
1 k-point in the irreducible part of the Brillouin zone
       k-points in crystal coordinates                weights
   0:     0.00000000    0.00000000    0.00000000          1/1

Wave functions: LCAO
  Diagonalizer: Serial LAPACK
  Atomic Correction: dense with blas
  Datatype: float
  Eigensolver: None 

LCAO using direct dense diagonalizer 

Densities:
  Coarse grid: 80*80*48 grid
  Fine grid: 160*160*96 grid
  Total Charge: 0.000000 

Density mixing:
  Method: separate
  Backend: pulay
  Linear mixing parameter: 0.05
  Mixing with 5 old densities
  Damping of long wave oscillations: 75 

Hamiltonian:
  XC and Coulomb potentials evaluated on a 160*160*96 grid
  Using the PBE Exchange-Correlation functional
  Interpolation: tri-quintic (5. degree polynomial)
  Poisson solver: Gauss-Seidel solver with 6 multi-grid levels
    Coarsest grid: 5 x 5 x 3 points
    Stencil: 6*3+1=19 point O(h^6) finite-difference Laplacian
    Max iterations: 1000
    Tolerance: 1.000000e-07 

Memory estimate:
  Process memory now: 79.57 MiB
  Calculator: 15.59 MiB
    Density: 6.13 MiB
      Arrays: 3.81 MiB
      Localized functions: 0.86 MiB
      Mixer: 1.46 MiB
    Hamiltonian: 5.40 MiB
      Arrays: 2.49 MiB
      XC: 0.00 MiB
      Poisson: 2.85 MiB
      vbar: 0.07 MiB
    Wavefunctions: 4.05 MiB
      C [qnM]: 0.23 MiB
      S, T [2 x qmm]: 1.49 MiB
      P [aqMi]: 0.01 MiB
      TCI: 0.00 MiB
      BasisFunctions: 2.33 MiB
      Eigensolver: 0.00 MiB

Total number of cores used: 16
Domain decomposition: 2 x 4 x 2

Number of atoms: 24
Number of atomic orbitals: 312
Number of bands in calculation: 98
Bands to converge: occupied states only
Number of valence electrons: 96

... initialized

Initializing position-dependent things.

Density initialized from atomic densities
           .--------------------------------------.  
          /|                                      |  
         / |                                      |  
        /  |                                      |  
       /   |                                      |  
      /    |                                      |  
     /     |                                      |  
    /      |             C  C C                   |  
   /       |                 C                    |  
  /        |           C       C                  |  
 *         |  C C   C   C C    C                  |  
 |         | C       C    C C                     |  
 |         .---C---C-C----------------------------.  
 |        /    C    C     C                      /   
 |       /       C     C                        /    
 |      /                                      /     
 |     /                                      /      
 |    /                                      /       
 |   /                                      /        
 |  /                                      /         
 | /                                      /          
 |/                                      /           
 *--------------------------------------*            

Positions:
   0 C      3.259175    6.251518    5.560335
   1 C      4.616837    4.088007    5.355297
   2 C      4.474201    5.498887    5.461761
   3 C      5.610078    3.318896    5.305737
   4 C      3.537909    7.528178    5.687544
   5 C      4.071908    8.709465    5.847802
   6 C      6.950910    3.769821    5.309245
   7 C      5.833599    6.079579    5.484298
   8 C      7.010492    5.237664    5.381104
   9 C      8.244528    3.229307    5.229574
  10 C      5.495636    8.689150    5.818119
  11 C      6.313855    7.469667    5.597377
  12 C      9.644051    9.263721    7.732724
  13 C     10.602384    6.911818    7.391819
  14 C      9.624080    7.928453    7.213956
  15 C     10.678761    5.710157    7.030305
  16 C      8.541501    9.888730    7.389965
  17 C      7.363185   10.262196    6.967626
  18 C      9.696164    5.064954    6.243290
  19 C      8.531142    7.352203    6.402109
  20 C      8.595319    5.985341    5.920325
  21 C      9.478181    3.811310    5.649312
  22 C      6.688712    9.252010    6.224051
  23 C      7.256176    7.914228    5.917992

Unit cell:
           periodic     x           y           z      points  spacing
  1. axis:    yes   16.000000    0.000000    0.000000    80     0.2000
  2. axis:    yes    0.000000   16.000000    0.000000    80     0.2000
  3. axis:    yes    0.000000    0.000000   10.000000    48     0.2083

Effective grid spacing dv^(1/3) = 0.2027

                     log10-error:    total        iterations:
           time      wfs    density  energy       fermi  poisson
iter:   1  17:09:55          +inf  -182.969079    3      6      
iter:   2  17:09:55         -0.89  -182.019780    4      3      
iter:   3  17:09:56         -0.93  -179.051505    34     4      
iter:   4  17:09:57         -1.18  -178.365079    4      3      
iter:   5  17:09:57         -1.40  -178.505550    33     3      
iter:   6  17:09:58         -1.54  -178.335784    4      3      
iter:   7  17:09:59         -1.80  -178.334111    3      3      
iter:   8  17:10:00         -1.91  -178.295682    3      2      
iter:   9  17:10:00         -2.11  -178.284617    3      2      
iter:  10  17:10:01         -2.24  -178.274220    4      2      
iter:  11  17:10:01         -2.48  -178.269610    4      2      
iter:  12  17:10:02         -2.66  -178.267512    3      2      
iter:  13  17:10:03         -2.80  -178.272601    2      1      
iter:  14  17:10:03         -2.85  -178.268300    3      2      
iter:  15  17:10:04         -3.10  -178.273910    2      1      
iter:  16  17:10:05         -3.24  -178.275062    2      1      
iter:  17  17:10:05         -3.43  -178.270946    2      1      
iter:  18  17:10:06         -3.57  -178.271727    2      1      
iter:  19  17:10:07         -3.79  -178.269046    2      1      
iter:  20  17:10:07         -3.95  -178.265511    2      1      
iter:  21  17:10:08         -4.13  -178.266336    2      1      

Converged after 21 iterations.

Dipole moment: (0.159075, -0.245931, -0.123961) |e|*Ang

Energy contributions relative to reference atoms: (reference = -24663.074771)

Kinetic:       +137.825492
Potential:     -137.626736
External:        +0.000000
XC:            -181.301199
Entropy (-ST):   -0.344242
Local:           +3.008228
--------------------------
Free energy:   -178.438457
Extrapolated:  -178.266336

Fermi level: -4.71267

 Band  Eigenvalues  Occupancy
    0    -24.58550    2.00000
    1    -22.09882    2.00000
    2    -21.84175    2.00000
    3    -20.79822    2.00000
    4    -20.62976    2.00000
    5    -20.13052    2.00000
    6    -19.40826    2.00000
    7    -19.26905    2.00000
    8    -18.48073    2.00000
    9    -18.31103    2.00000
   10    -17.98503    2.00000
   11    -17.24162    2.00000
   12    -16.49693    2.00000
   13    -15.76679    2.00000
   14    -15.07595    2.00000
   15    -14.80145    2.00000
   16    -14.44964    2.00000
   17    -13.61530    2.00000
   18    -13.48719    2.00000
   19    -13.05687    2.00000
   20    -12.33328    2.00000
   21    -11.84078    2.00000
   22    -11.67529    2.00000
   23    -11.36000    2.00000
   24    -11.19664    2.00000
   25    -11.19031    2.00000
   26    -11.18611    2.00000
   27    -10.61742    2.00000
   28     -9.97092    2.00000
   29     -9.81607    2.00000
   30     -9.65977    2.00000
   31     -8.85645    2.00000
   32     -8.63955    2.00000
   33     -8.45491    2.00000
   34     -8.28225    2.00000
   35     -8.05319    2.00000
   36     -7.20762    2.00000
   37     -7.12063    2.00000
   38     -6.99851    2.00000
   39     -6.96611    2.00000
   40     -6.65486    2.00000
   41     -6.49982    2.00000
   42     -6.38334    2.00000
   43     -6.04289    2.00000
   44     -5.86045    1.99998
   45     -5.20065    1.98492
   46     -4.94494    1.82148
   47     -4.74126    1.14199
   48     -4.72297    1.05144
   49     -3.78961    0.00020
   50     -3.20171    0.00000
   51     -2.97308    0.00000
   52     -2.85222    0.00000
   53     -2.53817    0.00000
   54     -1.58581    0.00000
   55     -1.41810    0.00000
   56     -1.37622    0.00000
   57     -1.37122    0.00000
   58     -0.62528    0.00000
   59     -0.32485    0.00000
   60      0.44118    0.00000
   61      1.29570    0.00000
   62      2.18364    0.00000
   63      2.48884    0.00000
   64      2.82412    0.00000
   65      3.68513    0.00000
   66      3.86996    0.00000
   67      4.65018    0.00000
   68      4.71987    0.00000
   69      5.21484    0.00000
   70      5.38348    0.00000
   71      5.62569    0.00000
   72      6.29320    0.00000
   73      6.43111    0.00000
   74      6.73165    0.00000
   75      6.94812    0.00000
   76      7.16713    0.00000
   77      7.21813    0.00000
   78      7.77280    0.00000
   79      8.15187    0.00000
   80      8.18894    0.00000
   81      8.45351    0.00000
   82      8.58115    0.00000
   83      8.73550    0.00000
   84      8.96733    0.00000
   85      9.09974    0.00000
   86      9.19099    0.00000
   87      9.21653    0.00000
   88      9.49790    0.00000
   89      9.55972    0.00000
   90      9.66409    0.00000
   91      9.68674    0.00000
   92      9.88053    0.00000
   93     10.19788    0.00000
   94     10.21186    0.00000
   95     10.24634    0.00000
   96     10.40930    0.00000
   97     10.48004    0.00000


Forces in eV/Ang:
  0 C     0.77137    0.26303   -0.20968
  1 C    -0.05629    0.23220    0.02035
  2 C    -0.73234   -0.49736    0.01038
  3 C     0.07555   -0.03452   -0.16576
  4 C    -0.91437   -0.30023    0.08474
  5 C     1.71273    1.01659    0.00414
  6 C     0.99867    0.01347   -0.54741
  7 C     2.42345   -0.64810   -0.53810
  8 C     2.26165    1.90964    1.89808
  9 C     6.45078    2.91879    2.55495
 10 C    -5.20982    0.01792   -0.73964
 11 C   -29.63512  -15.23961   -9.88549
 12 C    -0.46308   -0.32123   -0.60980
 13 C    -0.15206    0.17559   -0.02426
 14 C     0.69041    0.17466    0.49971
 15 C     0.07510   -0.02330   -0.15858
 16 C     0.59557    0.42473    0.62070
 17 C    -1.57220   -0.55097   -1.11416
 18 C    -0.24066   -0.55367   -0.92983
 19 C    -0.48071   -2.00311   -1.50209
 20 C    -3.44243   -0.79068   -0.04544
 21 C    -6.55919   -3.17112   -1.84678
 22 C     2.95120    3.87922    2.05358
 23 C    30.44830   13.11883   10.53794

System changes: positions 

Initializing position-dependent things.

Density initialized from wave functions
           .--------------------------------------.  
          /|                                      |  
         / |                                      |  
        /  |                                      |  
       /   |                                      |  
      /    |                                      |  
     /     |                                      |  
    /      |             C  C C                   |  
   /       |                 C                    |  
  /        |           C       C                  |  
 *         |  C C   C   C C    C                  |  
 |         | C       C    C C                     |  
 |         .---C---C-C----------------------------.  
 |        /    C    C     C                      /   
 |       /       C     C                        /    
 |      /                                      /     
 |     /                                      /      
 |    /                                      /       
 |   /                                      /        
 |  /                                      /         
 | /                                      /          
 |/                                      /           
 *--------------------------------------*            

Positions:
   0 C      3.260062    6.251820    5.560094
   1 C      4.616772    4.088274    5.355321
   2 C      4.473359    5.498315    5.461773
   3 C      5.610165    3.318857    5.305546
   4 C      3.536858    7.527832    5.687641
   5 C      4.073878    8.710634    5.847807
   6 C      6.952058    3.769837    5.308615
   7 C      5.836385    6.078834    5.483679
   8 C      7.013092    5.239860    5.383286
   9 C      8.251945    3.232663    5.232511
  10 C      5.489645    8.689171    5.817268
  11 C      6.279780    7.452145    5.586011
  12 C      9.643518    9.263351    7.732023
  13 C     10.602209    6.912020    7.391792
  14 C      9.624874    7.928654    7.214530
  15 C     10.678847    5.710130    7.030123
  16 C      8.542186    9.889219    7.390679
  17 C      7.361377   10.261562    6.966345
  18 C      9.695888    5.064318    6.242220
  19 C      8.530589    7.349900    6.400382
  20 C      8.591361    5.984432    5.920273
  21 C      9.470639    3.807664    5.647188
  22 C      6.692105    9.256470    6.226412
  23 C      7.291186    7.929312    5.930109

Unit cell:
           periodic     x           y           z      points  spacing
  1. axis:    yes   16.000000    0.000000    0.000000    80     0.2000
  2. axis:    yes    0.000000   16.000000    0.000000    80     0.2000
  3. axis:    yes    0.000000    0.000000   10.000000    48     0.2083

Effective grid spacing dv^(1/3) = 0.2027

                     log10-error:    total        iterations:
           time      wfs    density  energy       fermi  poisson
iter:   1  17:10:10          +inf  -180.782570    4      5      
iter:   2  17:10:11         -2.03  -180.743709    3      2      
iter:   3  17:10:12         -2.19  -180.714965    3      2      
iter:   4  17:10:12         -2.41  -180.715124    3      2      
iter:   5  17:10:13         -2.46  -180.707133    3      2      
iter:   6  17:10:14         -2.70  -180.705977    3      2      
iter:   7  17:10:14         -3.03  -180.706302    2      1      
iter:   8  17:10:15         -3.22  -180.705885    3      1      
iter:   9  17:10:15         -3.51  -180.704529    2      1      
iter:  10  17:10:16         -3.59  -180.704489    2      1      
iter:  11  17:10:17         -3.75  -180.704296    2      1      
iter:  12  17:10:17         -3.84  -180.703888    2      1      
iter:  13  17:10:18         -3.96  -180.703802    2      1      
iter:  14  17:10:19         -4.10  -180.704251    2      1      

Converged after 14 iterations.

Dipole moment: (0.185579, -0.282142, -0.150625) |e|*Ang

Energy contributions relative to reference atoms: (reference = -24663.074771)

Kinetic:       +127.812087
Potential:     -131.170055
External:        +0.000000
XC:            -180.165435
Entropy (-ST):   -0.336505
Local:           +2.987406
--------------------------
Free energy:   -180.872503
Extrapolated:  -180.704251

Fermi level: -4.64529

 Band  Eigenvalues  Occupancy
    0    -24.25456    2.00000
    1    -22.11151    2.00000
    2    -21.87827    2.00000
    3    -20.78173    2.00000
    4    -20.63634    2.00000
    5    -20.14103    2.00000
    6    -19.43251    2.00000
    7    -19.27488    2.00000
    8    -18.61538    2.00000
    9    -18.29680    2.00000
   10    -17.99494    2.00000
   11    -17.15477    2.00000
   12    -16.50704    2.00000
   13    -15.80271    2.00000
   14    -15.17903    2.00000
   15    -14.85408    2.00000
   16    -14.40049    2.00000
   17    -13.65167    2.00000
   18    -13.43745    2.00000
   19    -13.07080    2.00000
   20    -12.37171    2.00000
   21    -11.88155    2.00000
   22    -11.69699    2.00000
   23    -11.26497    2.00000
   24    -11.20348    2.00000
   25    -11.20255    2.00000
   26    -11.05280    2.00000
   27    -10.55087    2.00000
   28    -10.01482    2.00000
   29     -9.80547    2.00000
   30     -9.69255    2.00000
   31     -8.91028    2.00000
   32     -8.60346    2.00000
   33     -8.53024    2.00000
   34     -8.42399    2.00000
   35     -8.06774    2.00000
   36     -7.14823    2.00000
   37     -7.14668    2.00000
   38     -7.01897    2.00000
   39     -6.99527    2.00000
   40     -6.67963    2.00000
   41     -6.60125    2.00000
   42     -6.40062    2.00000
   43     -6.09549    2.00000
   44     -5.85127    1.99999
   45     -5.24795    1.99518
   46     -4.85439    1.78005
   47     -4.71745    1.34592
   48     -4.62089    0.87862
   49     -3.74378    0.00024
   50     -3.19162    0.00000
   51     -2.98413    0.00000
   52     -2.85947    0.00000
   53     -2.54952    0.00000
   54     -1.78407    0.00000
   55     -1.40154    0.00000
   56     -1.38146    0.00000
   57     -1.36607    0.00000
   58     -0.63708    0.00000
   59     -0.25883    0.00000
   60      0.41985    0.00000
   61      1.30752    0.00000
   62      2.21142    0.00000
   63      2.39739    0.00000
   64      2.95415    0.00000
   65      3.67310    0.00000
   66      3.78271    0.00000
   67      4.55652    0.00000
   68      5.02036    0.00000
   69      5.24715    0.00000
   70      5.35246    0.00000
   71      5.49859    0.00000
   72      6.24723    0.00000
   73      6.45471    0.00000
   74      6.68083    0.00000
   75      6.89954    0.00000
   76      7.14335    0.00000
   77      7.33630    0.00000
   78      7.76764    0.00000
   79      8.13496    0.00000
   80      8.21838    0.00000
   81      8.44716    0.00000
   82      8.59862    0.00000
   83      8.78795    0.00000
   84      9.03763    0.00000
   85      9.13330    0.00000
   86      9.19289    0.00000
   87      9.27595    0.00000
   88      9.47077    0.00000
   89      9.52734    0.00000
   90      9.64839    0.00000
   91      9.66751    0.00000
   92      9.92010    0.00000
   93     10.18064    0.00000
   94     10.22482    0.00000
   95     10.26581    0.00000
   96     10.42042    0.00000
   97     10.47242    0.00000


Forces in eV/Ang:
  0 C     0.69929    0.10639   -0.15201
  1 C    -0.04372    0.20806    0.00772
  2 C    -0.84001   -0.49639   -0.02654
  3 C     0.10795   -0.02859   -0.16557
  4 C    -0.70839   -0.02228    0.04061
  5 C     1.21008    0.97455    0.02666
  6 C     1.10930    0.12671   -0.53947
  7 C     2.01540   -0.81863   -0.56732
  8 C     2.49437    1.60646    1.90314
  9 C     5.94736    2.77972    2.43902
 10 C    -4.46952   -0.62671   -0.79557
 11 C   -18.00417   -8.82375   -5.83029
 12 C    -0.34540   -0.38695   -0.48969
 13 C    -0.13620    0.15679   -0.03432
 14 C     0.76379    0.25882    0.52447
 15 C     0.05466   -0.04364   -0.17666
 16 C     0.32357    0.47493    0.41737
 17 C    -1.30261   -0.22415   -0.82600
 18 C    -0.37988   -0.55786   -1.00505
 19 C    -0.14527   -1.82419   -1.27855
 20 C    -3.34508   -1.15748   -0.08744
 21 C    -6.15582   -2.89471   -1.65875
 22 C     3.06851    2.94752    1.78392
 23 C    18.08565    8.22855    6.44829

System changes: positions 

Initializing position-dependent things.

Density initialized from wave functions
           .--------------------------------------.  
          /|                                      |  
         / |                                      |  
        /  |                                      |  
       /   |                                      |  
      /    |                                      |  
     /     |                                      |  
    /      |             C  C C                   |  
   /       |                 C                    |  
  /        |           C       C                  |  
 *         |  C C   C   C C    C                  |  
 |         | C       C    C C                     |  
 |         .---C---C-C----------------------------.  
 |        /    C    C     C                      /   
 |       /       C     C                        /    
 |      /                                      /     
 |     /                                      /      
 |    /                                      /       
 |   /                                      /        
 |  /                                      /         
 | /                                      /          
 |/                                      /           
 *--------------------------------------*            

Positions:
   0 C      3.263894    6.251269    5.559588
   1 C      4.616595    4.089393    5.355271
   2 C      4.467243    5.495204    5.461319
   3 C      5.611095    3.318723    5.304508
   4 C      3.534011    7.529857    5.687553
   5 C      4.077566    8.716429    5.848150
   6 C      6.959889    3.771515    5.305288
   7 C      5.845870    6.072363    5.479887
   8 C      7.030576    5.247592    5.395283
   9 C      8.285391    3.249045    5.246932
  10 C      5.467330    8.680213    5.811834
  11 C      6.257240    7.446671    5.580960
  12 C      9.642264    9.260409    7.729882
  13 C     10.601477    6.912859    7.391498
  14 C      9.630244    7.930936    7.218018
  15 C     10.679032    5.709698    7.028872
  16 C      8.542101    9.892593    7.391718
  17 C      7.355292   10.262699    6.963399
  18 C      9.692417    5.060780    6.235320
  19 C      8.532288    7.339832    6.394090
  20 C      8.571103    5.974303    5.919397
  21 C      9.435105    3.791629    5.638231
  22 C      6.712297    9.267733    6.235520
  23 C      7.308539    7.942927    5.938774

Unit cell:
           periodic     x           y           z      points  spacing
  1. axis:    yes   16.000000    0.000000    0.000000    80     0.2000
  2. axis:    yes    0.000000   16.000000    0.000000    80     0.2000
  3. axis:    yes    0.000000    0.000000   10.000000    48     0.2083

Effective grid spacing dv^(1/3) = 0.2027

                     log10-error:    total        iterations:
           time      wfs    density  energy       fermi  poisson
iter:   1  17:10:21          +inf  -182.586621    4      5      
iter:   2  17:10:22         -1.94  -182.509376    3      2      
iter:   3  17:10:22         -2.05  -182.416779    4      2      
iter:   4  17:10:23         -2.27  -182.407860    3      2      
iter:   5  17:10:24         -2.47  -182.406405    3      1      
iter:   6  17:10:24         -2.52  -182.405321    3      2      
iter:   7  17:10:25         -2.71  -182.404607    3      2      
iter:   8  17:10:26         -2.83  -182.403790    3      2      
iter:   9  17:10:26         -3.11  -182.404327    3      2      
iter:  10  17:10:27         -3.29  -182.405234    2      1      
iter:  11  17:10:27         -3.47  -182.406008    2      1      
iter:  12  17:10:28         -3.63  -182.405216    2      1      
iter:  13  17:10:29         -3.71  -182.405004    2      1      
iter:  14  17:10:29         -3.88  -182.405075    2      1      
iter:  15  17:10:30         -3.96  -182.404760    2      1      
iter:  16  17:10:31         -4.02  -182.404828    2      1      

Converged after 16 iterations.

Dipole moment: (0.220400, -0.335096, -0.181369) |e|*Ang

Energy contributions relative to reference atoms: (reference = -24663.074771)

Kinetic:       +123.552143
Potential:     -128.768488
External:        +0.000000
XC:            -180.037644
Entropy (-ST):   -0.319138
Local:           +3.008731
--------------------------
Free energy:   -182.564397
Extrapolated:  -182.404828

Fermi level: -4.57478

 Band  Eigenvalues  Occupancy
    0    -23.95282    2.00000
    1    -22.08998    2.00000
    2    -21.85740    2.00000
    3    -20.79520    2.00000
    4    -20.62697    2.00000
    5    -20.18367    2.00000
    6    -19.45699    2.00000
    7    -19.27793    2.00000
    8    -18.66292    2.00000
    9    -18.39639    2.00000
   10    -17.98657    2.00000
   11    -17.10582    2.00000
   12    -16.57136    2.00000
   13    -15.80986    2.00000
   14    -15.18813    2.00000
   15    -14.91310    2.00000
   16    -14.36002    2.00000
   17    -13.62990    2.00000
   18    -13.44071    2.00000
   19    -13.02661    2.00000
   20    -12.42311    2.00000
   21    -11.87270    2.00000
   22    -11.74940    2.00000
   23    -11.33235    2.00000
   24    -11.18809    2.00000
   25    -11.10032    2.00000
   26    -10.98613    2.00000
   27    -10.46428    2.00000
   28     -9.93973    2.00000
   29     -9.77239    2.00000
   30     -9.68964    2.00000
   31     -9.11362    2.00000
   32     -8.70288    2.00000
   33     -8.60641    2.00000
   34     -8.42327    2.00000
   35     -8.09808    2.00000
   36     -7.15555    2.00000
   37     -7.06759    2.00000
   38     -7.00506    2.00000
   39     -6.97906    2.00000
   40     -6.68333    2.00000
   41     -6.65177    2.00000
   42     -6.44857    2.00000
   43     -6.31859    2.00000
   44     -5.99643    2.00000
   45     -5.29885    1.99857
   46     -4.75705    1.72178
   47     -4.69945    1.55346
   48     -4.51857    0.72615
   49     -3.49462    0.00004
   50     -3.16057    0.00000
   51     -2.89641    0.00000
   52     -2.86991    0.00000
   53     -2.49087    0.00000
   54     -1.85824    0.00000
   55     -1.48302    0.00000
   56     -1.36434    0.00000
   57     -1.35805    0.00000
   58     -0.58331    0.00000
   59     -0.22187    0.00000
   60      0.57428    0.00000
   61      1.55939    0.00000
   62      2.21749    0.00000
   63      2.40676    0.00000
   64      3.09562    0.00000
   65      3.64199    0.00000
   66      3.70588    0.00000
   67      4.57298    0.00000
   68      4.93452    0.00000
   69      5.25369    0.00000
   70      5.39164    0.00000
   71      5.62400    0.00000
   72      5.95209    0.00000
   73      6.21284    0.00000
   74      6.57486    0.00000
   75      6.75624    0.00000
   76      7.11661    0.00000
   77      7.38274    0.00000
   78      7.77387    0.00000
   79      8.16904    0.00000
   80      8.21715    0.00000
   81      8.36683    0.00000
   82      8.65280    0.00000
   83      8.84265    0.00000
   84      9.07622    0.00000
   85      9.13040    0.00000
   86      9.24234    0.00000
   87      9.28576    0.00000
   88      9.40922    0.00000
   89      9.53094    0.00000
   90      9.62457    0.00000
   91      9.70754    0.00000
   92      9.99979    0.00000
   93     10.17457    0.00000
   94     10.22158    0.00000
   95     10.38350    0.00000
   96     10.44033    0.00000
   97     10.45839    0.00000


Forces in eV/Ang:
  0 C     0.45458    0.34871   -0.04556
  1 C     0.05165    0.08374   -0.02245
  2 C    -0.36281   -0.44192   -0.08273
  3 C     0.50832    0.08962   -0.18101
  4 C    -0.52812   -0.01674   -0.02213
  5 C     0.14826    0.77848    0.03995
  6 C     1.18243    0.24142   -0.47375
  7 C     1.50639   -0.60687   -0.47577
  8 C     2.41550    1.04466    1.78755
  9 C     2.91364    1.71284    1.59204
 10 C    -2.16328   -0.43934   -0.44806
 11 C   -13.30890   -6.17761   -4.11867
 12 C    -0.45198   -0.07765   -0.33984
 13 C    -0.08155    0.02525   -0.07199
 14 C     0.53047   -0.02360    0.23935
 15 C    -0.21712   -0.25208   -0.42005
 16 C     0.27341    0.36488    0.28300
 17 C    -0.64335    0.41508   -0.22746
 18 C    -0.52983   -0.55514   -1.03025
 19 C    -0.06912   -1.35862   -0.99036
 20 C    -2.82939   -1.43641   -0.01277
 21 C    -3.45736   -1.27572   -0.56151
 22 C     1.62722    1.33751    0.83333
 23 C    13.05713    6.26070    4.82378

System changes: positions 

Initializing position-dependent things.

Density initialized from wave functions
           .--------------------------------------.  
          /|                                      |  
         / |                                      |  
        /  |                                      |  
       /   |                                      |  
      /    |                                      |  
     /     |                                      |  
    /      |             C  C C                   |  
   /       |                 C                    |  
  /        |           C       C                  |  
 *         |  C C   C   C C    C                  |  
 |         | C       C    C C                     |  
 |         .---C---C--C---------------------------.  
 |        /    C    C     C                      /   
 |       /       C     C                        /    
 |      /                                      /     
 |     /                                      /      
 |    /                                      /       
 |   /                                      /        
 |  /                                      /         
 | /                                      /          
 |/                                      /           
 *--------------------------------------*            

Positions:
   0 C      3.267712    6.255431    5.560110
   1 C      4.617860    4.089585    5.354710
   2 C      4.464055    5.489886    5.459626
   3 C      5.619910    3.320524    5.302134
   4 C      3.530216    7.532344    5.686526
   5 C      4.069166    8.724895    5.848941
   6 C      6.976328    3.776254    5.299691
   7 C      5.858446    6.064112    5.474040
   8 C      7.063051    5.255047    5.417415
   9 C      8.301943    3.263961    5.261667
  10 C      5.458839    8.669407    5.807397
  11 C      6.224271    7.443537    5.576465
  12 C      9.637114    9.260380    7.727494
  13 C     10.600875    6.912323    7.390294
  14 C      9.636481    7.929995    7.219829
  15 C     10.674686    5.705235    7.022120
  16 C      8.542698    9.897140    7.392664
  17 C      7.353105   10.274387    6.966355
  18 C      9.683588    5.053711    6.221398
  19 C      8.535026    7.326706    6.385154
  20 C      8.538792    5.951124    5.919215
  21 C      9.408974    3.786413    5.638547
  22 C      6.726669    9.267483    6.238621
  23 C      7.329573    7.965256    5.952330

Unit cell:
           periodic     x           y           z      points  spacing
  1. axis:    yes   16.000000    0.000000    0.000000    80     0.2000
  2. axis:    yes    0.000000   16.000000    0.000000    80     0.2000
  3. axis:    yes    0.000000    0.000000   10.000000    48     0.2083

Effective grid spacing dv^(1/3) = 0.2027

                     log10-error:    total        iterations:
           time      wfs    density  energy       fermi  poisson
iter:   1  17:10:33          +inf  -183.951532    3      5      
iter:   2  17:10:34         -1.88  -183.846675    3      2      
iter:   3  17:10:34         -2.01  -183.726798    4      2      
iter:   4  17:10:35         -2.23  -183.728105    3      2      
iter:   5  17:10:36         -2.38  -183.721523    3      1      
iter:   6  17:10:36         -2.46  -183.715933    3      2      
iter:   7  17:10:37         -2.60  -183.715228    3      2      
iter:   8  17:10:38         -2.74  -183.710274    3      2      
iter:   9  17:10:38         -2.98  -183.710380    2      1      
iter:  10  17:10:39         -3.19  -183.711208    2      1      
iter:  11  17:10:39         -3.30  -183.711393    2      1      
iter:  12  17:10:40         -3.47  -183.711439    3      1      
iter:  13  17:10:41         -3.80  -183.711623    2      1      
iter:  14  17:10:41         -3.87  -183.711781    2      1      
iter:  15  17:10:42         -3.94  -183.711903    2      1      
iter:  16  17:10:42         -4.06  -183.711838    2      1      

Converged after 16 iterations.

Dipole moment: (0.270209, -0.413953, -0.221963) |e|*Ang

Energy contributions relative to reference atoms: (reference = -24663.074771)

Kinetic:       +120.222455
Potential:     -126.863561
External:        +0.000000
XC:            -179.930304
Entropy (-ST):   -0.285156
Local:           +3.002150
--------------------------
Free energy:   -183.854416
Extrapolated:  -183.711838

Fermi level: -4.49945

 Band  Eigenvalues  Occupancy
    0    -23.79971    2.00000
    1    -22.13757    2.00000
    2    -21.83476    2.00000
    3    -20.85359    2.00000
    4    -20.61066    2.00000
    5    -20.21974    2.00000
    6    -19.49188    2.00000
    7    -19.27677    2.00000
    8    -18.68996    2.00000
    9    -18.46386    2.00000
   10    -18.00751    2.00000
   11    -17.07500    2.00000
   12    -16.60713    2.00000
   13    -15.83866    2.00000
   14    -15.24932    2.00000
   15    -15.05507    2.00000
   16    -14.28536    2.00000
   17    -13.61762    2.00000
   18    -13.40039    2.00000
   19    -13.00148    2.00000
   20    -12.50360    2.00000
   21    -11.83722    2.00000
   22    -11.81992    2.00000
   23    -11.42678    2.00000
   24    -11.15456    2.00000
   25    -11.05936    2.00000
   26    -10.92646    2.00000
   27    -10.35817    2.00000
   28     -9.94169    2.00000
   29     -9.77982    2.00000
   30     -9.68817    2.00000
   31     -9.40629    2.00000
   32     -8.92316    2.00000
   33     -8.63481    2.00000
   34     -8.41349    2.00000
   35     -8.11773    2.00000
   36     -7.17761    2.00000
   37     -7.08474    2.00000
   38     -6.98159    2.00000
   39     -6.94246    2.00000
   40     -6.71106    2.00000
   41     -6.66197    2.00000
   42     -6.55874    2.00000
   43     -6.41684    2.00000
   44     -6.11615    2.00000
   45     -5.34521    1.99958
   46     -4.68552    1.73074
   47     -4.67047    1.69370
   48     -4.40893    0.57595
   49     -3.39347    0.00003
   50     -3.16918    0.00000
   51     -2.90236    0.00000
   52     -2.80876    0.00000
   53     -2.46794    0.00000
   54     -1.98910    0.00000
   55     -1.59727    0.00000
   56     -1.34893    0.00000
   57     -1.31469    0.00000
   58     -0.52354    0.00000
   59     -0.20165    0.00000
   60      0.66250    0.00000
   61      2.05933    0.00000
   62      2.21994    0.00000
   63      2.43997    0.00000
   64      3.26558    0.00000
   65      3.59180    0.00000
   66      3.63237    0.00000
   67      4.55349    0.00000
   68      4.65427    0.00000
   69      5.08958    0.00000
   70      5.52705    0.00000
   71      5.64514    0.00000
   72      5.81900    0.00000
   73      6.15713    0.00000
   74      6.55753    0.00000
   75      6.65978    0.00000
   76      7.10981    0.00000
   77      7.54461    0.00000
   78      7.72483    0.00000
   79      8.19144    0.00000
   80      8.22574    0.00000
   81      8.34913    0.00000
   82      8.64367    0.00000
   83      8.87438    0.00000
   84      9.08494    0.00000
   85      9.08823    0.00000
   86      9.20359    0.00000
   87      9.26275    0.00000
   88      9.37178    0.00000
   89      9.50364    0.00000
   90      9.57775    0.00000
   91      9.69947    0.00000
   92     10.00109    0.00000
   93     10.13703    0.00000
   94     10.20335    0.00000
   95     10.39884    0.00000
   96     10.41155    0.00000
   97     10.46964    0.00000


Forces in eV/Ang:
  0 C     0.38805    0.10026   -0.01611
  1 C     0.42913   -0.31168   -0.06719
  2 C    -0.10296   -0.18927   -0.11763
  3 C     0.54824    0.37866   -0.20411
  4 C    -0.27231    0.21278   -0.05447
  5 C    -0.04835    0.69905    0.04040
  6 C     0.77089    0.36810   -0.31269
  7 C     1.08964   -0.29354   -0.31071
  8 C     2.02594    0.79245    1.56469
  9 C     0.56147    0.39355    0.68319
 10 C    -1.79323   -0.24984   -0.30260
 11 C    -8.21236   -4.13903   -2.57128
 12 C    -0.25519   -0.21053   -0.23158
 13 C     0.04085   -0.50545   -0.20638
 14 C     0.24482   -0.03372    0.00875
 15 C    -0.43518   -0.08130   -0.51600
 16 C    -0.00456    0.34938    0.06921
 17 C    -0.49319    0.48552   -0.13365
 18 C    -0.47006   -0.21967   -0.70605
 19 C    -0.16676   -0.88896   -0.73298
 20 C    -2.34749   -1.26005    0.09597
 21 C    -0.91353   -0.28055    0.19491
 22 C     1.20193    1.16706    0.72701
 23 C     8.31339    3.64717    3.05455

System changes: positions 

Initializing position-dependent things.

Density initialized from wave functions
           .--------------------------------------.  
          /|                                      |  
         / |                                      |  
        /  |                                      |  
       /   |                                      |  
      /    |                                      |  
     /     |                                      |  
    /      |             C  C C                   |  
   /       |                 C                    |  
  /        |           C       C                  |  
 *         |  C C   C   C C    C                  |  
 |         | C       C   C  C                     |  
 |         .---C---C--C---------------------------.  
 |        /    C    C     C                      /   
 |       /       C     C                        /    
 |      /                                      /     
 |     /                                      /      
 |    /                                      /       
 |   /                                      /        
 |  /                                      /         
 | /                                      /          
 |/                                      /           
 *--------------------------------------*            

Positions:
   0 C      3.272264    6.256593    5.560582
   1 C      4.624241    4.084783    5.353576
   2 C      4.462830    5.487048    5.457484
   3 C      5.629318    3.326246    5.299101
   4 C      3.528057    7.537422    5.685240
   5 C      4.061853    8.734406    5.849745
   6 C      6.989075    3.782758    5.295191
   7 C      5.870344    6.058819    5.469356
   8 C      7.094794    5.263080    5.440389
   9 C      8.299908    3.266826    5.269255
  10 C      5.444106    8.661190    5.803354
  11 C      6.200379    7.436909    5.572834
  12 C      9.633789    9.257741    7.725318
  13 C     10.601650    6.904794    7.387179
  14 C      9.640235    7.929363    7.219544
  15 C     10.667537    5.703165    7.013777
  16 C      8.540652    9.902381    7.391942
  17 C      7.349584   10.285743    6.968155
  18 C      9.675134    5.050174    6.210081
  19 C      8.535405    7.315863    6.376631
  20 C      8.505949    5.928839    5.920429
  21 C      9.403971    3.788050    5.645274
  22 C      6.741638    9.273294    6.244746
  23 C      7.348186    7.978567    5.963248

Unit cell:
           periodic     x           y           z      points  spacing
  1. axis:    yes   16.000000    0.000000    0.000000    80     0.2000
  2. axis:    yes    0.000000   16.000000    0.000000    80     0.2000
  3. axis:    yes    0.000000    0.000000   10.000000    48     0.2083

Effective grid spacing dv^(1/3) = 0.2027

                     log10-error:    total        iterations:
           time      wfs    density  energy       fermi  poisson
iter:   1  17:10:45          +inf  -184.557066    3      5      
iter:   2  17:10:46         -2.07  -184.508090    3      2      
iter:   3  17:10:46         -2.19  -184.448209    4      2      
iter:   4  17:10:47         -2.41  -184.451834    3      2      
iter:   5  17:10:48         -2.58  -184.450224    3      1      
iter:   6  17:10:48         -2.62  -184.445374    3      2      
iter:   7  17:10:49         -2.78  -184.446604    3      2      
iter:   8  17:10:49         -2.87  -184.442644    3      1      
iter:   9  17:10:50         -3.19  -184.441824    2      1      
iter:  10  17:10:51         -3.30  -184.442974    2      1      
iter:  11  17:10:51         -3.42  -184.442579    2      1      
iter:  12  17:10:52         -3.57  -184.443343    2      1      
iter:  13  17:10:53         -3.75  -184.442585    2      1      
iter:  14  17:10:53         -3.93  -184.442704    2      1      
iter:  15  17:10:54         -4.00  -184.442796    2      1      
iter:  16  17:10:55         -4.17  -184.442695    2      1      

Converged after 16 iterations.

Dipole moment: (0.305536, -0.468213, -0.251797) |e|*Ang

Energy contributions relative to reference atoms: (reference = -24663.074771)

Kinetic:       +117.948647
Potential:     -125.510238
External:        +0.000000
XC:            -179.764224
Entropy (-ST):   -0.248713
Local:           +3.007476
--------------------------
Free energy:   -184.567052
Extrapolated:  -184.442695

Fermi level: -4.43780

 Band  Eigenvalues  Occupancy
    0    -23.59619    2.00000
    1    -22.18373    2.00000
    2    -21.82000    2.00000
    3    -20.87844    2.00000
    4    -20.62687    2.00000
    5    -20.25408    2.00000
    6    -19.51809    2.00000
    7    -19.30782    2.00000
    8    -18.71802    2.00000
    9    -18.49845    2.00000
   10    -18.05210    2.00000
   11    -17.03039    2.00000
   12    -16.60469    2.00000
   13    -15.87317    2.00000
   14    -15.29444    2.00000
   15    -15.20205    2.00000
   16    -14.17471    2.00000
   17    -13.65110    2.00000
   18    -13.37300    2.00000
   19    -12.99313    2.00000
   20    -12.56095    2.00000
   21    -11.84769    2.00000
   22    -11.81252    2.00000
   23    -11.49829    2.00000
   24    -11.12489    2.00000
   25    -11.04169    2.00000
   26    -10.90362    2.00000
   27    -10.31683    2.00000
   28     -9.94031    2.00000
   29     -9.76636    2.00000
   30     -9.68932    2.00000
   31     -9.56199    2.00000
   32     -9.07709    2.00000
   33     -8.63860    2.00000
   34     -8.42697    2.00000
   35     -8.13272    2.00000
   36     -7.18876    2.00000
   37     -7.11528    2.00000
   38     -7.00204    2.00000
   39     -6.86586    2.00000
   40     -6.74860    2.00000
   41     -6.67181    2.00000
   42     -6.59175    2.00000
   43     -6.45127    2.00000
   44     -6.17703    2.00000
   45     -5.40312    1.99987
   46     -4.68645    1.84638
   47     -4.60769    1.69078
   48     -4.31779    0.46291
   49     -3.37446    0.00005
   50     -3.15543    0.00001
   51     -2.88219    0.00000
   52     -2.79646    0.00000
   53     -2.52283    0.00000
   54     -2.05804    0.00000
   55     -1.68828    0.00000
   56     -1.35498    0.00000
   57     -1.29626    0.00000
   58     -0.49191    0.00000
   59     -0.14000    0.00000
   60      0.67847    0.00000
   61      2.22223    0.00000
   62      2.37989    0.00000
   63      2.63097    0.00000
   64      3.27501    0.00000
   65      3.54459    0.00000
   66      3.54870    0.00000
   67      4.42686    0.00000
   68      4.54313    0.00000
   69      4.86482    0.00000
   70      5.41219    0.00000
   71      5.70083    0.00000
   72      5.88383    0.00000
   73      6.29827    0.00000
   74      6.52885    0.00000
   75      6.62569    0.00000
   76      7.05295    0.00000
   77      7.58801    0.00000
   78      7.69810    0.00000
   79      8.17473    0.00000
   80      8.23730    0.00000
   81      8.37024    0.00000
   82      8.65307    0.00000
   83      8.90009    0.00000
   84      9.05018    0.00000
   85      9.06378    0.00000
   86      9.18506    0.00000
   87      9.27248    0.00000
   88      9.35568    0.00000
   89      9.47671    0.00000
   90      9.54322    0.00000
   91      9.68031    0.00000
   92     10.00275    0.00000
   93     10.12264    0.00000
   94     10.18381    0.00000
   95     10.35128    0.00000
   96     10.44102    0.00000
   97     10.45684    0.00000


Forces in eV/Ang:
  0 C     0.36961    0.16083    0.02620
  1 C     0.24378   -0.11711   -0.06062
  2 C     0.16622   -0.15260   -0.14546
  3 C     0.80339    0.25316   -0.23335
  4 C    -0.16409    0.08466   -0.09272
  5 C    -0.46113    0.67294    0.04873
  6 C     0.43957    0.41154   -0.15329
  7 C     0.76446   -0.22158   -0.19722
  8 C     1.36749    0.58392    1.28698
  9 C     0.64556    0.10055    0.53776
 10 C    -0.74982   -0.09294   -0.13400
 11 C    -5.17214   -2.57932   -1.57701
 12 C    -0.30934   -0.15992   -0.19312
 13 C     0.00118   -0.22135   -0.16031
 14 C     0.10092   -0.19565   -0.17150
 15 C    -0.46289   -0.35071   -0.65322
 16 C     0.04694    0.19810    0.00018
 17 C    -0.27365    0.76368    0.11384
 18 C    -0.41510   -0.00079   -0.43360
 19 C    -0.12396   -0.64437   -0.48567
 20 C    -1.73611   -0.88415    0.22482
 21 C    -0.66865   -0.48909    0.09903
 22 C     0.46918    0.51887    0.30511
 23 C     5.20705    2.30555    1.95677

System changes: positions 

Initializing position-dependent things.

Density initialized from wave functions
           .--------------------------------------.  
          /|                                      |  
         / |                                      |  
        /  |                                      |  
       /   |                                      |  
      /    |                                      |  
     /     |                                      |  
    /      |             C  C C                   |  
   /       |                 C                    |  
  /        |           C       C                  |  
 *         |  C C   C   C C    C                  |  
 |         | C       C   C  C                     |  
 |         .---C---C--C---------------------------.  
 |        /    C    C     C                      /   
 |       /       C     C                        /    
 |      /                                      /     
 |     /                                      /      
 |    /                                      /       
 |   /                                      /        
 |  /                                      /         
 | /                                      /          
 |/                                      /           
 *--------------------------------------*            

Positions:
   0 C      3.278541    6.259172    5.561598
   1 C      4.629451    4.081892    5.352258
   2 C      4.465650    5.483995    5.454362
   3 C      5.645464    3.331564    5.294599
   4 C      3.526271    7.541091    5.683103
   5 C      4.048246    8.746912    5.850855
   6 C      6.999398    3.791615    5.291994
   7 C      5.882300    6.053493    5.465197
   8 C      7.124336    5.271800    5.465909
   9 C      8.303866    3.266908    5.277951
  10 C      5.436939    8.655024    5.800671
  11 C      6.178832    7.431091    5.570128
  12 C      9.628350    9.254787    7.722542
  13 C     10.601911    6.899783    7.383888
  14 C      9.642646    7.925871    7.216264
  15 C     10.657996    5.696229    7.000764
  16 C      8.539670    9.906661    7.390549
  17 C      7.346907   10.303524    6.972993
  18 C      9.665669    5.049528    6.200372
  19 C      8.535366    7.304751    6.368645
  20 C      8.472396    5.907745    5.924363
  21 C      9.397444    3.783636    5.650535
  22 C      6.750285    9.275214    6.247822
  23 C      7.364766    7.990551    5.973614

Unit cell:
           periodic     x           y           z      points  spacing
  1. axis:    yes   16.000000    0.000000    0.000000    80     0.2000
  2. axis:    yes    0.000000   16.000000    0.000000    80     0.2000
  3. axis:    yes    0.000000    0.000000   10.000000    48     0.2083

Effective grid spacing dv^(1/3) = 0.2027

                     log10-error:    total        iterations:
           time      wfs    density  energy       fermi  poisson
iter:   1  17:10:57          +inf  -185.046076    3      5      
iter:   2  17:10:58         -2.04  -184.983855    3      2      
iter:   3  17:10:58         -2.19  -184.908354    4      2      
iter:   4  17:10:59         -2.45  -184.913748    3      2      
iter:   5  17:11:00         -2.62  -184.909872    3      2      
iter:   6  17:11:00         -2.72  -184.903015    3      2      
iter:   7  17:11:01         -3.01  -184.903613    2      2      
iter:   8  17:11:02         -3.23  -184.903561    2      1      
iter:   9  17:11:02         -3.34  -184.903939    2      1      
iter:  10  17:11:03         -3.58  -184.904028    2      1      
iter:  11  17:11:03         -3.67  -184.903982    2      1      
iter:  12  17:11:04         -3.82  -184.903764    2      1      
iter:  13  17:11:05         -3.97  -184.903699    2      1      
iter:  14  17:11:05         -4.08  -184.903801    2      1      

Converged after 14 iterations.

Dipole moment: (0.333457, -0.514538, -0.270667) |e|*Ang

Energy contributions relative to reference atoms: (reference = -24663.074771)

Kinetic:       +116.217420
Potential:     -124.438376
External:        +0.000000
XC:            -179.572228
Entropy (-ST):   -0.221216
Local:           +2.999990
--------------------------
Free energy:   -185.014409
Extrapolated:  -184.903801

Fermi level: -4.40846

 Band  Eigenvalues  Occupancy
    0    -23.47681    2.00000
    1    -22.24319    2.00000
    2    -21.81404    2.00000
    3    -20.89874    2.00000
    4    -20.62520    2.00000
    5    -20.27298    2.00000
    6    -19.55112    2.00000
    7    -19.30878    2.00000
    8    -18.73867    2.00000
    9    -18.53700    2.00000
   10    -18.04906    2.00000
   11    -17.01981    2.00000
   12    -16.64197    2.00000
   13    -15.87244    2.00000
   14    -15.34502    2.00000
   15    -15.33358    2.00000
   16    -14.08712    2.00000
   17    -13.63678    2.00000
   18    -13.34768    2.00000
   19    -13.00005    2.00000
   20    -12.62167    2.00000
   21    -11.86869    2.00000
   22    -11.79639    2.00000
   23    -11.54187    2.00000
   24    -11.08109    2.00000
   25    -11.07995    2.00000
   26    -10.88855    2.00000
   27    -10.38608    2.00000
   28     -9.92650    2.00000
   29     -9.83485    2.00000
   30     -9.69231    2.00000
   31     -9.49490    2.00000
   32     -9.17424    2.00000
   33     -8.64429    2.00000
   34     -8.42763    2.00000
   35     -8.13982    2.00000
   36     -7.19835    2.00000
   37     -7.15201    2.00000
   38     -7.01378    2.00000
   39     -6.82242    2.00000
   40     -6.76985    2.00000
   41     -6.65844    2.00000
   42     -6.62561    2.00000
   43     -6.47272    2.00000
   44     -6.24687    2.00000
   45     -5.41309    1.99991
   46     -4.69449    1.89170
   47     -4.59064    1.72156
   48     -4.26564    0.38676
   49     -3.36796    0.00006
   50     -3.17247    0.00001
   51     -2.92239    0.00000
   52     -2.77046    0.00000
   53     -2.53195    0.00000
   54     -2.12442    0.00000
   55     -1.78745    0.00000
   56     -1.37319    0.00000
   57     -1.28320    0.00000
   58     -0.41738    0.00000
   59     -0.11120    0.00000
   60      0.67959    0.00000
   61      2.19603    0.00000
   62      2.40439    0.00000
   63      3.05381    0.00000
   64      3.22046    0.00000
   65      3.47667    0.00000
   66      3.49663    0.00000
   67      4.25670    0.00000
   68      4.47398    0.00000
   69      4.72646    0.00000
   70      5.30959    0.00000
   71      5.77726    0.00000
   72      6.03949    0.00000
   73      6.37695    0.00000
   74      6.50773    0.00000
   75      6.70680    0.00000
   76      7.06916    0.00000
   77      7.53239    0.00000
   78      7.73977    0.00000
   79      8.14306    0.00000
   80      8.23773    0.00000
   81      8.40946    0.00000
   82      8.62401    0.00000
   83      8.90863    0.00000
   84      8.98496    0.00000
   85      9.05139    0.00000
   86      9.15430    0.00000
   87      9.28909    0.00000
   88      9.32560    0.00000
   89      9.45888    0.00000
   90      9.51360    0.00000
   91      9.67028    0.00000
   92      9.95089    0.00000
   93     10.10225    0.00000
   94     10.18429    0.00000
   95     10.31849    0.00000
   96     10.43020    0.00000
   97     10.44748    0.00000


Forces in eV/Ang:
  0 C     0.40628    0.07200    0.02431
  1 C     0.51918   -0.31050   -0.08266
  2 C     0.29577   -0.09296   -0.14623
  3 C     0.43450    0.41416   -0.22664
  4 C    -0.05753    0.16198   -0.08954
  5 C    -0.30417    0.55856    0.04989
  6 C     0.53289    0.36462   -0.00131
  7 C     0.43798   -0.12199   -0.05503
  8 C     0.48509    0.20539    0.87146
  9 C    -0.03931   -0.29469    0.22803
 10 C    -0.67499    0.07451   -0.02178
 11 C    -2.99652   -1.57920   -0.89972
 12 C    -0.27226   -0.24205   -0.19489
 13 C     0.02392   -0.55374   -0.27177
 14 C    -0.00694   -0.23053   -0.25689
 15 C    -0.37288    0.05258   -0.48565
 16 C    -0.04683    0.16210   -0.07663
 17 C    -0.28108    0.59928    0.09502
 18 C    -0.49375   -0.13947   -0.35766
 19 C    -0.11820   -0.38619   -0.24143
 20 C    -0.82164   -0.38211    0.43691
 21 C     0.09593   -0.23302    0.28495
 22 C     0.28407    0.53060    0.30640
 23 C     3.02961    1.29700    1.14909

System changes: positions 

Initializing position-dependent things.

Density initialized from wave functions
           .--------------------------------------.  
          /|                                      |  
         / |                                      |  
        /  |                                      |  
       /   |                                      |  
      /    |                                      |  
     /     |                                      |  
    /      |             C  C C                   |  
   /       |                 C                    |  
  /        |    C      C       C                  |  
 *         |  C     C   C C    C                  |  
 |         | C       C   C  C                     |  
 |         .---C---C--C---------------------------.  
 |        /    C    C     C                      /   
 |       /       C     C                        /    
 |      /                                      /     
 |     /                                      /      
 |    /                                      /       
 |   /                                      /        
 |  /                                      /         
 | /                                      /          
 |/                                      /           
 *--------------------------------------*            

Positions:
   0 C      3.289781    6.261614    5.562877
   1 C      4.643067    4.073864    5.349821
   2 C      4.472868    5.480340    5.449622
   3 C      5.662156    3.342920    5.287688
   4 C      3.525003    7.547387    5.680005
   5 C      4.032905    8.764341    5.852550
   6 C      7.017048    3.803913    5.290432
   7 C      5.895361    6.047465    5.461902
   8 C      7.149377    5.278444    5.496385
   9 C      8.302300    3.260574    5.286587
  10 C      5.423412    8.650853    5.798835
  11 C      6.154796    7.423163    5.567412
  12 C      9.620231    9.248247    7.717572
  13 C     10.602549    6.885540    7.376477
  14 C      9.644095    7.919510    7.209416
  15 C     10.645646    5.694253    6.984407
  16 C      8.537175    9.912330    7.387467
  17 C      7.341074   10.326220    6.978798
  18 C      9.649719    5.045480    6.187313
  19 C      8.534501    7.292025    6.360792
  20 C      8.440076    5.887953    5.935455
  21 C      9.397925    3.778312    5.660142
  22 C      6.760487    9.282535    6.254188
  23 C      7.383184    8.003381    5.985372

Unit cell:
           periodic     x           y           z      points  spacing
  1. axis:    yes   16.000000    0.000000    0.000000    80     0.2000
  2. axis:    yes    0.000000   16.000000    0.000000    80     0.2000
  3. axis:    yes    0.000000    0.000000   10.000000    48     0.2083

Effective grid spacing dv^(1/3) = 0.2027

                     log10-error:    total        iterations:
           time      wfs    density  energy       fermi  poisson
iter:   1  17:11:08          +inf  -185.372763    3      5      
iter:   2  17:11:08         -2.00  -185.297184    3      2      
iter:   3  17:11:09         -2.14  -185.206259    4      2      
iter:   4  17:11:10         -2.43  -185.207615    2      2      
iter:   5  17:11:10         -2.61  -185.205324    3      2      
iter:   6  17:11:11         -2.74  -185.196743    3      2      
iter:   7  17:11:12         -2.95  -185.198880    3      1      
iter:   8  17:11:12         -3.21  -185.200906    2      1      
iter:   9  17:11:13         -3.53  -185.201178    2      1      
iter:  10  17:11:13         -3.57  -185.201306    2      1      
iter:  11  17:11:14         -3.63  -185.201240    2      1      
iter:  12  17:11:15         -3.59  -185.201414    2      1      
iter:  13  17:11:15         -3.86  -185.200820    2      1      
iter:  14  17:11:16         -4.03  -185.200794    2      1      

Converged after 14 iterations.

Dipole moment: (0.365806, -0.572149, -0.291784) |e|*Ang

Energy contributions relative to reference atoms: (reference = -24663.074771)

Kinetic:       +116.347239
Potential:     -124.784980
External:        +0.000000
XC:            -179.674131
Entropy (-ST):   -0.187185
Local:           +3.004670
--------------------------
Free energy:   -185.294387
Extrapolated:  -185.200794

Fermi level: -4.37146

 Band  Eigenvalues  Occupancy
    0    -23.32406    2.00000
    1    -22.30694    2.00000
    2    -21.82498    2.00000
    3    -20.90684    2.00000
    4    -20.63867    2.00000
    5    -20.30599    2.00000
    6    -19.58436    2.00000
    7    -19.32061    2.00000
    8    -18.77301    2.00000
    9    -18.57713    2.00000
   10    -18.07721    2.00000
   11    -16.99211    2.00000
   12    -16.67602    2.00000
   13    -15.88613    2.00000
   14    -15.46661    2.00000
   15    -15.38571    2.00000
   16    -13.96928    2.00000
   17    -13.65727    2.00000
   18    -13.33258    2.00000
   19    -12.98482    2.00000
   20    -12.68252    2.00000
   21    -11.89581    2.00000
   22    -11.79005    2.00000
   23    -11.58506    2.00000
   24    -11.16667    2.00000
   25    -11.05336    2.00000
   26    -10.87299    2.00000
   27    -10.46563    2.00000
   28     -9.91488    2.00000
   29     -9.86501    2.00000
   30     -9.70685    2.00000
   31     -9.29433    2.00000
   32     -9.28698    2.00000
   33     -8.63630    2.00000
   34     -8.43936    2.00000
   35     -8.15539    2.00000
   36     -7.20425    2.00000
   37     -7.19736    2.00000
   38     -7.03155    2.00000
   39     -6.80445    2.00000
   40     -6.76274    2.00000
   41     -6.67476    2.00000
   42     -6.64621    2.00000
   43     -6.51230    2.00000
   44     -6.30246    2.00000
   45     -5.44881    1.99996
   46     -4.70530    1.93145
   47     -4.57356    1.76598
   48     -4.19898    0.30252
   49     -3.36592    0.00009
   50     -3.17138    0.00001
   51     -2.87987    0.00000
   52     -2.77113    0.00000
   53     -2.60550    0.00000
   54     -2.17935    0.00000
   55     -1.83543    0.00000
   56     -1.40874    0.00000
   57     -1.27449    0.00000
   58     -0.35815    0.00000
   59     -0.05692    0.00000
   60      0.72104    0.00000
   61      2.18778    0.00000
   62      2.37624    0.00000
   63      3.15311    0.00000
   64      3.23893    0.00000
   65      3.43912    0.00000
   66      3.54245    0.00000
   67      4.15510    0.00000
   68      4.16438    0.00000
   69      4.75960    0.00000
   70      5.18428    0.00000
   71      5.88204    0.00000
   72      6.17304    0.00000
   73      6.50998    0.00000
   74      6.53111    0.00000
   75      6.82779    0.00000
   76      7.07024    0.00000
   77      7.45292    0.00000
   78      7.76963    0.00000
   79      8.09793    0.00000
   80      8.27302    0.00000
   81      8.39565    0.00000
   82      8.60069    0.00000
   83      8.91429    0.00000
   84      8.96300    0.00000
   85      9.05147    0.00000
   86      9.13787    0.00000
   87      9.30084    0.00000
   88      9.32146    0.00000
   89      9.44826    0.00000
   90      9.48537    0.00000
   91      9.67449    0.00000
   92      9.91050    0.00000
   93     10.07402    0.00000
   94     10.18804    0.00000
   95     10.30201    0.00000
   96     10.40231    0.00000
   97     10.45770    0.00000


Forces in eV/Ang:
  0 C     0.51065    0.07474   -0.00617
  1 C    -0.00915    0.16360   -0.06609
  2 C     0.38217   -0.10351   -0.13737
  3 C     0.84684    0.08547   -0.27748
  4 C     0.03513    0.14879   -0.08457
  5 C    -0.32574    0.37827    0.03912
  6 C     0.20549    0.16295    0.11239
  7 C     0.01949   -0.02003    0.08788
  8 C    -0.49900   -0.18825    0.32589
  9 C     0.35353   -0.30865    0.18329
 10 C    -0.21379    0.17376    0.09927
 11 C    -0.99857   -0.43507   -0.25901
 12 C    -0.29402   -0.30149   -0.24196
 13 C    -0.05263    0.19484   -0.05288
 14 C    -0.04839   -0.28192   -0.27902
 15 C    -0.32233   -0.51966   -0.70070
 16 C    -0.09972    0.09084   -0.14014
 17 C    -0.16526    0.49990    0.11129
 18 C    -0.28910   -0.05608   -0.08094
 19 C    -0.03447   -0.02331    0.08006
 20 C     0.20767    0.13074    0.57436
 21 C    -0.04245   -0.50512    0.07736
 22 C    -0.04156    0.25743    0.16768
 23 C     0.93559    0.47968    0.41041

System changes: positions 

Initializing position-dependent things.

Density initialized from wave functions
           .--------------------------------------.  
          /|                                      |  
         / |                                      |  
        /  |                                      |  
       /   |                                      |  
      /    |                                      |  
     /     |                                      |  
    /      |             C  C C                   |  
   /       |                 C                    |  
  /        |    C      C       C                  |  
 *         |  C     C   C C   C                   |  
 |         | C       C   C  C                     |  
 |         .---C---C--C---------------------------.  
 |        /    C     C    C                      /   
 |       /       C     C                        /    
 |      /                                      /     
 |     /                                      /      
 |    /                                      /       
 |   /                                      /        
 |  /                                      /         
 | /                                      /          
 |/                                      /           
 *--------------------------------------*            

Positions:
   0 C      3.306900    6.264491    5.563528
   1 C      4.650129    4.073025    5.347019
   2 C      4.484467    5.475875    5.443947
   3 C      5.690621    3.350984    5.277807
   4 C      3.525150    7.554794    5.676392
   5 C      4.016215    8.782329    5.854373
   6 C      7.031986    3.814529    5.291447
   7 C      5.903192    6.043138    5.461492
   8 C      7.155742    5.278220    5.521666
   9 C      8.307829    3.250881    5.295624
  10 C      5.411758    8.650516    5.799515
  11 C      6.134722    7.418295    5.565842
  12 C      9.609498    9.238116    7.709750
  13 C     10.601827    6.882141    7.371382
  14 C      9.644375    7.910226    7.199961
  15 C     10.631428    5.681147    6.959690
  16 C      8.533114    9.917878    7.382503
  17 C      7.334716   10.350474    6.984875
  18 C      9.634310    5.041862    6.177485
  19 C      8.533893    7.284123    6.357846
  20 C      8.424250    5.877239    5.953447
  21 C      9.397419    3.765600    5.667909
  22 C      6.766506    9.290750    6.261172
  23 C      7.397254    8.014983    5.995719

Unit cell:
           periodic     x           y           z      points  spacing
  1. axis:    yes   16.000000    0.000000    0.000000    80     0.2000
  2. axis:    yes    0.000000   16.000000    0.000000    80     0.2000
  3. axis:    yes    0.000000    0.000000   10.000000    48     0.2083

Effective grid spacing dv^(1/3) = 0.2027

                     log10-error:    total        iterations:
           time      wfs    density  energy       fermi  poisson
iter:   1  17:11:18          +inf  -185.442397    3      5      
iter:   2  17:11:19         -2.03  -185.388799    3      2      
iter:   3  17:11:20         -2.17  -185.325992    3      2      
iter:   4  17:11:20         -2.53  -185.327041    2      2      
iter:   5  17:11:21         -2.73  -185.327654    3      1      
iter:   6  17:11:22         -2.84  -185.320979    3      2      
iter:   7  17:11:22         -3.05  -185.320994    3      1      
iter:   8  17:11:23         -3.13  -185.323726    3      1      
iter:   9  17:11:23         -3.56  -185.322637    2      1      
iter:  10  17:11:24         -3.63  -185.322496    2      1      
iter:  11  17:11:25         -3.72  -185.322996    2      1      
iter:  12  17:11:25         -3.82  -185.322595    2      1      
iter:  13  17:11:26         -4.00  -185.322532    2      1      
iter:  14  17:11:27         -4.09  -185.322750    2      1      

Converged after 14 iterations.

Dipole moment: (0.387745, -0.619187, -0.302469) |e|*Ang

Energy contributions relative to reference atoms: (reference = -24663.074771)

Kinetic:       +115.394468
Potential:     -124.147175
External:        +0.000000
XC:            -179.486466
Entropy (-ST):   -0.168706
Local:           +3.000777
--------------------------
Free energy:   -185.407103
Extrapolated:  -185.322750

Fermi level: -4.36091

 Band  Eigenvalues  Occupancy
    0    -23.23076    2.00000
    1    -22.33205    2.00000
    2    -21.86327    2.00000
    3    -20.91359    2.00000
    4    -20.65159    2.00000
    5    -20.31974    2.00000
    6    -19.55006    2.00000
    7    -19.35921    2.00000
    8    -18.78185    2.00000
    9    -18.62627    2.00000
   10    -18.04055    2.00000
   11    -16.99906    2.00000
   12    -16.69244    2.00000
   13    -15.86775    2.00000
   14    -15.49746    2.00000
   15    -15.45051    2.00000
   16    -13.90095    2.00000
   17    -13.66952    2.00000
   18    -13.32217    2.00000
   19    -12.99878    2.00000
   20    -12.72930    2.00000
   21    -11.91747    2.00000
   22    -11.82152    2.00000
   23    -11.60689    2.00000
   24    -11.22945    2.00000
   25    -11.06438    2.00000
   26    -10.85827    2.00000
   27    -10.48864    2.00000
   28     -9.91599    2.00000
   29     -9.85235    2.00000
   30     -9.73347    2.00000
   31     -9.39896    2.00000
   32     -9.10704    2.00000
   33     -8.61871    2.00000
   34     -8.44590    2.00000
   35     -8.16376    2.00000
   36     -7.21289    2.00000
   37     -7.17604    2.00000
   38     -7.06227    2.00000
   39     -6.81832    2.00000
   40     -6.71841    2.00000
   41     -6.68055    2.00000
   42     -6.62640    2.00000
   43     -6.47334    2.00000
   44     -6.34796    2.00000
   45     -5.42881    1.99995
   46     -4.71493    1.94362
   47     -4.57903    1.79709
   48     -4.17043    0.25914
   49     -3.42856    0.00018
   50     -3.17510    0.00001
   51     -2.95515    0.00000
   52     -2.80155    0.00000
   53     -2.63519    0.00000
   54     -2.25568    0.00000
   55     -1.84103    0.00000
   56     -1.44636    0.00000
   57     -1.25943    0.00000
   58     -0.32259    0.00000
   59     -0.02776    0.00000
   60      0.68175    0.00000
   61      2.15336    0.00000
   62      2.37486    0.00000
   63      3.20926    0.00000
   64      3.22839    0.00000
   65      3.40542    0.00000
   66      3.61012    0.00000
   67      3.88098    0.00000
   68      4.13611    0.00000
   69      4.83860    0.00000
   70      5.11409    0.00000
   71      5.92748    0.00000
   72      6.29982    0.00000
   73      6.57550    0.00000
   74      6.66232    0.00000
   75      6.96635    0.00000
   76      7.15015    0.00000
   77      7.43722    0.00000
   78      7.77234    0.00000
   79      8.05209    0.00000
   80      8.27655    0.00000
   81      8.33617    0.00000
   82      8.57296    0.00000
   83      8.92060    0.00000
   84      8.95592    0.00000
   85      9.07819    0.00000
   86      9.12888    0.00000
   87      9.31573    0.00000
   88      9.33777    0.00000
   89      9.44840    0.00000
   90      9.47397    0.00000
   91      9.65552    0.00000
   92      9.88289    0.00000
   93     10.05674    0.00000
   94     10.20397    0.00000
   95     10.31183    0.00000
   96     10.38036    0.00000
   97     10.47068    0.00000


Forces in eV/Ang:
  0 C     0.49729    0.25044   -0.03042
  1 C     0.78644   -0.53548   -0.16170
  2 C     0.26695    0.02865   -0.08000
  3 C    -0.39010    0.46134   -0.23032
  4 C     0.04084    0.00390   -0.08941
  5 C    -0.15845    0.26452    0.05543
  6 C     0.26444   -0.04640    0.17189
  7 C    -0.23372    0.03518    0.17732
  8 C    -0.76298   -0.25375   -0.00728
  9 C     0.08002   -0.42934    0.03983
 10 C    -0.01532    0.21678    0.15278
 11 C     0.28466    0.38154    0.20812
 12 C    -0.44673   -0.17253   -0.34590
 13 C     0.09440   -1.00854   -0.44316
 14 C    -0.12286   -0.11388   -0.19866
 15 C    -0.04092    0.75082   -0.06998
 16 C     0.01953   -0.01673   -0.10913
 17 C    -0.10825    0.28960    0.07500
 18 C    -0.18309   -0.24828    0.03913
 19 C     0.00479    0.15252    0.27289
 20 C     0.56977    0.35968    0.46164
 21 C     0.26108   -0.35374    0.09238
 22 C    -0.23044    0.10301    0.07725
 23 C    -0.47549   -0.01393   -0.05497

System changes: positions 

Initializing position-dependent things.

Density initialized from wave functions
           .--------------------------------------.  
          /|                                      |  
         / |                                      |  
        /  |                                      |  
       /   |                                      |  
      /    |                                      |  
     /     |                                      |  
    /      |             C  C C                   |  
   /       |                 C                    |  
  /        |    C      C       C                  |  
 *         |  C     C   C C   C                   |  
 |         | C       C   C  C                     |  
 |         .---C---C--C---------------------------.  
 |        /    C     C    C                      /   
 |       /       C     C                        /    
 |      /                                      /     
 |     /                                      /      
 |    /                                      /       
 |   /                                      /        
 |  /                                      /         
 | /                                      /          
 |/                                      /           
 *--------------------------------------*            

Positions:
   0 C      3.325110    6.270598    5.563383
   1 C      4.666646    4.064141    5.342753
   2 C      4.495249    5.473543    5.439332
   3 C      5.701402    3.362928    5.268212
   4 C      3.525593    7.558941    5.672808
   5 C      4.003671    8.797475    5.856355
   6 C      7.045027    3.819965    5.294511
   7 C      5.904710    6.040880    5.463843
   8 C      7.148782    5.274780    5.537220
   9 C      8.314746    3.239431    5.302551
  10 C      5.404273    8.653479    5.802141
  11 C      6.121303    7.418942    5.566387
  12 C      9.595669    9.229546    7.699386
  13 C     10.602896    6.864214    7.361308
  14 C      9.642837    7.903041    7.191441
  15 C     10.622374    5.685159    6.943843
  16 C      8.531361    9.920924    7.378037
  17 C      7.329141   10.369684    6.989624
  18 C      9.622461    5.035790    6.172145
  19 C      8.533642    7.281343    6.360060
  20 C      8.422383    5.875857    5.971100
  21 C      9.398874    3.751377    5.673277
  22 C      6.766824    9.297379    6.266627
  23 C      7.403889    8.024589    6.003188

Unit cell:
           periodic     x           y           z      points  spacing
  1. axis:    yes   16.000000    0.000000    0.000000    80     0.2000
  2. axis:    yes    0.000000   16.000000    0.000000    80     0.2000
  3. axis:    yes    0.000000    0.000000   10.000000    48     0.2083

Effective grid spacing dv^(1/3) = 0.2027

                     log10-error:    total        iterations:
           time      wfs    density  energy       fermi  poisson
iter:   1  17:11:29          +inf  -185.473394    3      5      
iter:   2  17:11:30         -2.10  -185.435008    3      2      
iter:   3  17:11:30         -2.24  -185.392342    4      2      
iter:   4  17:11:31         -2.63  -185.393640    2      2      
iter:   5  17:11:32         -2.78  -185.393611    3      2      
iter:   6  17:11:32         -2.94  -185.389246    3      2      
iter:   7  17:11:33         -3.27  -185.390619    2      1      
iter:   8  17:11:33         -3.44  -185.391564    2      1      
iter:   9  17:11:34         -3.74  -185.391807    2      1      
iter:  10  17:11:35         -3.78  -185.392218    2      1      
iter:  11  17:11:35         -3.85  -185.391844    2      1      
iter:  12  17:11:36         -3.87  -185.391860    2      1      
iter:  13  17:11:37         -4.15  -185.391708    2      1      

Converged after 13 iterations.

Dipole moment: (0.412917, -0.670751, -0.311328) |e|*Ang

Energy contributions relative to reference atoms: (reference = -24663.074771)

Kinetic:       +118.023304
Potential:     -126.298336
External:        +0.000000
XC:            -180.057564
Entropy (-ST):   -0.154209
Local:           +3.017992
--------------------------
Free energy:   -185.468813
Extrapolated:  -185.391708

Fermi level: -4.33853

 Band  Eigenvalues  Occupancy
    0    -23.19218    2.00000
    1    -22.33421    2.00000
    2    -21.91302    2.00000
    3    -20.92780    2.00000
    4    -20.66936    2.00000
    5    -20.31239    2.00000
    6    -19.57021    2.00000
    7    -19.35169    2.00000
    8    -18.80407    2.00000
    9    -18.65106    2.00000
   10    -18.05847    2.00000
   11    -17.00612    2.00000
   12    -16.65938    2.00000
   13    -15.86971    2.00000
   14    -15.53890    2.00000
   15    -15.49684    2.00000
   16    -13.85610    2.00000
   17    -13.67702    2.00000
   18    -13.31649    2.00000
   19    -12.98952    2.00000
   20    -12.75014    2.00000
   21    -11.95128    2.00000
   22    -11.85709    2.00000
   23    -11.61403    2.00000
   24    -11.22180    2.00000
   25    -11.09464    2.00000
   26    -10.84589    2.00000
   27    -10.48642    2.00000
   28     -9.91615    2.00000
   29     -9.84134    2.00000
   30     -9.77349    2.00000
   31     -9.48617    2.00000
   32     -8.98112    2.00000
   33     -8.61305    2.00000
   34     -8.46239    2.00000
   35     -8.16342    2.00000
   36     -7.20988    2.00000
   37     -7.19272    2.00000
   38     -7.06826    2.00000
   39     -6.83648    2.00000
   40     -6.77294    2.00000
   41     -6.67552    2.00000
   42     -6.67113    2.00000
   43     -6.50810    2.00000
   44     -6.38086    2.00000
   45     -5.45615    1.99997
   46     -4.70481    1.94996
   47     -4.57169    1.82292
   48     -4.13295    0.22694
   49     -3.40695    0.00018
   50     -3.17182    0.00002
   51     -2.84811    0.00000
   52     -2.77068    0.00000
   53     -2.66192    0.00000
   54     -2.30135    0.00000
   55     -1.81468    0.00000
   56     -1.45725    0.00000
   57     -1.22529    0.00000
   58     -0.31984    0.00000
   59      0.00567    0.00000
   60      0.75190    0.00000
   61      2.17914    0.00000
   62      2.37017    0.00000
   63      3.19119    0.00000
   64      3.36938    0.00000
   65      3.46450    0.00000
   66      3.58833    0.00000
   67      3.79422    0.00000
   68      4.18827    0.00000
   69      4.90983    0.00000
   70      5.09089    0.00000
   71      5.97921    0.00000
   72      6.36261    0.00000
   73      6.55985    0.00000
   74      6.65166    0.00000
   75      6.88649    0.00000
   76      7.15181    0.00000
   77      7.48660    0.00000
   78      7.73643    0.00000
   79      8.04754    0.00000
   80      8.15629    0.00000
   81      8.35321    0.00000
   82      8.57251    0.00000
   83      8.92147    0.00000
   84      8.98160    0.00000
   85      9.09326    0.00000
   86      9.11156    0.00000
   87      9.31771    0.00000
   88      9.39191    0.00000
   89      9.43529    0.00000
   90      9.46583    0.00000
   91      9.58659    0.00000
   92      9.85395    0.00000
   93     10.03532    0.00000
   94     10.18740    0.00000
   95     10.32006    0.00000
   96     10.37184    0.00000
   97     10.47195    0.00000


Forces in eV/Ang:
  0 C     0.45927    0.00782   -0.05984
  1 C    -0.31112    0.32380   -0.09835
  2 C     0.17733   -0.13398   -0.03321
  3 C     0.51006   -0.27026   -0.27378
  4 C     0.14646    0.28587   -0.04061
  5 C    -0.08581    0.10552    0.01793
  6 C     0.09979   -0.23594    0.17205
  7 C    -0.40402    0.14632    0.21283
  8 C    -0.23241   -0.12108   -0.03741
  9 C    -0.39514   -0.49514   -0.11888
 10 C    -0.01050    0.19779    0.14877
 11 C     0.95495    0.66419    0.43615
 12 C    -0.19194   -0.28547   -0.28626
 13 C    -0.05165    0.58635    0.02381
 14 C     0.06093   -0.23145   -0.09570
 15 C     0.04208   -0.56028   -0.47502
 16 C    -0.25980    0.09568   -0.18218
 17 C    -0.02430    0.09543    0.03367
 18 C     0.04637   -0.26659    0.16608
 19 C     0.02020    0.31245    0.36717
 20 C     0.22672    0.09735    0.10795
 21 C     0.60914   -0.02277    0.22353
 22 C    -0.20720    0.10191    0.09768
 23 C    -1.15507   -0.31006   -0.27987

System changes: positions 

Initializing position-dependent things.

Density initialized from wave functions
           .--------------------------------------.  
          /|                                      |  
         / |                                      |  
        /  |                                      |  
       /   |                                      |  
      /    |                                      |  
     /     |                                      |  
    /      |             C  C C                   |  
   /       |                 C                    |  
  /        |    C      C       C                  |  
 *         |  C     C   C C   C                   |  
 |         | C       C   C  C                     |  
 |         .---C---C--C---------------------------.  
 |        /    C     C    C                      /   
 |       /       C     C                        /    
 |      /                                      /     
 |     /                                      /      
 |    /                                      /       
 |   /                                      /        
 |  /                                      /         
 | /                                      /          
[...]
External:        +0.000000
XC:            -179.976106
Entropy (-ST):   -0.192852
Local:           +2.997720
--------------------------
Free energy:   -185.902419
Extrapolated:  -185.805993

Fermi level: -4.38450

 Band  Eigenvalues  Occupancy
    0    -23.18480    2.00000
    1    -22.30512    2.00000
    2    -21.92574    2.00000
    3    -20.94898    2.00000
    4    -20.67286    2.00000
    5    -20.29862    2.00000
    6    -19.55928    2.00000
    7    -19.42288    2.00000
    8    -18.71647    2.00000
    9    -18.64078    2.00000
   10    -17.98906    2.00000
   11    -17.00885    2.00000
   12    -16.71005    2.00000
   13    -15.88126    2.00000
   14    -15.57293    2.00000
   15    -15.44052    2.00000
   16    -13.90311    2.00000
   17    -13.59259    2.00000
   18    -13.33426    2.00000
   19    -12.96295    2.00000
   20    -12.75134    2.00000
   21    -12.05202    2.00000
   22    -11.89430    2.00000
   23    -11.60964    2.00000
   24    -11.15978    2.00000
   25    -11.10088    2.00000
   26    -10.92691    2.00000
   27    -10.49686    2.00000
   28     -9.93456    2.00000
   29     -9.84025    2.00000
   30     -9.80345    2.00000
   31     -9.48811    2.00000
   32     -8.99023    2.00000
   33     -8.63608    2.00000
   34     -8.47394    2.00000
   35     -8.18950    2.00000
   36     -7.19263    2.00000
   37     -7.16682    2.00000
   38     -7.10389    2.00000
   39     -6.78345    2.00000
   40     -6.76622    2.00000
   41     -6.66217    2.00000
   42     -6.60976    2.00000
   43     -6.49359    2.00000
   44     -6.42340    2.00000
   45     -5.43090    1.99994
   46     -4.66469    1.88557
   47     -4.60890    1.80827
   48     -4.21339    0.30606
   49     -3.43749    0.00015
   50     -3.12518    0.00001
   51     -2.91493    0.00000
   52     -2.84820    0.00000
   53     -2.67193    0.00000
   54     -2.20621    0.00000
   55     -1.82512    0.00000
   56     -1.42923    0.00000
   57     -1.10950    0.00000
   58     -0.25574    0.00000
   59      0.01548    0.00000
   60      0.74925    0.00000
   61      2.17628    0.00000
   62      2.63468    0.00000
   63      3.23445    0.00000
   64      3.64512    0.00000
   65      3.76721    0.00000
   66      4.04434    0.00000
   67      4.14816    0.00000
   68      4.26729    0.00000
   69      5.02634    0.00000
   70      5.05880    0.00000
   71      5.77623    0.00000
   72      5.93493    0.00000
   73      6.42813    0.00000
   74      6.64203    0.00000
   75      6.68773    0.00000
   76      7.21926    0.00000
   77      7.42795    0.00000
   78      7.69582    0.00000
   79      7.81034    0.00000
   80      8.12456    0.00000
   81      8.28195    0.00000
   82      8.58912    0.00000
   83      8.97775    0.00000
   84      9.03758    0.00000
   85      9.07050    0.00000
   86      9.15974    0.00000
   87      9.30022    0.00000
   88      9.44247    0.00000
   89      9.46778    0.00000
   90      9.49473    0.00000
   91      9.51587    0.00000
   92      9.78055    0.00000
   93     10.16557    0.00000
   94     10.19977    0.00000
   95     10.24251    0.00000
   96     10.32188    0.00000
   97     10.43353    0.00000


Forces in eV/Ang:
  0 C     0.05920    0.08171   -0.04472
  1 C     0.05752    0.01823    0.03108
  2 C    -0.07535   -0.00174    0.00079
  3 C    -0.02396   -0.00741    0.04970
  4 C     0.01107   -0.00604   -0.01104
  5 C    -0.00684    0.00460    0.01500
  6 C     0.00901    0.00813    0.00790
  7 C    -0.00188    0.03605   -0.06971
  8 C     0.00646    0.05819    0.03204
  9 C     0.02572   -0.02634   -0.03464
 10 C    -0.01886   -0.08168    0.00978
 11 C     0.08564    0.01272    0.06220
 12 C    -0.06267    0.00857   -0.10147
 13 C    -0.04859   -0.00703    0.01191
 14 C     0.02742    0.02482    0.03241
 15 C    -0.00340   -0.03834    0.04036
 16 C     0.03095   -0.02104   -0.01631
 17 C    -0.03373    0.02614    0.02197
 18 C    -0.01114   -0.00078    0.01517
 19 C     0.01868    0.03553   -0.05104
 20 C    -0.05526    0.03262   -0.01613
 21 C     0.02027   -0.03336   -0.02873
 22 C     0.04989   -0.05251    0.02982
 23 C    -0.11189   -0.04707    0.01581

System changes: positions 

Initializing position-dependent things.

Density initialized from wave functions
           .--------------------------------------.  
          /|                                      |  
         / |                                      |  
        /  |                                      |  
       /   |                                      |  
      /    |                                      |  
     /     |                                      |  
    /      |             C  C C                   |  
   /       |           C                          |  
  /        |    C  C    C     C C                 |  
 *         |        C     C    C                  |  
 |         |  C    C     C  C                     |  
 |         .-C-C------C---------------------------.  
 |        /          C C  C                      /   
 |       /     C C                              /    
 |      /                                      /     
 |     /                                      /      
 |    /                                      /       
 |   /                                      /        
 |  /                                      /         
 | /                                      /          
 |/                                      /           
 *--------------------------------------*            

Positions:
   0 C      3.428825    6.365636    5.216433
   1 C      4.722716    4.127205    4.893207
   2 C      4.538906    5.494899    5.225872
   3 C      5.741616    3.389032    4.949985
   4 C      3.534733    7.624401    5.522821
   5 C      3.942445    8.871109    5.859015
   6 C      7.035830    3.768809    5.386445
   7 C      5.879820    6.010137    5.647524
   8 C      7.107528    5.211366    5.747609
   9 C      8.272180    3.142624    5.565404
  10 C      5.316214    8.640538    6.097608
  11 C      6.035308    7.371035    5.970993
  12 C      9.655789    9.302511    7.344866
  13 C     10.763469    6.975172    6.959039
  14 C      9.718939    7.936694    6.995666
  15 C     10.747188    5.751006    6.663601
  16 C      8.561839    9.995955    7.238779
  17 C      7.312258   10.460124    7.005415
  18 C      9.618733    4.988095    6.270965
  19 C      8.478618    7.236628    6.531396
  20 C      8.382523    5.814319    6.182527
  21 C      9.363550    3.655099    5.939185
  22 C      6.674287    9.281031    6.556984
  23 C      7.277396    7.957480    6.391969

Unit cell:
           periodic     x           y           z      points  spacing
  1. axis:    yes   16.000000    0.000000    0.000000    80     0.2000
  2. axis:    yes    0.000000   16.000000    0.000000    80     0.2000
  3. axis:    yes    0.000000    0.000000   10.000000    48     0.2083

Effective grid spacing dv^(1/3) = 0.2027

                     log10-error:    total        iterations:
           time      wfs    density  energy       fermi  poisson
iter:   1  17:15:12          +inf  -185.811821    3      5      
iter:   2  17:15:13         -2.66  -185.810187    3      1      
iter:   3  17:15:13         -2.75  -185.808393    3      1      
iter:   4  17:15:14         -2.97  -185.808128    2      1      
iter:   5  17:15:15         -3.09  -185.806483    2      2      
iter:   6  17:15:15         -3.32  -185.808531    2      1      
iter:   7  17:15:16         -3.48  -185.807029    2      1      
iter:   8  17:15:16         -3.72  -185.805606    2      1      
iter:   9  17:15:17         -3.83  -185.805724    2      1      
iter:  10  17:15:18         -3.92  -185.805929    2      1      
iter:  11  17:15:18         -4.04  -185.805824    2      1      

Converged after 11 iterations.

Dipole moment: (0.397174, -0.782951, -0.090234) |e|*Ang

Energy contributions relative to reference atoms: (reference = -24663.074771)

Kinetic:       +115.940397
Potential:     -124.850111
External:        +0.000000
XC:            -179.795116
Entropy (-ST):   -0.193281
Local:           +2.995647
--------------------------
Free energy:   -185.902464
Extrapolated:  -185.805824

Fermi level: -4.39223

 Band  Eigenvalues  Occupancy
    0    -23.17485    2.00000
    1    -22.29556    2.00000
    2    -21.92808    2.00000
    3    -20.95264    2.00000
    4    -20.67173    2.00000
    5    -20.29392    2.00000
    6    -19.55967    2.00000
    7    -19.42572    2.00000
    8    -18.71495    2.00000
    9    -18.63265    2.00000
   10    -17.98789    2.00000
   11    -17.01164    2.00000
   12    -16.71196    2.00000
   13    -15.89757    2.00000
   14    -15.56002    2.00000
   15    -15.43935    2.00000
   16    -13.90393    2.00000
   17    -13.58244    2.00000
   18    -13.34139    2.00000
   19    -12.95317    2.00000
   20    -12.74297    2.00000
   21    -12.05782    2.00000
   22    -11.91797    2.00000
   23    -11.60505    2.00000
   24    -11.14753    2.00000
   25    -11.09580    2.00000
   26    -10.92368    2.00000
   27    -10.50592    2.00000
   28     -9.92597    2.00000
   29     -9.83366    2.00000
   30     -9.80655    2.00000
   31     -9.48404    2.00000
   32     -8.99128    2.00000
   33     -8.64481    2.00000
   34     -8.47293    2.00000
   35     -8.18655    2.00000
   36     -7.19295    2.00000
   37     -7.16270    2.00000
   38     -7.11029    2.00000
   39     -6.78313    2.00000
   40     -6.75915    2.00000
   41     -6.66302    2.00000
   42     -6.60609    2.00000
   43     -6.49619    2.00000
   44     -6.42146    2.00000
   45     -5.43192    1.99994
   46     -4.67042    1.88338
   47     -4.61742    1.80962
   48     -4.22147    0.30694
   49     -3.41984    0.00012
   50     -3.12662    0.00001
   51     -2.91012    0.00000
   52     -2.84449    0.00000
   53     -2.67663    0.00000
   54     -2.21146    0.00000
   55     -1.81996    0.00000
   56     -1.43156    0.00000
   57     -1.10299    0.00000
   58     -0.25854    0.00000
   59      0.00474    0.00000
   60      0.74785    0.00000
   61      2.15662    0.00000
   62      2.63728    0.00000
   63      3.21526    0.00000
   64      3.65656    0.00000
   65      3.76238    0.00000
   66      4.03951    0.00000
   67      4.13286    0.00000
   68      4.25533    0.00000
   69      5.01765    0.00000
   70      5.04940    0.00000
   71      5.72056    0.00000
   72      5.92333    0.00000
   73      6.41517    0.00000
   74      6.64725    0.00000
   75      6.67549    0.00000
   76      7.19666    0.00000
   77      7.40266    0.00000
   78      7.68348    0.00000
   79      7.77627    0.00000
   80      8.10528    0.00000
   81      8.27792    0.00000
   82      8.56679    0.00000
   83      8.97895    0.00000
   84      9.02159    0.00000
   85      9.06378    0.00000
   86      9.15953    0.00000
   87      9.30071    0.00000
   88      9.43980    0.00000
   89      9.46682    0.00000
   90      9.49530    0.00000
   91      9.51739    0.00000
   92      9.76777    0.00000
   93     10.16655    0.00000
   94     10.20477    0.00000
   95     10.22110    0.00000
   96     10.29737    0.00000
   97     10.43630    0.00000


Forces in eV/Ang:
  0 C     0.02299    0.08744   -0.02828
  1 C    -0.01767   -0.02698    0.01632
  2 C     0.02990   -0.00470   -0.01663
  3 C    -0.03523    0.01418    0.05294
  4 C     0.00380    0.02114   -0.01710
  5 C     0.05722   -0.04368    0.01177
  6 C     0.01611    0.04997    0.01671
  7 C     0.03206    0.05511   -0.01683
  8 C     0.03065    0.08591    0.01102
  9 C     0.02264   -0.07368   -0.04754
 10 C    -0.01788   -0.10110    0.00128
 11 C     0.06430    0.01859    0.03024
 12 C    -0.06115    0.02468   -0.05406
 13 C    -0.01831    0.01602    0.05545
 14 C    -0.02462   -0.00056   -0.04009
 15 C    -0.03779    0.00464    0.05121
 16 C     0.00216   -0.00074   -0.03045
 17 C    -0.01756   -0.06379   -0.00402
 18 C    -0.02862    0.02154    0.01000
 19 C    -0.03330    0.00016   -0.01732
 20 C    -0.04239    0.00926   -0.02694
 21 C     0.03319   -0.03911   -0.03244
 22 C     0.05295   -0.04925    0.06080
 23 C    -0.02701   -0.02295    0.00264

System changes: positions 

Initializing position-dependent things.

Density initialized from wave functions
           .--------------------------------------.  
          /|                                      |  
         / |                                      |  
        /  |                                      |  
       /   |                                      |  
      /    |                                      |  
     /     |                                      |  
    /      |             C  C C                   |  
   /       |           C                          |  
  /        |    C  C    C     C C                 |  
 *         |        C     C    C                  |  
 |         |  C    C     C  C                     |  
 |         .-C-C------C---------------------------.  
 |        /          C C  C                      /   
 |       /     C C                              /    
 |      /                                      /     
 |     /                                      /      
 |    /                                      /       
 |   /                                      /        
 |  /                                      /         
 | /                                      /          
 |/                                      /           
 *--------------------------------------*            

Positions:
   0 C      3.430618    6.367236    5.224453
   1 C      4.721990    4.126056    4.903132
   2 C      4.538842    5.494375    5.231172
   3 C      5.740551    3.387568    4.956784
   4 C      3.535561    7.625926    5.527187
   5 C      3.944378    8.872441    5.859287
   6 C      7.036786    3.769117    5.384702
   7 C      5.881275    6.011394    5.643247
   8 C      7.108986    5.212934    5.743139
   9 C      8.274157    3.142138    5.558936
  10 C      5.317840    8.640212    6.091316
  11 C      6.038032    7.372145    5.963123
  12 C      9.649535    9.300191    7.349884
  13 C     10.759126    6.972609    6.967925
  14 C      9.716283    7.935086    6.999952
  15 C     10.745136    5.749104    6.669709
  16 C      8.558352    9.994768    7.241098
  17 C      7.309711   10.459733    7.004496
  18 C      9.619129    4.987979    6.268930
  19 C      8.479059    7.237264    6.527302
  20 C      8.383408    5.815244    6.177413
  21 C      9.365741    3.655230    5.932901
  22 C      6.676280    9.281223    6.551234
  23 C      7.279238    7.958209    6.384313

Unit cell:
           periodic     x           y           z      points  spacing
  1. axis:    yes   16.000000    0.000000    0.000000    80     0.2000
  2. axis:    yes    0.000000   16.000000    0.000000    80     0.2000
  3. axis:    yes    0.000000    0.000000   10.000000    48     0.2083

Effective grid spacing dv^(1/3) = 0.2027

                     log10-error:    total        iterations:
           time      wfs    density  energy       fermi  poisson
iter:   1  17:15:21          +inf  -185.806403    3      5      
iter:   2  17:15:21         -3.11  -185.806157    2      1      
iter:   3  17:15:22         -3.21  -185.805993    2      1      
iter:   4  17:15:23         -3.41  -185.806190    2      1      
iter:   5  17:15:23         -3.54  -185.805195    2      1      
iter:   6  17:15:24         -3.75  -185.805490    2      1      
iter:   7  17:15:24         -3.84  -185.807588    2      1      
iter:   8  17:15:25         -4.17  -185.807433    2      1      

Converged after 8 iterations.

Dipole moment: (0.398003, -0.782418, -0.093419) |e|*Ang

Energy contributions relative to reference atoms: (reference = -24663.074771)

Kinetic:       +116.675288
Potential:     -125.434984
External:        +0.000000
XC:            -179.970017
Entropy (-ST):   -0.193716
Local:           +3.019138
--------------------------
Free energy:   -185.904291
Extrapolated:  -185.807433

Fermi level: -4.39207

 Band  Eigenvalues  Occupancy
    0    -23.18033    2.00000
    1    -22.29463    2.00000
    2    -21.93330    2.00000
    3    -20.95349    2.00000
    4    -20.67841    2.00000
    5    -20.30056    2.00000
    6    -19.56247    2.00000
    7    -19.43106    2.00000
    8    -18.71988    2.00000
    9    -18.63272    2.00000
   10    -17.98734    2.00000
   11    -17.01663    2.00000
   12    -16.71361    2.00000
   13    -15.90158    2.00000
   14    -15.56151    2.00000
   15    -15.44159    2.00000
   16    -13.90174    2.00000
   17    -13.57987    2.00000
   18    -13.34578    2.00000
   19    -12.95158    2.00000
   20    -12.74454    2.00000
   21    -12.05904    2.00000
   22    -11.92549    2.00000
   23    -11.60691    2.00000
   24    -11.14833    2.00000
   25    -11.09578    2.00000
   26    -10.92620    2.00000
   27    -10.51005    2.00000
   28     -9.92520    2.00000
   29     -9.83211    2.00000
   30     -9.81013    2.00000
   31     -9.48507    2.00000
   32     -8.98974    2.00000
   33     -8.64583    2.00000
   34     -8.47643    2.00000
   35     -8.18941    2.00000
   36     -7.19393    2.00000
   37     -7.16626    2.00000
   38     -7.11406    2.00000
   39     -6.78128    2.00000
   40     -6.75703    2.00000
   41     -6.66307    2.00000
   42     -6.60152    2.00000
   43     -6.49519    2.00000
   44     -6.42287    2.00000
   45     -5.43087    1.99994
   46     -4.66966    1.88272
   47     -4.61704    1.80926
   48     -4.22169    0.30795
   49     -3.41989    0.00012
   50     -3.12213    0.00001
   51     -2.90650    0.00000
   52     -2.84422    0.00000
   53     -2.67495    0.00000
   54     -2.21025    0.00000
   55     -1.81944    0.00000
   56     -1.42193    0.00000
   57     -1.09068    0.00000
   58     -0.25321    0.00000
   59      0.01052    0.00000
   60      0.75077    0.00000
   61      2.16330    0.00000
   62      2.64344    0.00000
   63      3.22921    0.00000
   64      3.66778    0.00000
   65      3.77028    0.00000
   66      4.04926    0.00000
   67      4.14649    0.00000
   68      4.27302    0.00000
   69      5.03055    0.00000
   70      5.06182    0.00000
   71      5.71921    0.00000
   72      5.93248    0.00000
   73      6.41820    0.00000
   74      6.64843    0.00000
   75      6.68116    0.00000
   76      7.21484    0.00000
   77      7.39837    0.00000
   78      7.69149    0.00000
   79      7.78238    0.00000
   80      8.11340    0.00000
   81      8.27721    0.00000
   82      8.57038    0.00000
   83      8.97872    0.00000
   84      9.02382    0.00000
   85      9.06455    0.00000
   86      9.16489    0.00000
   87      9.31342    0.00000
   88      9.43933    0.00000
   89      9.46955    0.00000
   90      9.49616    0.00000
   91      9.52591    0.00000
   92      9.77005    0.00000
   93     10.16839    0.00000
   94     10.20545    0.00000
   95     10.22589    0.00000
   96     10.29963    0.00000
   97     10.43652    0.00000


Forces in eV/Ang:
  0 C    -0.01462    0.02034   -0.03354
  1 C    -0.05588   -0.03392    0.01163
  2 C     0.01691    0.02124   -0.01764
  3 C    -0.02540    0.02161    0.05144
  4 C    -0.01105   -0.00030   -0.03622
  5 C     0.03632   -0.00189    0.02143
  6 C     0.03793    0.04553    0.01493
  7 C     0.04681    0.02304   -0.00436
  8 C     0.03169    0.04910   -0.00122
  9 C     0.02055   -0.02034   -0.02999
 10 C     0.03603   -0.05915    0.02120
 11 C     0.05049    0.03441    0.00469
 12 C     0.00781   -0.00077   -0.00938
 13 C     0.01728    0.00456    0.04658
 14 C    -0.02166    0.00807   -0.05042
 15 C    -0.03258    0.01985    0.05714
 16 C    -0.01710    0.03107   -0.03631
 17 C    -0.01470   -0.04349    0.00913
 18 C    -0.04496    0.00454   -0.00416
 19 C    -0.03289   -0.03026   -0.02218
 20 C    -0.03351    0.00504   -0.02669
 21 C     0.00046   -0.03437   -0.04756
 22 C     0.00484   -0.06501    0.03373
 23 C    -0.01960   -0.00553   -0.01146

