
  ___ ___ ___ _ _ _  
 |   |   |_  | | | | 
 | | | | | . | | | | 
 |__ |  _|___|_____|  1.3.0b1
 |___|_|             

User:   esb@s65n63.grendel.cscaa.dk
Date:   Wed Nov  8 15:13:06 2017
Arch:   x86_64
Pid:    72581
Python: 2.7.13
gpaw:   /home/esb/DFT/gpaw_git/gpaw
_gpaw:  /home/esb/DFT/gpaw_git/build/bin.linux-x86_64-2.7/gpaw-python
ase:    /home/esb/DFT/ase_git/ase (version 3.15.0b1)
numpy:  /comm/swstack/core/python/2.7.13/lib/python2.7/site-packages/numpy (version 1.13.3)
scipy:  /comm/swstack/core/python/2.7.13/lib/python2.7/site-packages/scipy (version 0.19.1)
units:  Angstrom and eV
cores:  16
Extra parameters: {'blacs': True}

Input parameters:
  basis: dzp
  gpts: [80 80 48]
  kpts: [1 1 1]
  maxiter: 99
  mixer: {backend: pulay,
          beta: 0.05,
          method: separate,
          nmaxold: 5,
          weight: 75}
  mode: lcao
  nbands: -50
  occupations: {name: fermi-dirac,
                width: 0.1}
  poissonsolver: {eps: 1e-07,
                  name: fd,
                  nn: 3,
                  relax: GS}
  xc: PBE

System changes: positions, numbers, cell, pbc, initial_charges, initial_magmoms 

Initialize ...

C-setup:
  name: Carbon
  id: 4aa54d4b901d75f77cc0ea3eec22967b
  Z: 6
  valence: 4
  core: 2
  charge: 0.0
  file: /home/esb/DFT/gpaw-setups-0.8.7929/C.PBE.gz
  cutoffs: 0.64(comp), 1.14(filt), 1.14(core), lmax=2
  valence states:
                energy  radius
    2s(2.00)   -13.751   0.635
    2p(2.00)    -5.284   0.635
    *s          13.461   0.635
    *p          21.927   0.635
    *d           0.000   0.635

  LCAO basis set for C:
    Name: dzp
    File: /home/esb/DFT/gpaw-setups-0.8.7929/C.dzp.basis.gz
    Number of radial functions: 5
    Number of spherical harmonics: 13
      l=0, rc=5.5469 Bohr: 2s-sz confined orbital
      l=1, rc=6.6719 Bohr: 2p-sz confined orbital
      l=0, rc=3.0312 Bohr: 2s-dz split-valence wave
      l=1, rc=3.7500 Bohr: 2p-dz split-valence wave
      l=2, rc=6.6719 Bohr: d-type Gaussian polarization

Reference energy: -24663.074771

Spin-paired calculation

Occupation numbers:
  Fermi-Dirac: width=0.1000 eV

Convergence criteria:
  Maximum total energy change: 0.0005 eV / electron
  Maximum integral of absolute density change: 0.0001 electrons
  Maximum integral of absolute eigenstate change: 4e-08 eV^2
  Maximum number of iterations: 99

Symmetries present (total): 1

  ( 1  0  0)
  ( 0  1  0)
  ( 0  0  1)

1 k-point (Gamma)
1 k-point in the irreducible part of the Brillouin zone
       k-points in crystal coordinates                weights
   0:     0.00000000    0.00000000    0.00000000          1/1

Wave functions: LCAO
  Diagonalizer: Serial LAPACK
  Atomic Correction: dense with blas
  Datatype: float
  Eigensolver: None 

LCAO using direct dense diagonalizer 

Densities:
  Coarse grid: 80*80*48 grid
  Fine grid: 160*160*96 grid
  Total Charge: 0.000000 

Density mixing:
  Method: separate
  Backend: pulay
  Linear mixing parameter: 0.05
  Mixing with 5 old densities
  Damping of long wave oscillations: 75 

Hamiltonian:
  XC and Coulomb potentials evaluated on a 160*160*96 grid
  Using the PBE Exchange-Correlation functional
  Interpolation: tri-quintic (5. degree polynomial)
  Poisson solver: Gauss-Seidel solver with 6 multi-grid levels
    Coarsest grid: 5 x 5 x 3 points
    Stencil: 6*3+1=19 point O(h^6) finite-difference Laplacian
    Max iterations: 1000
    Tolerance: 1.000000e-07 

Memory estimate:
  Process memory now: 77.61 MiB
  Calculator: 15.59 MiB
    Density: 6.13 MiB
      Arrays: 3.81 MiB
      Localized functions: 0.86 MiB
      Mixer: 1.46 MiB
    Hamiltonian: 5.40 MiB
      Arrays: 2.49 MiB
      XC: 0.00 MiB
      Poisson: 2.85 MiB
      vbar: 0.07 MiB
    Wavefunctions: 4.05 MiB
      C [qnM]: 0.23 MiB
      S, T [2 x qmm]: 1.49 MiB
      P [aqMi]: 0.01 MiB
      TCI: 0.00 MiB
      BasisFunctions: 2.33 MiB
      Eigensolver: 0.00 MiB

Total number of cores used: 16
Domain decomposition: 2 x 4 x 2

Number of atoms: 24
Number of atomic orbitals: 312
Number of bands in calculation: 98
Bands to converge: occupied states only
Number of valence electrons: 96

... initialized

Initializing position-dependent things.

Density initialized from atomic densities
           .--------------------------------------.  
          /|                                      |  
         / |                                      |  
        /  |                                      |  
       /   |                                      |  
      /    |                                      |  
     /     |                                      |  
    /      |                                      |  
   /       |                                      |  
  /        |         C                            |  
 *         |   C  C   C  C C C                    |  
 |         |   C   C      C      C                |  
 |         .--C---C--C--C-C---C-CC----------------.  
 |        /       C  C   C C  C                  /   
 |       /                                      /    
 |      /                                      /     
 |     /                                      /      
 |    /                                      /       
 |   /                                      /        
 |  /                                      /         
 | /                                      /          
 |/                                      /           
 *--------------------------------------*            

Positions:
   0 C     10.872300    4.514127    5.498020
   1 C      9.797182    3.743825    5.377461
   2 C      8.937181    5.905373    5.137234
   3 C      6.228950    3.484839    5.352089
   4 C      5.592609   10.697064    4.934427
   5 C      7.077464    4.521270    5.260729
   6 C      6.196441    9.369705    4.973827
   7 C      7.624148    9.273641    4.974592
   8 C      5.261609    8.206315    4.998056
   9 C     11.307218    5.744021    5.281585
  10 C      8.256760    7.997170    4.922259
  11 C      7.790663    6.705296    4.998825
  12 C      6.603809    5.963939    5.099948
  13 C      5.394288    6.676307    5.084566
  14 C      8.620241    4.547324    5.313149
  15 C     10.191917    6.641906    5.154016
  16 C      3.487152    8.984722    5.080027
  17 C     10.599348    9.365001    4.436524
  18 C     10.914834    8.132074    4.308480
  19 C      4.363609    9.903943    5.045482
  20 C      3.669618    6.279387    4.734094
  21 C      8.179097   10.388685    4.888688
  22 C      3.622345    7.610403    5.328322
  23 C      9.208450    9.466950    4.782842

Unit cell:
           periodic     x           y           z      points  spacing
  1. axis:    yes   16.000000    0.000000    0.000000    80     0.2000
  2. axis:    yes    0.000000   16.000000    0.000000    80     0.2000
  3. axis:    yes    0.000000    0.000000   10.000000    48     0.2083

Effective grid spacing dv^(1/3) = 0.2027

                     log10-error:    total        iterations:
           time      wfs    density  energy       fermi  poisson
iter:   1  15:13:08          +inf  -171.736038    2      6      
iter:   2  15:13:08         -0.86  -169.775861    3      3      
iter:   3  15:13:09         -0.90  -169.176434    3      3      
iter:   4  15:13:09         -0.96  -168.640880    3      2      
iter:   5  15:13:10         -0.98  -167.584342    4      2      
iter:   6  15:13:11         -1.04  -167.683249    35     3      
iter:   7  15:13:11         -1.14  -166.705669    4      3      
iter:   8  15:13:12         -1.26  -165.897057    4      3      
iter:   9  15:13:12         -1.42  -166.038794    3      3      
iter:  10  15:13:13         -1.51  -165.994416    3      3      
iter:  11  15:13:13         -1.61  -165.971370    3      3      
iter:  12  15:13:14         -1.70  -165.825832    4      3      
iter:  13  15:13:14         -1.91  -165.808623    4      2      
iter:  14  15:13:15         -2.09  -165.793402    4      2      
iter:  15  15:13:15         -2.28  -165.785123    3      2      
iter:  16  15:13:16         -2.43  -165.781678    3      2      
iter:  17  15:13:16         -2.58  -165.780349    3      2      
iter:  18  15:13:17         -2.65  -165.797183    3      1      
iter:  19  15:13:17         -2.71  -165.780981    3      2      
iter:  20  15:13:18         -2.86  -165.786753    2      1      
iter:  21  15:13:18         -3.01  -165.779218    2      2      
iter:  22  15:13:19         -3.44  -165.775969    2      1      
iter:  23  15:13:19         -3.51  -165.775113    2      1      
iter:  24  15:13:20         -3.63  -165.772128    3      1      
iter:  25  15:13:20         -3.84  -165.775937    2      1      
iter:  26  15:13:21         -3.90  -165.776966    2      1      
iter:  27  15:13:21         -4.04  -165.776350    2      1      

Converged after 27 iterations.

Dipole moment: (-0.400339, -0.099185, 0.154522) |e|*Ang

Energy contributions relative to reference atoms: (reference = -24663.074771)

Kinetic:       +126.625211
Potential:     -124.059166
External:        +0.000000
XC:            -171.062047
Entropy (-ST):   -0.377779
Local:           +2.908541
--------------------------
Free energy:   -165.965240
Extrapolated:  -165.776350

Fermi level: -4.77965

 Band  Eigenvalues  Occupancy
    0    -24.25851    2.00000
    1    -23.73452    2.00000
    2    -22.99601    2.00000
    3    -21.37914    2.00000
    4    -21.02332    2.00000
    5    -20.13078    2.00000
    6    -20.03734    2.00000
    7    -19.61613    2.00000
    8    -18.65594    2.00000
    9    -18.33651    2.00000
   10    -17.77750    2.00000
   11    -16.95641    2.00000
   12    -16.70095    2.00000
   13    -15.94207    2.00000
   14    -15.59057    2.00000
   15    -15.13281    2.00000
   16    -14.14399    2.00000
   17    -14.01827    2.00000
   18    -13.58168    2.00000
   19    -12.82914    2.00000
   20    -12.41316    2.00000
   21    -11.65276    2.00000
   22    -11.30260    2.00000
   23    -11.14762    2.00000
   24    -11.01032    2.00000
   25    -10.70929    2.00000
   26    -10.49136    2.00000
   27    -10.25815    2.00000
   28     -9.85083    2.00000
   29     -9.60634    2.00000
   30     -9.20780    2.00000
   31     -9.00831    2.00000
   32     -8.46416    2.00000
   33     -8.22035    2.00000
   34     -7.72155    2.00000
   35     -7.61546    2.00000
   36     -7.20572    2.00000
   37     -7.10680    2.00000
   38     -6.72248    2.00000
   39     -6.63030    2.00000
   40     -6.47511    2.00000
   41     -6.25764    2.00000
   42     -6.08883    2.00000
   43     -5.92436    1.99998
   44     -5.70881    1.99982
   45     -5.16328    1.95777
   46     -4.99208    1.78649
   47     -4.82587    1.22709
   48     -4.77911    0.99730
   49     -4.35935    0.02946
   50     -4.08012    0.00183
   51     -3.88865    0.00027
   52     -3.53573    0.00001
   53     -3.09990    0.00000
   54     -2.59165    0.00000
   55     -2.26189    0.00000
   56     -2.01351    0.00000
   57     -1.89871    0.00000
   58     -1.25767    0.00000
   59     -1.03036    0.00000
   60     -0.70319    0.00000
   61      0.37596    0.00000
   62      0.49833    0.00000
   63      0.85021    0.00000
   64      1.09240    0.00000
   65      1.50776    0.00000
   66      1.85926    0.00000
   67      2.34433    0.00000
   68      2.64309    0.00000
   69      3.25020    0.00000
   70      3.86430    0.00000
   71      4.23900    0.00000
   72      4.66534    0.00000
   73      5.02306    0.00000
   74      5.78184    0.00000
   75      6.13234    0.00000
   76      6.61966    0.00000
   77      6.98715    0.00000
   78      7.46186    0.00000
   79      7.78909    0.00000
   80      7.85013    0.00000
   81      8.29698    0.00000
   82      8.33855    0.00000
   83      8.46127    0.00000
   84      8.67717    0.00000
   85      8.70019    0.00000
   86      8.85779    0.00000
   87      8.91118    0.00000
   88      9.10310    0.00000
   89      9.25153    0.00000
   90      9.28795    0.00000
   91      9.48594    0.00000
   92      9.51190    0.00000
   93      9.54291    0.00000
   94      9.63166    0.00000
   95      9.82015    0.00000
   96      9.98199    0.00000
   97     10.04736    0.00000


Forces in eV/Ang:
  0 C    -0.40734   -0.79847    0.17062
  1 C     0.02124    0.01323    0.27810
  2 C     0.96559    1.99290   -0.71799
  3 C    -0.12201   -0.14217    0.00447
  4 C    -3.45427   -2.07148    0.47941
  5 C     0.36811    0.26765    0.04293
  6 C    -4.16378   -1.48640   -0.13858
  7 C   -10.28953   -9.36911    0.69508
  8 C     3.20297   -3.75548    0.53891
  9 C    -1.16117   -0.46274    0.37903
 10 C    -1.74461    2.83372    0.45839
 11 C     1.81409    2.19150    0.02508
 12 C    -1.42732   -0.46504    0.16955
 13 C    -2.48382    1.71372   -1.74634
 14 C     0.53402   -0.45695    0.00539
 15 C     5.05547   -0.88416   -1.70034
 16 C    -1.56506   -3.85777    0.48601
 17 C    -0.46865   -0.67583    0.15455
 18 C    -1.73558   -2.68345    1.30449
 19 C     3.61543    7.14547   -0.64890
 20 C     2.60364    3.14769    2.58460
 21 C     7.08284    8.83880   -0.09840
 22 C    -1.67251   -2.07403   -1.77378
 23 C     5.33518    1.00190   -0.93099

System changes: positions 

Initializing position-dependent things.

Density initialized from wave functions
           .--------------------------------------.  
          /|                                      |  
         / |                                      |  
        /  |                                      |  
       /   |                                      |  
      /    |                                      |  
     /     |                                      |  
    /      |                                      |  
   /       |                                      |  
  /        |         C                            |  
 *         |   C  C   C  C C C                    |  
 |         |   C   C      C      C                |  
 |         .--C---C--C--C-C---C-CC----------------.  
 |        /       C  C   C C  C                  /   
 |       /                                      /    
 |      /                                      /     
 |     /                                      /      
 |    /                                      /       
 |   /                                      /        
 |  /                                      /         
 | /                                      /          
 |/                                      /           
 *--------------------------------------*            

Positions:
   0 C     10.871131    4.511835    5.498510
   1 C      9.797243    3.743863    5.378259
   2 C      8.939953    5.911095    5.135173
   3 C      6.228600    3.484431    5.352102
   4 C      5.582693   10.691117    4.935804
   5 C      7.078521    4.522038    5.260852
   6 C      6.184488    9.365438    4.973429
   7 C      7.594609    9.246744    4.976587
   8 C      5.270804    8.195534    4.999603
   9 C     11.303885    5.742692    5.282673
  10 C      8.251751    8.005305    4.923575
  11 C      7.795871    6.711587    4.998897
  12 C      6.599712    5.962604    5.100435
  13 C      5.387158    6.681227    5.079553
  14 C      8.621774    4.546012    5.313164
  15 C     10.206430    6.639368    5.149134
  16 C      3.482659    8.973647    5.081423
  17 C     10.598002    9.363061    4.436968
  18 C     10.909852    8.124370    4.312225
  19 C      4.373988    9.924456    5.043619
  20 C      3.677092    6.288424    4.741514
  21 C      8.199431   10.414059    4.888406
  22 C      3.617543    7.604449    5.323230
  23 C      9.223766    9.469826    4.780169

Unit cell:
           periodic     x           y           z      points  spacing
  1. axis:    yes   16.000000    0.000000    0.000000    80     0.2000
  2. axis:    yes    0.000000   16.000000    0.000000    80     0.2000
  3. axis:    yes    0.000000    0.000000   10.000000    48     0.2083

Effective grid spacing dv^(1/3) = 0.2027

                     log10-error:    total        iterations:
           time      wfs    density  energy       fermi  poisson
iter:   1  15:13:23          +inf  -167.389411    3      5      
iter:   2  15:13:23         -1.92  -167.316766    3      2      
iter:   3  15:13:24         -2.08  -167.284996    3      2      
iter:   4  15:13:24         -2.21  -167.275789    3      2      
iter:   5  15:13:25         -2.29  -167.268024    3      2      
iter:   6  15:13:25         -2.49  -167.263716    2      2      
iter:   7  15:13:26         -2.60  -167.264887    2      2      
iter:   8  15:13:26         -2.74  -167.264227    2      2      
iter:   9  15:13:27         -2.83  -167.263458    2      2      
iter:  10  15:13:27         -3.19  -167.263833    2      1      
iter:  11  15:13:28         -3.34  -167.263666    2      1      
iter:  12  15:13:28         -3.47  -167.263226    2      1      
iter:  13  15:13:29         -3.63  -167.263253    2      1      
iter:  14  15:13:29         -3.77  -167.263314    2      1      
iter:  15  15:13:30         -3.89  -167.263176    2      1      
iter:  16  15:13:30         -4.07  -167.263290    2      1      

Converged after 16 iterations.

Dipole moment: (-0.380647, -0.098527, 0.152622) |e|*Ang

Energy contributions relative to reference atoms: (reference = -24663.074771)

Kinetic:       +120.199442
Potential:     -119.808741
External:        +0.000000
XC:            -170.325798
Entropy (-ST):   -0.381228
Local:           +2.862420
--------------------------
Free energy:   -167.453904
Extrapolated:  -167.263290

Fermi level: -4.76288

 Band  Eigenvalues  Occupancy
    0    -23.96047    2.00000
    1    -23.45557    2.00000
    2    -22.92324    2.00000
    3    -21.42591    2.00000
    4    -21.10007    2.00000
    5    -20.09363    2.00000
    6    -20.01264    2.00000
    7    -19.62943    2.00000
    8    -18.64124    2.00000
    9    -18.33026    2.00000
   10    -17.76488    2.00000
   11    -17.09039    2.00000
   12    -16.67974    2.00000
   13    -15.87525    2.00000
   14    -15.52807    2.00000
   15    -15.09601    2.00000
   16    -14.15102    2.00000
   17    -14.03721    2.00000
   18    -13.60668    2.00000
   19    -12.82235    2.00000
   20    -12.40627    2.00000
   21    -11.66210    2.00000
   22    -11.27766    2.00000
   23    -11.14594    2.00000
   24    -11.00552    2.00000
   25    -10.70815    2.00000
   26    -10.44561    2.00000
   27    -10.10153    2.00000
   28     -9.89771    2.00000
   29     -9.61117    2.00000
   30     -9.13249    2.00000
   31     -9.03635    2.00000
   32     -8.47927    2.00000
   33     -8.28355    2.00000
   34     -7.68861    2.00000
   35     -7.63046    2.00000
   36     -7.20958    2.00000
   37     -7.11691    2.00000
   38     -6.71032    2.00000
   39     -6.63440    2.00000
   40     -6.50683    2.00000
   41     -6.26998    2.00000
   42     -6.11306    2.00000
   43     -5.96067    1.99999
   44     -5.84698    1.99996
   45     -5.11482    1.94247
   46     -4.97871    1.79287
   47     -4.79929    1.18007
   48     -4.77445    1.05780
   49     -4.32803    0.02552
   50     -4.00656    0.00104
   51     -3.87543    0.00028
   52     -3.51941    0.00001
   53     -3.11617    0.00000
   54     -2.58924    0.00000
   55     -2.29029    0.00000
   56     -1.96797    0.00000
   57     -1.83669    0.00000
   58     -1.21998    0.00000
   59     -1.07463    0.00000
   60     -0.79013    0.00000
   61      0.36061    0.00000
   62      0.49224    0.00000
   63      0.85306    0.00000
   64      1.14223    0.00000
   65      1.61621    0.00000
   66      1.94717    0.00000
   67      2.37393    0.00000
   68      2.66853    0.00000
   69      3.21696    0.00000
   70      3.84298    0.00000
   71      4.23703    0.00000
   72      4.86087    0.00000
   73      5.11266    0.00000
   74      5.82644    0.00000
   75      6.31150    0.00000
   76      6.60163    0.00000
   77      6.86269    0.00000
   78      7.49648    0.00000
   79      7.78562    0.00000
   80      7.92066    0.00000
   81      8.28867    0.00000
   82      8.36281    0.00000
   83      8.44986    0.00000
   84      8.69732    0.00000
   85      8.71946    0.00000
   86      8.87083    0.00000
   87      8.90177    0.00000
   88      9.17160    0.00000
   89      9.30612    0.00000
   90      9.35104    0.00000
   91      9.49994    0.00000
   92      9.52019    0.00000
   93      9.55880    0.00000
   94      9.61257    0.00000
   95      9.82431    0.00000
   96      9.99428    0.00000
   97     10.01591    0.00000


Forces in eV/Ang:
  0 C    -0.35741   -0.75942    0.17702
  1 C    -0.00269   -0.07327    0.26704
  2 C     0.98444    1.75086   -0.64981
  3 C    -0.07419   -0.07360   -0.00099
  4 C    -3.30326   -1.73991    0.43345
  5 C     0.31211    0.25279    0.04039
  6 C    -3.79848   -1.58455   -0.06272
  7 C    -7.51609   -4.55259    0.31314
  8 C     2.85129   -3.49793    0.43322
  9 C    -0.84128   -0.65145    0.40128
 10 C    -1.58299    2.87867    0.39704
 11 C     1.37334    1.58033    0.09032
 12 C    -1.06861   -0.17048    0.10450
 13 C    -2.21409    1.40865   -1.64157
 14 C     0.53915   -0.13452   -0.04335
 15 C     4.54012   -0.68290   -1.75221
 16 C    -0.11145   -2.19430    0.36538
 17 C     0.16303   -1.07338    0.09284
 18 C    -1.86166   -2.37297    1.31158
 19 C     1.81481    5.30463   -0.41750
 20 C     2.59937    2.69323    2.42330
 21 C     4.90722    3.93079    0.18205
 22 C    -1.63178   -1.62142   -1.67816
 23 C     4.15258    1.35537   -0.82117

System changes: positions 

Initializing position-dependent things.

Density initialized from wave functions
           .--------------------------------------.  
          /|                                      |  
         / |                                      |  
        /  |                                      |  
       /   |                                      |  
      /    |                                      |  
     /     |                                      |  
    /      |                                      |  
   /       |                                      |  
  /        |         C                            |  
 *         |   C  C   C  C  CC                    |  
 |         |   C   C      C      C                |  
 |         .--C---C--C--C--C--C-CC----------------.  
 |        /       C  C   C C  C                  /   
 |       /                                      /    
 |      /                                      /     
 |     /                                      /      
 |    /                                      /       
 |   /                                      /        
 |  /                                      /         
 | /                                      /          
 |/                                      /           
 *--------------------------------------*            

Positions:
   0 C     10.868754    4.506384    5.499873
   1 C      9.797080    3.742797    5.380192
   2 C      8.947434    5.922751    5.130717
   3 C      6.228331    3.484290    5.352062
   4 C      5.558873   10.680079    4.938773
   5 C      7.080521    4.523841    5.261139
   6 C      6.158244    9.352991    4.973414
   7 C      7.554954    9.241500    4.976645
   8 C      5.290040    8.170895    5.002213
   9 C     11.299503    5.736687    5.285810
  10 C      8.240870    8.027120    4.926179
  11 C      7.803512    6.719757    4.999964
  12 C      6.593861    5.963091    5.100828
  13 C      5.372200    6.689944    5.067893
  14 C      8.625840    4.546935    5.312548
  15 C     10.237327    6.635461    5.135709
  16 C      3.490526    8.967180    5.083435
  17 C     10.603004    9.352648    4.437293
  18 C     10.895163    8.108467    4.322085
  19 C      4.376793    9.953141    5.041879
  20 C      3.696522    6.305861    4.758686
  21 C      8.223137   10.414102    4.891447
  22 C      3.605574    7.595022    5.311242
  23 C      9.247768    9.482086    4.774680

Unit cell:
           periodic     x           y           z      points  spacing
  1. axis:    yes   16.000000    0.000000    0.000000    80     0.2000
  2. axis:    yes    0.000000   16.000000    0.000000    80     0.2000
  3. axis:    yes    0.000000    0.000000   10.000000    48     0.2083

Effective grid spacing dv^(1/3) = 0.2027

                     log10-error:    total        iterations:
           time      wfs    density  energy       fermi  poisson
iter:   1  15:13:32          +inf  -169.123962    3      5      
iter:   2  15:13:32         -1.68  -168.941239    3      2      
iter:   3  15:13:33         -1.92  -168.903177    3      2      
iter:   4  15:13:34         -2.03  -168.866893    3      2      
iter:   5  15:13:34         -2.20  -168.856895    2      2      
iter:   6  15:13:35         -2.38  -168.851478    3      2      
iter:   7  15:13:35         -2.56  -168.852237    3      2      
iter:   8  15:13:36         -2.61  -168.849792    3      2      
iter:   9  15:13:36         -2.93  -168.848331    2      1      
iter:  10  15:13:37         -3.03  -168.850796    2      2      
iter:  11  15:13:37         -3.29  -168.851815    2      1      
iter:  12  15:13:38         -3.36  -168.850891    3      1      
iter:  13  15:13:38         -3.62  -168.850597    2      1      
iter:  14  15:13:38         -3.75  -168.850882    2      1      
iter:  15  15:13:39         -3.96  -168.850874    2      1      
iter:  16  15:13:39         -4.14  -168.850975    2      1      

Converged after 16 iterations.

Dipole moment: (-0.317763, -0.063048, 0.140509) |e|*Ang

Energy contributions relative to reference atoms: (reference = -24663.074771)

Kinetic:       +119.413011
Potential:     -119.961439
External:        +0.000000
XC:            -171.007799
Entropy (-ST):   -0.385628
Local:           +2.898066
--------------------------
Free energy:   -169.043790
Extrapolated:  -168.850975

Fermi level: -4.73895

 Band  Eigenvalues  Occupancy
    0    -23.82859    2.00000
    1    -23.15904    2.00000
    2    -22.78522    2.00000
    3    -21.53229    2.00000
    4    -21.15460    2.00000
    5    -20.09334    2.00000
    6    -19.96812    2.00000
    7    -19.66162    2.00000
    8    -18.64499    2.00000
    9    -18.31578    2.00000
   10    -17.79100    2.00000
   11    -17.21975    2.00000
   12    -16.66753    2.00000
   13    -15.86174    2.00000
   14    -15.41717    2.00000
   15    -15.03233    2.00000
   16    -14.22061    2.00000
   17    -14.09533    2.00000
   18    -13.60623    2.00000
   19    -12.85519    2.00000
   20    -12.38380    2.00000
   21    -11.67959    2.00000
   22    -11.29225    2.00000
   23    -11.13313    2.00000
   24    -10.97677    2.00000
   25    -10.71231    2.00000
   26    -10.40056    2.00000
   27     -9.98343    2.00000
   28     -9.97124    2.00000
   29     -9.64164    2.00000
   30     -9.21660    2.00000
   31     -9.08138    2.00000
   32     -8.55013    2.00000
   33     -8.38171    2.00000
   34     -7.70947    2.00000
   35     -7.62866    2.00000
   36     -7.23881    2.00000
   37     -7.22718    2.00000
   38     -6.81158    2.00000
   39     -6.55534    2.00000
   40     -6.52478    2.00000
   41     -6.34950    2.00000
   42     -6.14130    2.00000
   43     -6.01053    1.99999
   44     -5.92256    1.99999
   45     -5.04008    1.90616
   46     -4.95859    1.79983
   47     -4.77437    1.17525
   48     -4.75964    1.10307
   49     -4.24933    0.01484
   50     -3.93936    0.00067
   51     -3.81386    0.00019
   52     -3.49340    0.00001
   53     -3.12727    0.00000
   54     -2.56470    0.00000
   55     -2.17864    0.00000
   56     -1.94484    0.00000
   57     -1.66417    0.00000
   58     -1.18891    0.00000
   59     -1.04944    0.00000
   60     -0.85057    0.00000
   61      0.38844    0.00000
   62      0.50659    0.00000
   63      0.93182    0.00000
   64      1.30876    0.00000
   65      1.82714    0.00000
   66      2.14347    0.00000
   67      2.60906    0.00000
   68      2.76311    0.00000
   69      3.28328    0.00000
   70      3.87973    0.00000
   71      4.22939    0.00000
   72      5.05380    0.00000
   73      5.43383    0.00000
   74      5.88280    0.00000
   75      6.39068    0.00000
   76      6.60360    0.00000
   77      6.77842    0.00000
   78      7.53204    0.00000
   79      7.85961    0.00000
   80      8.00025    0.00000
   81      8.33115    0.00000
   82      8.41135    0.00000
   83      8.43280    0.00000
   84      8.72950    0.00000
   85      8.78393    0.00000
   86      8.89939    0.00000
   87      8.99886    0.00000
   88      9.20853    0.00000
   89      9.32339    0.00000
   90      9.46156    0.00000
   91      9.54256    0.00000
   92      9.54899    0.00000
   93      9.57580    0.00000
   94      9.62335    0.00000
   95      9.83878    0.00000
   96     10.01820    0.00000
   97     10.03739    0.00000


Forces in eV/Ang:
  0 C    -0.23946   -0.72983    0.18964
  1 C    -0.06522   -0.20289    0.26191
  2 C     1.09380    1.39425   -0.57687
  3 C     0.00440    0.04489   -0.01127
  4 C    -2.75199   -1.22494    0.34071
  5 C     0.23795    0.25100    0.02842
  6 C    -2.93888   -1.44174   -0.06165
  7 C    -5.91236   -2.65334    0.18116
  8 C     2.02337   -2.81269    0.30666
  9 C    -0.17860   -0.99949    0.41573
 10 C    -1.48030    2.54171    0.31779
 11 C     0.87672    1.43248    0.14010
 12 C    -0.71967    0.13341    0.02706
 13 C    -1.49177    0.60390   -1.40832
 14 C     0.52370    0.37664   -0.11334
 15 C     3.52067   -0.22838   -1.85649
 16 C     0.63124   -1.47606    0.29694
 17 C     0.68557   -1.20168    0.05190
 18 C    -1.89062   -2.35718    1.37976
 19 C     0.18206    3.72493   -0.17298
 20 C     2.54131    1.76071    2.02199
 21 C     3.66505    2.23873    0.26951
 22 C    -1.50187   -0.37030   -1.42309
 23 C     3.11585    1.10371   -0.66387

System changes: positions 

Initializing position-dependent things.

Density initialized from wave functions
           .--------------------------------------.  
          /|                                      |  
         / |                                      |  
        /  |                                      |  
       /   |                                      |  
      /    |                                      |  
     /     |                                      |  
    /      |                                      |  
   /       |                                      |  
  /        |         C                            |  
 *         |   C  C   C  C  C C                   |  
 |         |   C   C      C      C                |  
 |         .--C---C--C--C--C--C-CC----------------.  
 |        /       C  C   C C  C                  /   
 |       /                                      /    
 |      /                                      /     
 |     /                                      /      
 |    /                                      /       
 |   /                                      /        
 |  /                                      /         
 | /                                      /          
 |/                                      /           
 *--------------------------------------*            

Positions:
   0 C     10.867090    4.499813    5.501707
   1 C      9.796178    3.740166    5.382579
   2 C      8.958069    5.933711    5.125821
   3 C      6.228803    3.485347    5.351903
   4 C      5.535572   10.671544    4.941479
   5 C      7.082296    4.526124    5.261355
   6 C      6.134987    9.339669    4.973111
   7 C      7.514977    9.240153    4.976541
   8 C      5.304911    8.147852    5.004278
   9 C     11.301178    5.725535    5.289815
  10 C      8.227977    8.049867    4.928662
  11 C      7.808473    6.730460    5.001668
  12 C      6.589582    5.966392    5.100592
  13 C      5.361647    6.691815    5.055904
  14 C      8.630692    4.553294    5.311085
  15 C     10.264946    6.635558    5.117860
  16 C      3.504042    8.961702    5.085550
  17 C     10.613379    9.339601    4.437422
  18 C     10.876983    8.087632    4.335208
  19 C      4.366669    9.976100    5.041901
  20 C      3.720020    6.317569    4.775640
  21 C      8.245474   10.411947    4.895247
  22 C      3.592141    7.597340    5.299155
  23 C      9.269188    9.492797    4.769401

Unit cell:
           periodic     x           y           z      points  spacing
  1. axis:    yes   16.000000    0.000000    0.000000    80     0.2000
  2. axis:    yes    0.000000   16.000000    0.000000    80     0.2000
  3. axis:    yes    0.000000    0.000000   10.000000    48     0.2083

Effective grid spacing dv^(1/3) = 0.2027

                     log10-error:    total        iterations:
           time      wfs    density  energy       fermi  poisson
iter:   1  15:13:41          +inf  -170.343101    3      5      
iter:   2  15:13:42         -1.69  -170.155136    3      2      
iter:   3  15:13:42         -2.01  -170.130574    3      2      
iter:   4  15:13:43         -2.11  -170.101215    3      2      
iter:   5  15:13:43         -2.31  -170.096801    3      2      
iter:   6  15:13:44         -2.43  -170.091967    3      2      
iter:   7  15:13:44         -2.63  -170.092557    3      2      
iter:   8  15:13:45         -2.73  -170.091315    3      2      
iter:   9  15:13:45         -2.97  -170.091559    3      2      
iter:  10  15:13:46         -3.13  -170.090125    2      1      
iter:  11  15:13:46         -3.32  -170.091737    2      1      
iter:  12  15:13:47         -3.42  -170.092486    2      1      
iter:  13  15:13:47         -3.53  -170.091827    2      1      
iter:  14  15:13:48         -3.68  -170.091007    2      1      
iter:  15  15:13:48         -3.93  -170.092207    2      1      
iter:  16  15:13:49         -4.06  -170.091787    2      1      

Converged after 16 iterations.

Dipole moment: (-0.289209, -0.014347, 0.122258) |e|*Ang

Energy contributions relative to reference atoms: (reference = -24663.074771)

Kinetic:       +119.573397
Potential:     -120.665802
External:        +0.000000
XC:            -171.721482
Entropy (-ST):   -0.386456
Local:           +2.915328
--------------------------
Free energy:   -170.285015
Extrapolated:  -170.091787

Fermi level: -4.70877

 Band  Eigenvalues  Occupancy
    0    -23.77958    2.00000
    1    -22.96859    2.00000
    2    -22.62671    2.00000
    3    -21.59812    2.00000
    4    -21.15399    2.00000
    5    -20.14620    2.00000
    6    -19.89963    2.00000
    7    -19.67565    2.00000
    8    -18.63208    2.00000
    9    -18.30077    2.00000
   10    -17.86975    2.00000
   11    -17.23845    2.00000
   12    -16.67687    2.00000
   13    -15.89582    2.00000
   14    -15.35816    2.00000
   15    -14.99971    2.00000
   16    -14.25554    2.00000
   17    -14.16365    2.00000
   18    -13.56310    2.00000
   19    -12.86444    2.00000
   20    -12.38664    2.00000
   21    -11.71485    2.00000
   22    -11.30379    2.00000
   23    -11.12792    2.00000
   24    -10.96544    2.00000
   25    -10.71457    2.00000
   26    -10.36128    2.00000
   27    -10.07701    2.00000
   28     -9.89165    2.00000
   29     -9.70561    2.00000
   30     -9.27382    2.00000
   31     -9.10892    2.00000
   32     -8.62523    2.00000
   33     -8.44285    2.00000
   34     -7.77388    2.00000
   35     -7.59053    2.00000
   36     -7.40890    2.00000
   37     -7.26856    2.00000
   38     -6.88339    2.00000
   39     -6.55240    2.00000
   40     -6.47317    2.00000
   41     -6.37971    2.00000
   42     -6.15435    2.00000
   43     -6.05219    2.00000
   44     -5.95528    1.99999
   45     -4.99434    1.89122
   46     -4.92975    1.80225
   47     -4.74039    1.15680
   48     -4.73683    1.13938
   49     -4.17429    0.00950
   50     -3.90860    0.00067
   51     -3.77594    0.00018
   52     -3.48564    0.00001
   53     -3.14189    0.00000
   54     -2.52131    0.00000
   55     -2.06399    0.00000
   56     -1.90391    0.00000
   57     -1.56160    0.00000
   58     -1.21580    0.00000
   59     -0.96959    0.00000
   60     -0.85650    0.00000
   61      0.41460    0.00000
   62      0.53364    0.00000
   63      1.02602    0.00000
   64      1.46384    0.00000
   65      2.01172    0.00000
   66      2.32130    0.00000
   67      2.85033    0.00000
   68      2.95848    0.00000
   69      3.36388    0.00000
   70      3.91418    0.00000
   71      4.24815    0.00000
   72      5.12929    0.00000
   73      5.62746    0.00000
   74      5.94657    0.00000
   75      6.38822    0.00000
   76      6.60436    0.00000
   77      6.79561    0.00000
   78      7.56376    0.00000
   79      7.89817    0.00000
   80      8.04329    0.00000
   81      8.33849    0.00000
   82      8.35681    0.00000
   83      8.44022    0.00000
   84      8.74836    0.00000
   85      8.83114    0.00000
   86      8.91787    0.00000
   87      9.07700    0.00000
   88      9.25181    0.00000
   89      9.34364    0.00000
   90      9.45806    0.00000
   91      9.56753    0.00000
   92      9.58830    0.00000
   93      9.62800    0.00000
   94      9.66884    0.00000
   95      9.86727    0.00000
   96     10.04692    0.00000
   97     10.09691    0.00000


Forces in eV/Ang:
  0 C    -0.15959   -0.75267    0.20113
  1 C    -0.16712   -0.26229    0.27008
  2 C     0.93816    1.27092   -0.58599
  3 C     0.05597    0.13699   -0.02032
  4 C    -2.28035   -0.88791    0.28680
  5 C     0.24009    0.32651    0.01271
  6 C    -2.52883   -1.07899   -0.04830
  7 C    -4.06227   -1.30349    0.08024
  8 C     1.24395   -2.10625    0.25447
  9 C     0.28681   -1.01506    0.36614
 10 C    -1.38757    2.10573    0.25230
 11 C     0.73786    1.28803    0.16920
 12 C    -0.35922    0.20226   -0.04021
 13 C    -1.07977   -0.14578   -1.21293
 14 C     0.50459    0.63853   -0.15332
 15 C     2.79539    0.07016   -1.92675
 16 C     0.66426   -1.08899    0.22466
 17 C     1.03647   -1.35798   -0.00994
 18 C    -1.96657   -2.34181    1.51481
 19 C    -0.63768    2.96923   -0.01568
 20 C     2.47467    1.18412    1.74134
 21 C     2.55472    1.15348    0.29595
 22 C    -1.30217    0.22153   -1.22100
 23 C     2.25908    0.80667   -0.51495

System changes: positions 

Initializing position-dependent things.

Density initialized from wave functions
           .--------------------------------------.  
          /|                                      |  
         / |                                      |  
        /  |                                      |  
       /   |                                      |  
      /    |                                      |  
     /     |                                      |  
    /      |                                      |  
   /       |                                      |  
  /        |         C                            |  
 *         |   C  C   C  C  C C                   |  
 |         |  C    C      C      C                |  
 |         .--C---C--C--C--C--C-C-----------------.  
 |        /       C  C   C C  C                  /   
 |       /                                      /    
 |      /                                      /     
 |     /                                      /      
 |    /                                      /       
 |   /                                      /        
 |  /                                      /         
 | /                                      /          
 |/                                      /           
 *--------------------------------------*            

Positions:
   0 C     10.865725    4.491068    5.504128
   1 C      9.793805    3.736539    5.385732
   2 C      8.968884    5.947178    5.119199
   3 C      6.229824    3.487531    5.351613
   4 C      5.511277   10.663566    4.944451
   5 C      7.084871    4.530108    5.261439
   6 C      6.108595    9.327963    4.972750
   7 C      7.480848    9.242095    4.976162
   8 C      5.315381    8.126650    5.006688
   9 C     11.307508    5.712618    5.294052
  10 C      8.212476    8.072989    4.931188
  11 C      7.814986    6.743589    5.003951
  12 C      6.587653    5.970083    5.099679
  13 C      5.351809    6.686216    5.042797
  14 C      8.636544    4.562988    5.308965
  15 C     10.293066    6.638323    5.094816
  16 C      3.516340    8.954784    5.087619
  17 C     10.628669    9.322196    4.436944
  18 C     10.853414    8.060942    4.353432
  19 C      4.350466   10.002330    5.043027
  20 C      3.748749    6.327460    4.794325
  21 C      8.265739   10.409053    4.899547
  22 C      3.577690    7.604471    5.285985
  23 C      9.289174    9.501873    4.764244

Unit cell:
           periodic     x           y           z      points  spacing
  1. axis:    yes   16.000000    0.000000    0.000000    80     0.2000
  2. axis:    yes    0.000000   16.000000    0.000000    80     0.2000
  3. axis:    yes    0.000000    0.000000   10.000000    48     0.2083

Effective grid spacing dv^(1/3) = 0.2027

                     log10-error:    total        iterations:
           time      wfs    density  energy       fermi  poisson
iter:   1  15:13:50          +inf  -171.431844    3      5      
iter:   2  15:13:51         -1.70  -171.252884    3      2      
iter:   3  15:13:51         -2.03  -171.229032    3      2      
iter:   4  15:13:52         -2.13  -171.198915    3      2      
iter:   5  15:13:52         -2.34  -171.193634    3      2      
iter:   6  15:13:53         -2.48  -171.192718    3      2      
iter:   7  15:13:53         -2.59  -171.192067    2      2      
iter:   8  15:13:54         -2.70  -171.190539    3      2      
iter:   9  15:13:54         -3.04  -171.190350    2      1      
iter:  10  15:13:55         -3.17  -171.189821    2      1      
iter:  11  15:13:55         -3.34  -171.190456    2      1      
iter:  12  15:13:56         -3.45  -171.190938    2      1      
iter:  13  15:13:56         -3.62  -171.191544    2      1      
iter:  14  15:13:57         -3.75  -171.191813    2      1      
iter:  15  15:13:57         -3.86  -171.191200    2      1      
iter:  16  15:13:58         -3.98  -171.191142    2      1      
iter:  17  15:13:58         -4.05  -171.190972    2      1      

Converged after 17 iterations.

Dipole moment: (-0.275182, 0.042047, 0.101801) |e|*Ang

Energy contributions relative to reference atoms: (reference = -24663.074771)

Kinetic:       +119.430085
Potential:     -121.012117
External:        +0.000000
XC:            -172.344800
Entropy (-ST):   -0.381928
Local:           +2.926824
--------------------------
Free energy:   -171.381936
Extrapolated:  -171.190972

Fermi level: -4.67157

 Band  Eigenvalues  Occupancy
    0    -23.75359    2.00000
    1    -22.84864    2.00000
    2    -22.49603    2.00000
    3    -21.64025    2.00000
    4    -21.13931    2.00000
    5    -20.20647    2.00000
    6    -19.84466    2.00000
    7    -19.68279    2.00000
    8    -18.60487    2.00000
    9    -18.27283    2.00000
   10    -17.96966    2.00000
   11    -17.22696    2.00000
   12    -16.66985    2.00000
   13    -15.94805    2.00000
   14    -15.35405    2.00000
   15    -14.96089    2.00000
   16    -14.29660    2.00000
   17    -14.20798    2.00000
   18    -13.52241    2.00000
   19    -12.85163    2.00000
   20    -12.41192    2.00000
   21    -11.77086    2.00000
   22    -11.31679    2.00000
   23    -11.12594    2.00000
   24    -10.97652    2.00000
   25    -10.71778    2.00000
   26    -10.33351    2.00000
   27    -10.18313    2.00000
   28     -9.89517    2.00000
   29     -9.73829    2.00000
   30     -9.32968    2.00000
   31     -9.14299    2.00000
   32     -8.70803    2.00000
   33     -8.49928    2.00000
   34     -7.85410    2.00000
   35     -7.63625    2.00000
   36     -7.51973    2.00000
   37     -7.30955    2.00000
   38     -6.91379    2.00000
   39     -6.55431    2.00000
   40     -6.51911    2.00000
   41     -6.28448    2.00000
   42     -6.15314    2.00000
   43     -6.07286    2.00000
   44     -5.96161    2.00000
   45     -4.98223    1.91433
   46     -4.88146    1.78160
   47     -4.71014    1.19049
   48     -4.69292    1.10637
   49     -4.09589    0.00630
   50     -3.87536    0.00070
   51     -3.75029    0.00020
   52     -3.48079    0.00001
   53     -3.16615    0.00000
   54     -2.48327    0.00000
   55     -1.98211    0.00000
   56     -1.86048    0.00000
   57     -1.49673    0.00000
   58     -1.24120    0.00000
   59     -0.94075    0.00000
   60     -0.76250    0.00000
   61      0.40587    0.00000
   62      0.56273    0.00000
   63      1.09817    0.00000
   64      1.59005    0.00000
   65      2.27866    0.00000
   66      2.47472    0.00000
   67      2.95554    0.00000
   68      3.36008    0.00000
   69      3.49886    0.00000
   70      3.94191    0.00000
   71      4.26965    0.00000
   72      5.18303    0.00000
   73      5.71510    0.00000
   74      6.02387    0.00000
   75      6.38645    0.00000
   76      6.60824    0.00000
   77      6.89663    0.00000
   78      7.58869    0.00000
   79      7.90242    0.00000
   80      8.05877    0.00000
   81      8.23990    0.00000
   82      8.36242    0.00000
   83      8.40224    0.00000
   84      8.76121    0.00000
   85      8.85656    0.00000
   86      8.91919    0.00000
   87      9.11060    0.00000
   88      9.28108    0.00000
   89      9.34857    0.00000
   90      9.44471    0.00000
   91      9.58873    0.00000
   92      9.61801    0.00000
   93      9.66306    0.00000
   94      9.71231    0.00000
   95      9.88496    0.00000
   96     10.06192    0.00000
   97     10.15963    0.00000


Forces in eV/Ang:
  0 C    -0.09212   -0.65322    0.19177
  1 C    -0.24858   -0.28392    0.28738
  2 C     0.93067    1.11837   -0.58377
  3 C     0.12835    0.25090   -0.03110
  4 C    -1.79547   -0.49613    0.22582
  5 C     0.25415    0.36271    0.00016
  6 C    -1.93746   -0.83824   -0.03601
  7 C    -2.77968   -0.33113    0.01649
  8 C     0.60078   -1.44613    0.24423
  9 C     0.59056   -0.98081    0.29667
 10 C    -1.14578    1.59919    0.18024
 11 C     0.51870    1.10791    0.18000
 12 C    -0.05857    0.22147   -0.10639
 13 C    -0.73200   -0.72157   -0.99170
 14 C     0.44359    0.81871   -0.17926
 15 C     2.21881    0.20465   -1.88328
 16 C     0.62308   -0.47898    0.13088
 17 C     1.16967   -1.47332   -0.08035
 18 C    -2.03345   -2.33198    1.67612
 19 C    -1.44146    2.18045    0.06512
 20 C     2.37268    0.69377    1.53003
 21 C     1.68977    0.59123    0.25851
 22 C    -1.02395    0.45697   -1.05822
 23 C     1.64820    0.50295   -0.37324

System changes: positions 

Initializing position-dependent things.

Density initialized from wave functions
           .--------------------------------------.  
          /|                                      |  
         / |                                      |  
        /  |                                      |  
       /   |                                      |  
      /    |                                      |  
     /     |                                      |  
    /      |                                      |  
   /       |                                      |  
  /        |         C                            |  
 *         |   C  C   C  C  C C                   |  
 |         |  C    C      C      C                |  
 |         .--C---C--C--C--C--C-C-----------------.  
 |        /       C  C   C C  C                  /   
 |       /                                      /    
 |      /                                      /     
 |     /                                      /      
 |    /                                      /       
 |   /                                      /        
 |  /                                      /         
 | /                                      /          
 |/                                      /           
 *--------------------------------------*            

Positions:
   0 C     10.864841    4.483718    5.506323
   1 C      9.790832    3.733136    5.389001
   2 C      8.979400    5.959402    5.112645
   3 C      6.231421    3.490599    5.351240
   4 C      5.491670   10.658805    4.946886
   5 C      7.087692    4.534284    5.261420
   6 C      6.087680    9.318699    4.972443
   7 C      7.454569    9.245594    4.975787
   8 C      5.320836    8.111403    5.009281
   9 C     11.315168    5.701188    5.297389
  10 C      8.199822    8.090642    4.933076
  11 C      7.820095    6.755278    5.006107
  12 C      6.587846    5.973052    5.098304
  13 C      5.344362    6.676739    5.031913
  14 C      8.641552    4.573024    5.306818
  15 C     10.316769    6.641230    5.073288
  16 C      3.525241    8.951925    5.088865
  17 C     10.643097    9.304797    4.435878
  18 C     10.830053    8.034794    4.372682
  19 C      4.330778   10.023850    5.044223
  20 C      3.775629    6.334044    4.811182
  21 C      8.281072   10.408810    4.902828
  22 C      3.566376    7.610926    5.274317
  23 C      9.305507    9.507616    4.760319

Unit cell:
           periodic     x           y           z      points  spacing
  1. axis:    yes   16.000000    0.000000    0.000000    80     0.2000
  2. axis:    yes    0.000000   16.000000    0.000000    80     0.2000
  3. axis:    yes    0.000000    0.000000   10.000000    48     0.2083

Effective grid spacing dv^(1/3) = 0.2027

                     log10-error:    total        iterations:
           time      wfs    density  energy       fermi  poisson
iter:   1  15:14:00          +inf  -172.164240    3      5      
iter:   2  15:14:00         -1.79  -172.052377    3      2      
iter:   3  15:14:01         -2.11  -172.034588    2      2      
iter:   4  15:14:01         -2.21  -172.012850    2      2      
iter:   5  15:14:02         -2.43  -172.010865    3      2      
iter:   6  15:14:02         -2.50  -172.007234    3      2      
iter:   7  15:14:03         -2.73  -172.006051    2      1      
iter:   8  15:14:03         -2.80  -172.006985    3      2      
iter:   9  15:14:04         -3.08  -172.005564    2      1      
iter:  10  15:14:04         -3.20  -172.006345    2      1      
iter:  11  15:14:05         -3.37  -172.007011    2      1      
iter:  12  15:14:05         -3.58  -172.007601    2      1      
iter:  13  15:14:06         -3.66  -172.007516    2      1      
iter:  14  15:14:06         -3.75  -172.007570    2      1      
iter:  15  15:14:07         -3.84  -172.007429    2      1      
iter:  16  15:14:07         -3.95  -172.007085    2      1      
iter:  17  15:14:08         -4.10  -172.007212    2      1      

Converged after 17 iterations.

Dipole moment: (-0.271298, 0.084135, 0.084370) |e|*Ang

Energy contributions relative to reference atoms: (reference = -24663.074771)

Kinetic:       +118.866023
Potential:     -120.902467
External:        +0.000000
XC:            -172.713373
Entropy (-ST):   -0.376592
Local:           +2.930901
--------------------------
Free energy:   -172.195508
Extrapolated:  -172.007212

Fermi level: -4.63937

 Band  Eigenvalues  Occupancy
    0    -23.72488    2.00000
    1    -22.77033    2.00000
    2    -22.40649    2.00000
    3    -21.64144    2.00000
    4    -21.13109    2.00000
    5    -20.25996    2.00000
    6    -19.81700    2.00000
    7    -19.67612    2.00000
    8    -18.58729    2.00000
    9    -18.25759    2.00000
   10    -18.03354    2.00000
   11    -17.20759    2.00000
   12    -16.65238    2.00000
   13    -16.01697    2.00000
   14    -15.37457    2.00000
   15    -14.92204    2.00000
   16    -14.37908    2.00000
   17    -14.18403    2.00000
   18    -13.49462    2.00000
   19    -12.82934    2.00000
   20    -12.45026    2.00000
   21    -11.83055    2.00000
   22    -11.32290    2.00000
   23    -11.12105    2.00000
   24    -11.01440    2.00000
   25    -10.71799    2.00000
   26    -10.33435    2.00000
   27    -10.24530    2.00000
   28     -9.95175    2.00000
   29     -9.71660    2.00000
   30     -9.36523    2.00000
   31     -9.17570    2.00000
   32     -8.77738    2.00000
   33     -8.53756    2.00000
   34     -7.96785    2.00000
   35     -7.72820    2.00000
   36     -7.50388    2.00000
   37     -7.33983    2.00000
   38     -6.92020    2.00000
   39     -6.58402    2.00000
   40     -6.52188    2.00000
   41     -6.25577    2.00000
   42     -6.10498    2.00000
   43     -6.07077    2.00000
   44     -5.96109    2.00000
   45     -4.98107    1.93647
   46     -4.84044    1.76383
   47     -4.68636    1.23072
   48     -4.65202    1.06318
   49     -4.03565    0.00477
   50     -3.84898    0.00074
   51     -3.75147    0.00028
   52     -3.48193    0.00002
   53     -3.18945    0.00000
   54     -2.45698    0.00000
   55     -1.93215    0.00000
   56     -1.82252    0.00000
   57     -1.47595    0.00000
   58     -1.25302    0.00000
   59     -0.93676    0.00000
   60     -0.64261    0.00000
   61      0.37101    0.00000
   62      0.58358    0.00000
   63      1.14037    0.00000
   64      1.66855    0.00000
   65      2.52056    0.00000
   66      2.61774    0.00000
   67      3.06718    0.00000
   68      3.44791    0.00000
   69      3.87279    0.00000
   70      3.95801    0.00000
   71      4.30295    0.00000
   72      5.20022    0.00000
   73      5.75452    0.00000
   74      6.05306    0.00000
   75      6.40317    0.00000
   76      6.64652    0.00000
   77      6.96074    0.00000
   78      7.58641    0.00000
   79      7.88580    0.00000
   80      8.06056    0.00000
   81      8.14723    0.00000
   82      8.35059    0.00000
   83      8.36176    0.00000
   84      8.76940    0.00000
   85      8.85920    0.00000
   86      8.91166    0.00000
   87      9.10452    0.00000
   88      9.29373    0.00000
   89      9.34629    0.00000
   90      9.44019    0.00000
   91      9.59769    0.00000
   92      9.64017    0.00000
   93      9.68562    0.00000
   94      9.73995    0.00000
   95      9.90095    0.00000
   96     10.05816    0.00000
   97     10.19646    0.00000


Forces in eV/Ang:
  0 C    -0.06916   -0.54610    0.16196
  1 C    -0.29889   -0.27344    0.30145
  2 C     0.83461    0.93645   -0.57396
  3 C     0.17841    0.32665   -0.03658
  4 C    -1.51970   -0.33208    0.20639
  5 C     0.30527    0.40712   -0.01307
  6 C    -1.56237   -0.54993   -0.04067
  7 C    -1.76315    0.28858   -0.04399
  8 C     0.12350   -1.05209    0.23720
  9 C     0.75759   -0.91302    0.21918
 10 C    -0.92413    1.32354    0.14503
 11 C     0.42175    0.93534    0.17313
 12 C     0.13928    0.19436   -0.14590
 13 C    -0.42970   -0.91684   -0.79252
 14 C     0.41893    0.91586   -0.20561
 15 C     1.73526    0.14167   -1.76996
 16 C     0.43096   -0.20081    0.07534
 17 C     1.15512   -1.59271   -0.10817
 18 C    -1.96571   -2.15930    1.74701
 19 C    -1.76793    1.80309    0.13600
 20 C     2.21050    0.33080    1.33047
 21 C     1.12006    0.17973    0.22439
 22 C    -0.75734    0.57050   -0.96150
 23 C     1.15753    0.25485   -0.27242

System changes: positions 

Initializing position-dependent things.

Density initialized from wave functions
           .--------------------------------------.  
          /|                                      |  
         / |                                      |  
        /  |                                      |  
       /   |                                      |  
      /    |                                      |  
     /     |                                      |  
    /      |                                      |  
   /       |                                      |  
  /        |         C                            |  
 *         |   C  C   C  C  C C                   |  
 |         |  C    C      C      C                |  
 |         .--C---C--C--C--C--C-C-----------------.  
 |        /       C  C   C C  C                  /   
 |       /                                      /    
 |      /                                      /     
 |     /                                      /      
 |    /                                      /       
 |   /                                      /        
 |  /                                      /         
 | /                                      /          
 |/                                      /           
 *--------------------------------------*            

Positions:
   0 C     10.863946    4.477341    5.508201
   1 C      9.787330    3.729961    5.392577
   2 C      8.989195    5.970445    5.105856
   3 C      6.233527    3.494447    5.350812
   4 C      5.473328   10.654631    4.949388
   5 C      7.091378    4.539112    5.261265
   6 C      6.068898    9.312141    4.971982
   7 C      7.434224    9.250452    4.975115
   8 C      5.322591    8.098553    5.012115
   9 C     11.323851    5.690498    5.299954
  10 C      8.189011    8.106664    4.934826
  11 C      7.825157    6.766041    5.008144
  12 C      6.589456    5.975297    5.096591
  13 C      5.339087    6.666504    5.022508
  14 C      8.646545    4.583728    5.304383
  15 C     10.337567    6.642502    5.052473
  16 C      3.530555    8.949951    5.089739
  17 C     10.656644    9.285719    4.434614
  18 C     10.806850    8.009575    4.393311
  19 C      4.310005   10.045281    5.045827
  20 C      3.801745    6.338223    4.827047
  21 C      8.293984   10.409265    4.905571
  22 C      3.557457    7.617097    5.262785
  23 C      9.319155    9.510938    4.757058

Unit cell:
           periodic     x           y           z      points  spacing
  1. axis:    yes   16.000000    0.000000    0.000000    80     0.2000
  2. axis:    yes    0.000000   16.000000    0.000000    80     0.2000
  3. axis:    yes    0.000000    0.000000   10.000000    48     0.2083

Effective grid spacing dv^(1/3) = 0.2027

                     log10-error:    total        iterations:
           time      wfs    density  energy       fermi  poisson
iter:   1  15:14:09          +inf  -172.785327    3      5      
iter:   2  15:14:10         -1.87  -172.710278    2      2      
iter:   3  15:14:10         -2.16  -172.694118    2      2      
iter:   4  15:14:11         -2.27  -172.676339    3      2      
iter:   5  15:14:11         -2.49  -172.672030    3      1      
iter:   6  15:14:12         -2.55  -172.672121    3      2      
iter:   7  15:14:12         -2.79  -172.672035    2      1      
iter:   8  15:14:13         -2.85  -172.671872    3      2      
iter:   9  15:14:13         -3.19  -172.672117    2      1      
iter:  10  15:14:14         -3.25  -172.671815    2      1      
iter:  11  15:14:14         -3.52  -172.672284    2      1      
iter:  12  15:14:15         -3.59  -172.672253    2      1      
iter:  13  15:14:15         -3.71  -172.671782    2      1      
iter:  14  15:14:16         -3.94  -172.672265    2      1      
iter:  15  15:14:16         -3.99  -172.672335    2      1      
iter:  16  15:14:17         -4.16  -172.672080    2      1      

Converged after 16 iterations.

Dipole moment: (-0.278807, 0.120307, 0.070177) |e|*Ang

Energy contributions relative to reference atoms: (reference = -24663.074771)

Kinetic:       +118.425050
Potential:     -120.816936
External:        +0.000000
XC:            -173.024595
Entropy (-ST):   -0.371937
Local:           +2.930370
--------------------------
Free energy:   -172.858048
Extrapolated:  -172.672080

Fermi level: -4.61269

 Band  Eigenvalues  Occupancy
    0    -23.69652    2.00000
    1    -22.71991    2.00000
    2    -22.35148    2.00000
    3    -21.63381    2.00000
    4    -21.13578    2.00000
    5    -20.30206    2.00000
    6    -19.80632    2.00000
    7    -19.66171    2.00000
    8    -18.57791    2.00000
    9    -18.24934    2.00000
   10    -18.07298    2.00000
   11    -17.19019    2.00000
   12    -16.63259    2.00000
   13    -16.09051    2.00000
   14    -15.39986    2.00000
   15    -14.88846    2.00000
   16    -14.46014    2.00000
   17    -14.14112    2.00000
   18    -13.47597    2.00000
   19    -12.80365    2.00000
   20    -12.49430    2.00000
   21    -11.89279    2.00000
   22    -11.32925    2.00000
   23    -11.11817    2.00000
   24    -11.06638    2.00000
   25    -10.71442    2.00000
   26    -10.37142    2.00000
   27    -10.26188    2.00000
   28    -10.00928    2.00000
   29     -9.69523    2.00000
   30     -9.40477    2.00000
   31     -9.20850    2.00000
   32     -8.83547    2.00000
   33     -8.57140    2.00000
   34     -8.09114    2.00000
   35     -7.76971    2.00000
   36     -7.48551    2.00000
   37     -7.36662    2.00000
   38     -6.92053    2.00000
   39     -6.61830    2.00000
   40     -6.51825    2.00000
   41     -6.26748    2.00000
   42     -6.07568    2.00000
   43     -6.02365    2.00000
   44     -5.94715    2.00000
   45     -4.98149    1.95118
   46     -4.80763    1.75078
   47     -4.66744    1.26714
   48     -4.61788    1.02598
   49     -3.98515    0.00376
   50     -3.82385    0.00075
   51     -3.76006    0.00040
   52     -3.48365    0.00002
   53     -3.20040    0.00000
   54     -2.43496    0.00000
   55     -1.90203    0.00000
   56     -1.79095    0.00000
   57     -1.47535    0.00000
   58     -1.26758    0.00000
   59     -0.91843    0.00000
   60     -0.52618    0.00000
   61      0.33498    0.00000
   62      0.60120    0.00000
   63      1.16078    0.00000
   64      1.72786    0.00000
   65      2.63989    0.00000
   66      2.80333    0.00000
   67      3.22482    0.00000
   68      3.48455    0.00000
   69      3.98030    0.00000
   70      4.20484    0.00000
   71      4.36603    0.00000
   72      5.19793    0.00000
   73      5.79796    0.00000
   74      6.08912    0.00000
   75      6.44079    0.00000
   76      6.69820    0.00000
   77      6.98865    0.00000
   78      7.56901    0.00000
   79      7.82977    0.00000
   80      8.05956    0.00000
   81      8.10786    0.00000
   82      8.30298    0.00000
   83      8.35677    0.00000
   84      8.77426    0.00000
   85      8.84570    0.00000
   86      8.90613    0.00000
   87      9.09100    0.00000
   88      9.29125    0.00000
   89      9.34660    0.00000
   90      9.43495    0.00000
   91      9.60577    0.00000
   92      9.65199    0.00000
   93      9.70113    0.00000
   94      9.76270    0.00000
   95      9.91722    0.00000
   96     10.04139    0.00000
   97     10.21805    0.00000


Forces in eV/Ang:
  0 C    -0.06495   -0.45142    0.12209
  1 C    -0.32194   -0.24240    0.30826
  2 C     0.74742    0.78676   -0.59295
  3 C     0.22667    0.40003   -0.04352
  4 C    -1.29521   -0.21245    0.19744
  5 C     0.33874    0.41629   -0.02660
  6 C    -1.20126   -0.38219   -0.04348
  7 C    -1.15799    0.75141   -0.06191
  8 C    -0.17996   -0.71078    0.22853
  9 C     0.86001   -0.82147    0.13536
 10 C    -0.68512    1.05147    0.09623
 11 C     0.34128    0.77744    0.12615
 12 C     0.29717    0.18833   -0.17185
 13 C    -0.14594   -0.96916   -0.61161
 14 C     0.41331    0.96598   -0.21230
 15 C     1.25692   -0.11432   -1.54848
 16 C     0.30584    0.12323    0.04365
 17 C     1.03893   -1.55854   -0.16923
 18 C    -1.79194   -1.91492    1.71191
 19 C    -2.05928    1.38932    0.14079
 20 C     1.93916    0.08702    1.19579
 21 C     0.71316   -0.08493    0.20116
 22 C    -0.49626    0.63305   -0.90844
 23 C     0.88240    0.02435   -0.18153

System changes: positions 

Initializing position-dependent things.

Density initialized from wave functions
           .--------------------------------------.  
          /|                                      |  
         / |                                      |  
        /  |                                      |  
       /   |                                      |  
      /    |                                      |  
     /     |                                      |  
    /      |                                      |  
   /       |                                      |  
  /        |         C                            |  
 *         |   C  C   C  C  C C                   |  
 |         |  C    C      C      C                |  
 |         .--C---C--C--C--C--C-C-----------------.  
 |        /       C  C   C C  C                  /   
 |       /                                      /    
 |      /                                      /     
 |     /                                      /      
 |    /                                      /       
 |   /                                      /        
 |  /                                      /         
 | /                                      /          
 |/                                      /           
 *--------------------------------------*            

Positions:
   0 C     10.862826    4.471486    5.509718
   1 C      9.783379    3.727059    5.396569
   2 C      8.998835    5.981084    5.098071
   3 C      6.236324    3.499400    5.350270
   4 C      5.455156   10.650701    4.952166
   5 C      7.095886    4.544422    5.260944
   6 C      6.051792    9.306611    4.971389
   7 C      7.415344    9.257039    4.974537
   8 C      5.322199    8.087556    5.015251
   9 C     11.333694    5.680237    5.301721
  10 C      8.179959    8.121420    4.936245
  11 C      7.830346    6.776358    5.009638
  12 C      6.592489    5.977372    5.094542
  13 C      5.336054    6.656127    5.014118
  14 C      8.652028    4.595398    5.301745
  15 C     10.355649    6.639750    5.032763
  16 C      3.533805    8.950302    5.090507
  17 C     10.669022    9.265850    4.432525
  18 C     10.783980    7.985046    4.415112
  19 C      4.286112   10.065909    5.047204
  20 C      3.826833    6.341075    4.843320
  21 C      8.305854   10.410580    4.908126
  22 C      3.550697    7.623330    5.250392
  23 C      9.332725    9.511920    4.754350

Unit cell:
           periodic     x           y           z      points  spacing
  1. axis:    yes   16.000000    0.000000    0.000000    80     0.2000
  2. axis:    yes    0.000000   16.000000    0.000000    80     0.2000
  3. axis:    yes    0.000000    0.000000   10.000000    48     0.2083

Effective grid spacing dv^(1/3) = 0.2027

                     log10-error:    total        iterations:
           time      wfs    density  energy       fermi  poisson
iter:   1  15:14:18          +inf  -173.327902    3      5      
iter:   2  15:14:19         -1.93  -173.269424    3      2      
iter:   3  15:14:19         -2.21  -173.255390    2      2      
iter:   4  15:14:20         -2.31  -173.240813    3      2      
iter:   5  15:14:20         -2.52  -173.237266    3      1      
iter:   6  15:14:21         -2.59  -173.237667    3      2      
iter:   7  15:14:21         -2.83  -173.237504    2      1      
iter:   8  15:14:22         -2.88  -173.237427    2      2      
iter:   9  15:14:22         -3.23  -173.237620    2      1      
iter:  10  15:14:23         -3.32  -173.237710    2      1      
iter:  11  15:14:23         -3.51  -173.237888    2      1      
iter:  12  15:14:24         -3.60  -173.237552    2      1      
iter:  13  15:14:24         -3.81  -173.237535    2      1      
iter:  14  15:14:25         -3.95  -173.237541    2      1      
iter:  15  15:14:25         -4.11  -173.237741    2      1      

Converged after 15 iterations.

Dipole moment: (-0.295512, 0.150827, 0.057964) |e|*Ang

Energy contributions relative to reference atoms: (reference = -24663.074771)

Kinetic:       +118.298992
Potential:     -120.967210
External:        +0.000000
XC:            -173.320397
Entropy (-ST):   -0.368802
Local:           +2.935276
--------------------------
Free energy:   -173.422142
Extrapolated:  -173.237741

Fermi level: -4.59244

 Band  Eigenvalues  Occupancy
    0    -23.66699    2.00000
    1    -22.68470    2.00000
    2    -22.30735    2.00000
    3    -21.61428    2.00000
    4    -21.15498    2.00000
    5    -20.33842    2.00000
    6    -19.80181    2.00000
    7    -19.64836    2.00000
    8    -18.57930    2.00000
    9    -18.25938    2.00000
   10    -18.08402    2.00000
   11    -17.17264    2.00000
   12    -16.61630    2.00000
   13    -16.16775    2.00000
   14    -15.42659    2.00000
   15    -14.86271    2.00000
   16    -14.52773    2.00000
   17    -14.09257    2.00000
   18    -13.46123    2.00000
   19    -12.77729    2.00000
   20    -12.54062    2.00000
   21    -11.94958    2.00000
   22    -11.33132    2.00000
   23    -11.15225    2.00000
   24    -11.09285    2.00000
   25    -10.70345    2.00000
   26    -10.41059    2.00000
   27    -10.26779    2.00000
   28    -10.06003    2.00000
   29     -9.67580    2.00000
   30     -9.44645    2.00000
   31     -9.23554    2.00000
   32     -8.88889    2.00000
   33     -8.59883    2.00000
   34     -8.21227    2.00000
   35     -7.79292    2.00000
   36     -7.47323    2.00000
   37     -7.38382    2.00000
   38     -6.91789    2.00000
   39     -6.64835    2.00000
   40     -6.51497    2.00000
   41     -6.28124    2.00000
   42     -6.07465    2.00000
   43     -5.99004    2.00000
   44     -5.90222    2.00000
   45     -4.98078    1.95967
   46     -4.78287    1.74077
   47     -4.65382    1.29762
   48     -4.59190    0.99733
   49     -3.94815    0.00318
   50     -3.82330    0.00091
   51     -3.76225    0.00050
   52     -3.48461    0.00003
   53     -3.19416    0.00000
   54     -2.41395    0.00000
   55     -1.87705    0.00000
   56     -1.76067    0.00000
   57     -1.48302    0.00000
   58     -1.28200    0.00000
   59     -0.89019    0.00000
   60     -0.41662    0.00000
   61      0.30006    0.00000
   62      0.61479    0.00000
   63      1.17864    0.00000
   64      1.78204    0.00000
   65      2.71928    0.00000
   66      2.92957    0.00000
   67      3.39891    0.00000
   68      3.52961    0.00000
   69      4.02512    0.00000
   70      4.36934    0.00000
   71      4.53554    0.00000
   72      5.17843    0.00000
   73      5.83910    0.00000
   74      6.14601    0.00000
   75      6.49014    0.00000
   76      6.75789    0.00000
   77      6.98526    0.00000
   78      7.53609    0.00000
   79      7.74934    0.00000
   80      8.04636    0.00000
   81      8.13596    0.00000
   82      8.26881    0.00000
   83      8.35292    0.00000
   84      8.77859    0.00000
   85      8.82457    0.00000
   86      8.90448    0.00000
   87      9.07929    0.00000
   88      9.28130    0.00000
   89      9.35107    0.00000
   90      9.42621    0.00000
   91      9.61468    0.00000
   92      9.65825    0.00000
   93      9.71179    0.00000
   94      9.79117    0.00000
   95      9.93194    0.00000
   96     10.02364    0.00000
   97     10.22885    0.00000


Forces in eV/Ang:
  0 C    -0.06311   -0.36620    0.08145
  1 C    -0.32744   -0.20592    0.30810
  2 C     0.61705    0.63395   -0.56662
  3 C     0.26146    0.44118   -0.04738
  4 C    -1.20674   -0.20105    0.21769
  5 C     0.37416    0.40864   -0.03819
  6 C    -0.98401   -0.20276   -0.06360
  7 C    -0.52441    1.02410   -0.08659
  8 C    -0.37413   -0.45114    0.24570
  9 C     0.93123   -0.77023    0.07899
 10 C    -0.51195    0.90837    0.05850
 11 C     0.28924    0.66253    0.08162
 12 C     0.42856    0.18733   -0.18313
 13 C     0.13660   -0.93949   -0.42661
 14 C     0.39733    0.92244   -0.17678
 15 C     0.80977   -0.39838   -1.24561
 16 C     0.12536    0.30611    0.03153
 17 C     0.92636   -1.44884   -0.22702
 18 C    -1.50952   -1.56503    1.60584
 19 C    -2.17357    1.13567    0.15199
 20 C     1.61774   -0.13246    1.05267
 21 C     0.38874   -0.35195    0.15992
 22 C    -0.23539    0.67497   -0.87242
 23 C     0.58814   -0.17605   -0.09948

System changes: positions 

Initializing position-dependent things.

Density initialized from wave functions
           .--------------------------------------.  
          /|                                      |  
         / |                                      |  
        /  |                                      |  
       /   |                                      |  
      /    |                                      |  
     /     |                                      |  
    /      |                                      |  
   /       |                                      |  
  /        |         C                            |  
 *         |   C  C   C  C  C C                   |  
 |         |  C    C      C      C                |  
 |         .--C---C--C--C--C--C-C-----------------.  
 |        /       C  C   C C  C                  /   
 |       /                                      /    
 |      /                                      /     
 |     /                                      /      
 |    /                                      /       
 |   /                                      /        
 |  /                                      /         
 | /                                      /          
 |/                                      /           
 *--------------------------------------*            

Positions:
   0 C     10.861438    4.465762    5.510922
   1 C      9.778900    3.724306    5.401147
   2 C      9.008215    5.991656    5.089463
   3 C      6.239896    3.505457    5.349610
   4 C      5.434488   10.645553    4.955785
   5 C      7.101565    4.550343    5.260439
   6 C      6.033899    9.302258    4.970370
   7 C      7.398954    9.264592    4.973806
   8 C      5.320435    8.077291    5.019235
   9 C     11.345317    5.669134    5.303112
  10 C      8.171445    8.137252    4.937490
  11 C      7.836121    6.787249    5.010700
  12 C      6.597157    5.979581    5.092164
  13 C      5.335690    6.645609    5.006600
  14 C      8.658170    4.607667    5.299329
  15 C     10.371636    6.632307    5.014291
  16 C      3.534465    8.951709    5.091420
  17 C     10.681227    9.244936    4.429417
  18 C     10.761705    7.961459    4.438511
  19 C      4.259050   10.088276    5.048664
  20 C      3.851460    6.342418    4.860599
  21 C      8.317448   10.411552    4.910388
  22 C      3.546073    7.630250    5.236264
  23 C      9.345909    9.510662    4.752086

Unit cell:
           periodic     x           y           z      points  spacing
  1. axis:    yes   16.000000    0.000000    0.000000    80     0.2000
  2. axis:    yes    0.000000   16.000000    0.000000    80     0.2000
  3. axis:    yes    0.000000    0.000000   10.000000    48     0.2083

Effective grid spacing dv^(1/3) = 0.2027

                     log10-error:    total        iterations:
           time      wfs    density  energy       fermi  poisson
iter:   1  15:14:27          +inf  -173.808079    2      5      
iter:   2  15:14:27         -1.99  -173.762213    3      2      
iter:   3  15:14:28         -2.23  -173.750430    2      2      
iter:   4  15:14:28         -2.34  -173.738581    3      2      
iter:   5  15:14:29         -2.54  -173.737257    3      2      
iter:   6  15:14:29         -2.64  -173.736142    3      2      
iter:   7  15:14:30         -2.84  -173.735177    2      1      
iter:   8  15:14:30         -2.90  -173.735875    2      2      
iter:   9  15:14:31         -3.25  -173.736056    2      1      
iter:  10  15:14:31         -3.37  -173.735858    2      1      
iter:  11  15:14:32         -3.65  -173.736177    2      1      
iter:  12  15:14:32         -3.71  -173.736353    2      1      
iter:  13  15:14:33         -3.83  -173.736246    2      1      
iter:  14  15:14:33         -3.98  -173.736216    2      1      
iter:  15  15:14:34         -4.02  -173.736160    2      1      

Converged after 15 iterations.

Dipole moment: (-0.320983, 0.181278, 0.047532) |e|*Ang

Energy contributions relative to reference atoms: (reference = -24663.074771)

Kinetic:       +118.538836
Potential:     -121.393224
External:        +0.000000
XC:            -173.641526
Entropy (-ST):   -0.366318
Local:           +2.942914
--------------------------
Free energy:   -173.919319
Extrapolated:  -173.736160

Fermi level: -4.57771

 Band  Eigenvalues  Occupancy
    0    -23.64021    2.00000
    1    -22.66555    2.00000
    2    -22.27721    2.00000
    3    -21.59766    2.00000
    4    -21.18435    2.00000
    5    -20.36785    2.00000
    6    -19.80289    2.00000
    7    -19.63748    2.00000
    8    -18.58717    2.00000
    9    -18.27895    2.00000
   10    -18.08339    2.00000
   11    -17.15873    2.00000
   12    -16.60338    2.00000
   13    -16.23723    2.00000
   14    -15.44831    2.00000
   15    -14.84613    2.00000
   16    -14.57680    2.00000
   17    -14.04109    2.00000
   18    -13.45290    2.00000
   19    -12.74982    2.00000
   20    -12.58968    2.00000
   21    -11.99677    2.00000
   22    -11.33520    2.00000
   23    -11.22183    2.00000
   24    -11.08888    2.00000
   25    -10.68789    2.00000
   26    -10.44602    2.00000
   27    -10.27843    2.00000
   28    -10.10511    2.00000
   29     -9.66310    2.00000
   30     -9.49802    2.00000
   31     -9.26476    2.00000
   32     -8.94003    2.00000
   33     -8.62257    2.00000
   34     -8.32235    2.00000
   35     -7.80827    2.00000
   36     -7.46666    2.00000
   37     -7.39728    2.00000
   38     -6.91543    2.00000
   39     -6.68488    2.00000
   40     -6.51266    2.00000
   41     -6.29745    2.00000
   42     -6.07858    2.00000
   43     -5.97979    2.00000
   44     -5.83905    1.99999
   45     -4.98404    1.96620
   46     -4.76376    1.73072
   47     -4.64550    1.32655
   48     -4.57206    0.97175
   49     -3.92030    0.00279
   50     -3.85682    0.00148
   51     -3.74514    0.00048
   52     -3.48088    0.00003
   53     -3.16749    0.00000
   54     -2.38856    0.00000
   55     -1.85698    0.00000
   56     -1.73349    0.00000
   57     -1.49019    0.00000
   58     -1.29552    0.00000
   59     -0.85437    0.00000
   60     -0.31227    0.00000
   61      0.27289    0.00000
   62      0.62554    0.00000
   63      1.19193    0.00000
   64      1.83581    0.00000
   65      2.77854    0.00000
   66      3.01634    0.00000
   67      3.47986    0.00000
   68      3.64501    0.00000
   69      4.10304    0.00000
   70      4.46929    0.00000
   71      4.70786    0.00000
   72      5.15832    0.00000
   73      5.87500    0.00000
   74      6.21340    0.00000
   75      6.53831    0.00000
   76      6.82453    0.00000
   77      6.96574    0.00000
   78      7.48645    0.00000
   79      7.67007    0.00000
   80      8.04191    0.00000
   81      8.18147    0.00000
   82      8.26025    0.00000
   83      8.35556    0.00000
   84      8.77685    0.00000
   85      8.79814    0.00000
   86      8.91025    0.00000
   87      9.06951    0.00000
   88      9.26680    0.00000
   89      9.35756    0.00000
   90      9.41166    0.00000
   91      9.62035    0.00000
   92      9.66468    0.00000
   93      9.71784    0.00000
   94      9.82831    0.00000
   95      9.93737    0.00000
   96     10.01221    0.00000
   97     10.23470    0.00000


Forces in eV/Ang:
  0 C    -0.06891   -0.31340    0.05121
  1 C    -0.31714   -0.15081    0.30277
  2 C     0.48340    0.45448   -0.53077
  3 C     0.29639    0.46733   -0.04846
  4 C    -1.06829   -0.14667    0.20098
  5 C     0.39023    0.39457   -0.04645
  6 C    -0.63700   -0.10831   -0.06180
  7 C    -0.18526    1.26837   -0.13224
  8 C    -0.51437   -0.18990    0.22989
  9 C     0.97305   -0.71327    0.01419
 10 C    -0.29444    0.70647    0.03307
 11 C     0.24169    0.56313    0.02789
 12 C     0.55826    0.18275   -0.18400
 13 C     0.41977   -0.83857   -0.23001
 14 C     0.34536    0.83762   -0.19162
 15 C     0.41938   -0.70279   -0.94260
 16 C    -0.07965    0.54820    0.01776
 17 C     0.73948   -1.28933   -0.22608
 18 C    -1.16793   -1.22592    1.39147
 19 C    -2.35869    0.83360    0.16524
 20 C     1.26341   -0.28223    0.87230
 21 C     0.14837   -0.51594    0.13204
 22 C     0.04816    0.68040   -0.81803
 23 C     0.33563   -0.35643   -0.02054

System changes: positions 

Initializing position-dependent things.

Density initialized from wave functions
[...]
    7    -19.29014    2.00000
    8    -18.64305    2.00000
    9    -18.45216    2.00000
   10    -17.56156    2.00000
   11    -17.09443    2.00000
   12    -16.66442    2.00000
   13    -15.81158    2.00000
   14    -15.22544    2.00000
   15    -15.00569    2.00000
   16    -14.53201    2.00000
   17    -13.75943    2.00000
   18    -13.46539    2.00000
   19    -12.91988    2.00000
   20    -12.16134    2.00000
   21    -11.79525    2.00000
   22    -11.47152    2.00000
   23    -11.10670    2.00000
   24    -11.01441    2.00000
   25    -10.89232    2.00000
   26    -10.54491    2.00000
   27    -10.40027    2.00000
   28    -10.30337    2.00000
   29    -10.02193    2.00000
   30     -9.87091    2.00000
   31     -9.60845    2.00000
   32     -9.20742    2.00000
   33     -9.06179    2.00000
   34     -8.48847    2.00000
   35     -7.92174    2.00000
   36     -7.39585    2.00000
   37     -7.29884    2.00000
   38     -7.19058    2.00000
   39     -6.97748    2.00000
   40     -6.80065    2.00000
   41     -6.45954    2.00000
   42     -6.32350    2.00000
   43     -5.87348    1.99999
   44     -5.71716    1.99997
   45     -5.04778    1.97385
   46     -4.90693    1.89720
   47     -4.73879    1.54899
   48     -4.51526    0.53735
   49     -4.22399    0.03914
   50     -3.97469    0.00329
   51     -3.70582    0.00022
   52     -2.95329    0.00000
   53     -2.77896    0.00000
   54     -2.40476    0.00000
   55     -2.17826    0.00000
   56     -2.11221    0.00000
   57     -1.82557    0.00000
   58     -1.08802    0.00000
   59      0.01031    0.00000
   60      0.54934    0.00000
   61      1.08877    0.00000
   62      2.34607    0.00000
   63      2.50433    0.00000
   64      2.79086    0.00000
   65      3.16998    0.00000
   66      3.40036    0.00000
   67      3.80192    0.00000
   68      4.14538    0.00000
   69      4.61954    0.00000
   70      4.96499    0.00000
   71      5.10707    0.00000
   72      5.93109    0.00000
   73      6.00007    0.00000
   74      6.29522    0.00000
   75      6.63843    0.00000
   76      6.82151    0.00000
   77      7.03217    0.00000
   78      7.23963    0.00000
   79      7.53233    0.00000
   80      7.90450    0.00000
   81      8.31658    0.00000
   82      8.48547    0.00000
   83      8.65026    0.00000
   84      8.75741    0.00000
   85      9.00581    0.00000
   86      9.03434    0.00000
   87      9.19297    0.00000
   88      9.24476    0.00000
   89      9.27373    0.00000
   90      9.40483    0.00000
   91      9.52873    0.00000
   92      9.61655    0.00000
   93      9.74846    0.00000
   94      9.84499    0.00000
   95      9.93917    0.00000
   96     10.01406    0.00000
   97     10.26098    0.00000


Forces in eV/Ang:
  0 C    -0.02225   -0.00995   -0.02541
  1 C     0.03095    0.09141   -0.02776
  2 C     0.01892   -0.07152   -0.00289
  3 C     0.02322    0.06096    0.01801
  4 C     0.03770   -0.01943   -0.02602
  5 C     0.06439   -0.01768    0.03663
  6 C    -0.00035    0.03150   -0.01781
  7 C    -0.03929   -0.02869    0.03263
  8 C    -0.00654   -0.00700   -0.02219
  9 C    -0.00173    0.01002   -0.04168
 10 C    -0.04674   -0.02720   -0.02633
 11 C     0.03327   -0.05046   -0.02826
 12 C     0.00221   -0.02958    0.00499
 13 C    -0.01741   -0.00721    0.02923
 14 C    -0.01958   -0.04558   -0.02187
 15 C    -0.00473   -0.00249    0.04649
 16 C    -0.01031   -0.01030   -0.00714
 17 C    -0.04578    0.01712    0.07689
 18 C    -0.03003    0.00591   -0.00449
 19 C     0.03831    0.04246   -0.03116
 20 C     0.01210    0.00545    0.04900
 21 C     0.02334   -0.09282    0.03437
 22 C    -0.01694    0.02730   -0.00614
 23 C     0.02110    0.07389   -0.02726

System changes: positions 

Initializing position-dependent things.

Density initialized from wave functions
           .--------------------------------------.  
          /|                                      |  
         / |                                      |  
        /  |                                      |  
       /   |                                      |  
      /    |                                      |  
     /     |                                      |  
    /      |                                      |  
   /       |                                      |  
  /        |       C                              |  
 *         |  C C    C   C  C                     |  
 |         |   C   C      C  C  C                 |  
 |         .---C---C--C--C-C---C-C----------------.  
 |        /        C  C  C C  C  C               /   
 |       /                                      /    
 |      /                                      /     
 |     /                                      /      
 |    /                                      /       
 |   /                                      /        
 |  /                                      /         
 | /                                      /          
 |/                                      /           
 *--------------------------------------*            

Positions:
   0 C     10.845561    4.092989    5.370481
   1 C      9.630650    3.590928    5.451402
   2 C      9.275339    6.034116    5.062280
   3 C      6.288421    3.846758    5.335821
   4 C      4.792057   10.555343    5.001492
   5 C      7.262998    4.779905    5.263795
   6 C      5.783920    9.498765    4.949832
   7 C      7.207060    9.525157    4.848605
   8 C      5.233838    8.169287    4.871364
   9 C     11.609516    5.148162    5.187646
  10 C      8.121022    8.371648    4.803945
  11 C      8.136528    6.975267    4.970916
  12 C      6.910240    6.199176    5.074004
  13 C      5.645820    6.765217    4.993855
  14 C      8.755358    4.703420    5.273152
  15 C     10.725599    6.265044    4.998493
  16 C      2.894569    8.891016    5.047513
  17 C     10.504059    8.793249    4.603708
  18 C     10.994029    7.640466    4.756210
  19 C      3.600258   10.026165    5.097761
  20 C      4.280645    6.455385    5.326390
  21 C      8.329790   10.475135    4.941590
  22 C      3.818866    7.852605    4.975473
  23 C      9.233435    9.348460    4.704775

Unit cell:
           periodic     x           y           z      points  spacing
  1. axis:    yes   16.000000    0.000000    0.000000    80     0.2000
  2. axis:    yes    0.000000   16.000000    0.000000    80     0.2000
  3. axis:    yes    0.000000    0.000000   10.000000    48     0.2083

Effective grid spacing dv^(1/3) = 0.2027

                     log10-error:    total        iterations:
           time      wfs    density  energy       fermi  poisson
iter:   1  15:20:22          +inf  -179.602908    3      5      
iter:   2  15:20:22         -2.42  -179.602529    2      1      
iter:   3  15:20:23         -2.58  -179.601057    2      1      
iter:   4  15:20:23         -2.67  -179.598445    2      2      
iter:   5  15:20:24         -2.84  -179.601107    2      2      
iter:   6  15:20:24         -2.85  -179.596970    2      2      
iter:   7  15:20:25         -2.71  -179.597445    2      1      
iter:   8  15:20:25         -3.08  -179.598361    2      1      
iter:   9  15:20:26         -3.49  -179.597863    2      1      
iter:  10  15:20:26         -3.61  -179.597803    2      1      
iter:  11  15:20:27         -3.73  -179.597807    2      1      
iter:  12  15:20:27         -3.84  -179.597808    1      1      
iter:  13  15:20:28         -3.97  -179.597813    2      1      
iter:  14  15:20:28         -4.24  -179.597767    2      1      

Converged after 14 iterations.

Dipole moment: (-0.044264, 0.262571, -0.203094) |e|*Ang

Energy contributions relative to reference atoms: (reference = -24663.074771)

Kinetic:       +116.462105
Potential:     -123.310286
External:        +0.000000
XC:            -175.548713
Entropy (-ST):   -0.294740
Local:           +2.946497
--------------------------
Free energy:   -179.745137
Extrapolated:  -179.597767

Fermi level: -4.61951

 Band  Eigenvalues  Occupancy
    0    -23.50274    2.00000
    1    -22.94756    2.00000
    2    -22.49670    2.00000
    3    -21.42195    2.00000
    4    -21.03286    2.00000
    5    -20.34911    2.00000
    6    -19.74901    2.00000
    7    -19.29855    2.00000
    8    -18.64993    2.00000
    9    -18.46174    2.00000
   10    -17.57055    2.00000
   11    -17.09452    2.00000
   12    -16.66845    2.00000
   13    -15.81272    2.00000
   14    -15.22840    2.00000
   15    -15.01979    2.00000
   16    -14.52999    2.00000
   17    -13.75881    2.00000
   18    -13.46521    2.00000
   19    -12.92189    2.00000
   20    -12.16625    2.00000
   21    -11.80185    2.00000
   22    -11.46217    2.00000
   23    -11.10434    2.00000
   24    -11.01779    2.00000
   25    -10.89898    2.00000
   26    -10.54678    2.00000
   27    -10.41275    2.00000
   28    -10.30815    2.00000
   29    -10.02276    2.00000
   30     -9.88024    2.00000
   31     -9.61041    2.00000
   32     -9.22773    2.00000
   33     -9.05153    2.00000
   34     -8.48866    2.00000
   35     -7.92080    2.00000
   36     -7.40578    2.00000
   37     -7.30058    2.00000
   38     -7.17634    2.00000
   39     -6.97702    2.00000
   40     -6.80227    2.00000
   41     -6.46818    2.00000
   42     -6.31900    2.00000
   43     -5.87981    1.99999
   44     -5.71947    1.99997
   45     -5.05474    1.97457
   46     -4.91827    1.90402
   47     -4.74474    1.55541
   48     -4.51596    0.52405
   49     -4.22743    0.03888
   50     -3.96705    0.00293
   51     -3.68892    0.00018
   52     -2.94610    0.00000
   53     -2.76696    0.00000
   54     -2.38234    0.00000
   55     -2.18041    0.00000
   56     -2.10303    0.00000
   57     -1.83620    0.00000
   58     -1.09677    0.00000
   59     -0.00711    0.00000
   60      0.53700    0.00000
   61      1.07946    0.00000
   62      2.35276    0.00000
   63      2.50794    0.00000
   64      2.74966    0.00000
   65      3.17188    0.00000
   66      3.38530    0.00000
   67      3.74774    0.00000
   68      4.14632    0.00000
   69      4.63597    0.00000
   70      4.98520    0.00000
   71      5.10735    0.00000
   72      5.92182    0.00000
   73      6.00864    0.00000
   74      6.27131    0.00000
   75      6.63174    0.00000
   76      6.82592    0.00000
   77      7.06102    0.00000
   78      7.22448    0.00000
   79      7.52839    0.00000
   80      7.90837    0.00000
   81      8.32585    0.00000
   82      8.48486    0.00000
   83      8.64125    0.00000
   84      8.73932    0.00000
   85      9.00598    0.00000
   86      9.02382    0.00000
   87      9.17229    0.00000
   88      9.24144    0.00000
   89      9.27713    0.00000
   90      9.41274    0.00000
   91      9.54103    0.00000
   92      9.60979    0.00000
   93      9.73835    0.00000
   94      9.83789    0.00000
   95      9.95020    0.00000
   96     10.02909    0.00000
   97     10.25159    0.00000


Forces in eV/Ang:
  0 C     0.05579    0.01730   -0.00372
  1 C     0.00631    0.09110   -0.02474
  2 C    -0.02490   -0.00016   -0.03630
  3 C     0.01078   -0.00353    0.02242
  4 C    -0.04844    0.00846   -0.01457
  5 C     0.01068   -0.12295    0.04298
  6 C    -0.00061   -0.07067   -0.05191
  7 C     0.04071   -0.01321    0.03556
  8 C    -0.00488   -0.00363    0.04443
  9 C    -0.01577    0.05279   -0.04540
 10 C     0.05752   -0.01354   -0.02369
 11 C     0.04354   -0.04307   -0.02648
 12 C    -0.01363   -0.06686   -0.00328
 13 C    -0.00005    0.04666    0.04628
 14 C    -0.00545    0.00632   -0.03216
 15 C     0.00950    0.01979    0.03438
 16 C     0.02059    0.12531   -0.00349
 17 C    -0.02535    0.00689    0.05360
 18 C    -0.02772   -0.01380   -0.01523
 19 C    -0.00284   -0.04819   -0.01781
 20 C    -0.04313    0.03747   -0.02127
 21 C     0.01983   -0.08521    0.03721
 22 C    -0.05254   -0.02847   -0.00091
 23 C    -0.01666    0.02401   -0.03196

System changes: positions 

Initializing position-dependent things.

Density initialized from wave functions
           .--------------------------------------.  
          /|                                      |  
         / |                                      |  
        /  |                                      |  
       /   |                                      |  
      /    |                                      |  
     /     |                                      |  
    /      |                                      |  
   /       |                                      |  
  /        |       C                              |  
 *         |  C C    C   C  C                     |  
 |         |   C   C      C  C  C                 |  
 |         .---C---C--C--C-C---C-C----------------.  
 |        /        C  C  C C  C  C               /   
 |       /                                      /    
 |      /                                      /     
 |     /                                      /      
 |    /                                      /       
 |   /                                      /        
 |  /                                      /         
 | /                                      /          
 |/                                      /           
 *--------------------------------------*            

Positions:
   0 C     10.848566    4.098992    5.381202
   1 C      9.633996    3.597378    5.459219
   2 C      9.272549    6.033177    5.057209
   3 C      6.292883    3.836930    5.334030
   4 C      4.794805   10.557482    5.003366
   5 C      7.261649    4.774960    5.261090
   6 C      5.785534    9.498777    4.952929
   7 C      7.208921    9.524276    4.854045
   8 C      5.233054    8.171358    4.882227
   9 C     11.609393    5.155216    5.192663
  10 C      8.121110    8.369348    4.803276
  11 C      8.133447    6.972298    4.966444
  12 C      6.906053    6.195158    5.071411
  13 C      5.641974    6.765271    4.996552
  14 C      8.754464    4.703120    5.271839
  15 C     10.722673    6.267509    4.996267
  16 C      2.897184    8.898800    5.051273
  17 C     10.503655    8.794852    4.596831
  18 C     10.990486    7.640908    4.748247
  19 C      3.601659   10.033075    5.100540
  20 C      4.272819    6.451960    5.307364
  21 C      8.330970   10.473323    4.943468
  22 C      3.817087    7.856733    4.981228
  23 C      9.232869    9.347434    4.702709

Unit cell:
           periodic     x           y           z      points  spacing
  1. axis:    yes   16.000000    0.000000    0.000000    80     0.2000
  2. axis:    yes    0.000000   16.000000    0.000000    80     0.2000
  3. axis:    yes    0.000000    0.000000   10.000000    48     0.2083

Effective grid spacing dv^(1/3) = 0.2027

                     log10-error:    total        iterations:
           time      wfs    density  energy       fermi  poisson
iter:   1  15:20:30          +inf  -179.599697    3      5      
iter:   2  15:20:30         -2.74  -179.599348    2      1      
iter:   3  15:20:31         -2.86  -179.598529    2      1      
iter:   4  15:20:31         -2.99  -179.597766    2      1      
iter:   5  15:20:32         -3.13  -179.599903    2      2      
iter:   6  15:20:32         -3.38  -179.598258    2      1      
iter:   7  15:20:33         -3.30  -179.598661    2      1      
iter:   8  15:20:33         -3.57  -179.599473    2      1      
iter:   9  15:20:34         -3.81  -179.599417    2      1      
iter:  10  15:20:34         -3.84  -179.599873    2      1      
iter:  11  15:20:35         -3.88  -179.599759    2      1      
iter:  12  15:20:35         -4.11  -179.599455    2      1      

Converged after 12 iterations.

Dipole moment: (-0.051458, 0.265576, -0.198324) |e|*Ang

Energy contributions relative to reference atoms: (reference = -24663.074771)

Kinetic:       +116.784315
Potential:     -123.554640
External:        +0.000000
XC:            -175.632153
Entropy (-ST):   -0.296901
Local:           +2.951473
--------------------------
Free energy:   -179.747905
Extrapolated:  -179.599455

Fermi level: -4.61360

 Band  Eigenvalues  Occupancy
    0    -23.49663    2.00000
    1    -22.94503    2.00000
    2    -22.49328    2.00000
    3    -21.41965    2.00000
    4    -21.03379    2.00000
    5    -20.34957    2.00000
    6    -19.74880    2.00000
    7    -19.29678    2.00000
    8    -18.64895    2.00000
    9    -18.45798    2.00000
   10    -17.57110    2.00000
   11    -17.09317    2.00000
   12    -16.66846    2.00000
   13    -15.81199    2.00000
   14    -15.23041    2.00000
   15    -15.01783    2.00000
   16    -14.53267    2.00000
   17    -13.76092    2.00000
   18    -13.46605    2.00000
   19    -12.92334    2.00000
   20    -12.16717    2.00000
   21    -11.80102    2.00000
   22    -11.46428    2.00000
   23    -11.10385    2.00000
   24    -11.01933    2.00000
   25    -10.90079    2.00000
   26    -10.54464    2.00000
   27    -10.41053    2.00000
   28    -10.30770    2.00000
   29    -10.03147    2.00000
   30     -9.87846    2.00000
   31     -9.61195    2.00000
   32     -9.21757    2.00000
   33     -9.05865    2.00000
   34     -8.49124    2.00000
   35     -7.92259    2.00000
   36     -7.40270    2.00000
   37     -7.30133    2.00000
   38     -7.18566    2.00000
   39     -6.97600    2.00000
   40     -6.79713    2.00000
   41     -6.46077    2.00000
   42     -6.32168    2.00000
   43     -5.87675    1.99999
   44     -5.71914    1.99997
   45     -5.05190    1.97533
   46     -4.90920    1.90109
   47     -4.73757    1.55102
   48     -4.51147    0.52956
   49     -4.22325    0.03955
   50     -3.97260    0.00328
   51     -3.69492    0.00020
   52     -2.95020    0.00000
   53     -2.77503    0.00000
   54     -2.38567    0.00000
   55     -2.17429    0.00000
   56     -2.10544    0.00000
   57     -1.82806    0.00000
   58     -1.08785    0.00000
   59      0.00636    0.00000
   60      0.54772    0.00000
   61      1.08829    0.00000
   62      2.35749    0.00000
   63      2.50331    0.00000
   64      2.76581    0.00000
   65      3.17416    0.00000
   66      3.39191    0.00000
   67      3.78000    0.00000
   68      4.15747    0.00000
   69      4.62918    0.00000
   70      4.96974    0.00000
   71      5.11094    0.00000
   72      5.94130    0.00000
   73      6.01856    0.00000
   74      6.29073    0.00000
   75      6.64163    0.00000
   76      6.82876    0.00000
   77      7.05659    0.00000
   78      7.23833    0.00000
   79      7.53771    0.00000
   80      7.91747    0.00000
   81      8.32613    0.00000
   82      8.48645    0.00000
   83      8.64609    0.00000
   84      8.75332    0.00000
   85      9.00922    0.00000
   86      9.03093    0.00000
   87      9.18717    0.00000
   88      9.24372    0.00000
   89      9.27837    0.00000
   90      9.41226    0.00000
   91      9.53911    0.00000
   92      9.61186    0.00000
   93      9.74485    0.00000
   94      9.84213    0.00000
   95      9.94487    0.00000
   96     10.02062    0.00000
   97     10.25602    0.00000


Forces in eV/Ang:
  0 C     0.04106    0.00391   -0.02518
  1 C     0.01599    0.01901   -0.01276
  2 C    -0.00435    0.00363   -0.02536
  3 C    -0.01581   -0.02581    0.02897
  4 C    -0.02721    0.00366   -0.02655
  5 C     0.03359   -0.02990    0.02936
  6 C    -0.00375   -0.04034   -0.02614
  7 C     0.01457   -0.01928    0.02403
  8 C    -0.00440   -0.00275    0.02458
  9 C     0.02557    0.03321   -0.02938
 10 C     0.03894   -0.01691   -0.02134
 11 C     0.00772   -0.02772   -0.02885
 12 C    -0.01302   -0.03881    0.00167
 13 C     0.03430    0.01163    0.03895
 14 C     0.00081    0.01226   -0.02301
 15 C    -0.00824    0.01036    0.01889
 16 C    -0.01070    0.05663   -0.00983
 17 C    -0.00500   -0.00339    0.05521
 18 C    -0.02291   -0.00132    0.00035
 19 C     0.01635    0.00146   -0.00866
 20 C    -0.06415   -0.00502   -0.02659
 21 C     0.00046   -0.03986    0.03381
 22 C    -0.01457    0.00489   -0.00334
 23 C    -0.02430    0.00217   -0.01496

