
  ___ ___ ___ _ _ _  
 |   |   |_  | | | | 
 | | | | | . | | | | 
 |__ |  _|___|_____|  1.3.0b1
 |___|_|             

User:   esb@s65n33.grendel.cscaa.dk
Date:   Thu Nov  9 09:23:28 2017
Arch:   x86_64
Pid:    73700
Python: 2.7.13
gpaw:   /home/esb/DFT/gpaw_git/gpaw
_gpaw:  /home/esb/DFT/gpaw_git/build/bin.linux-x86_64-2.7/gpaw-python
ase:    /home/esb/DFT/ase_git/ase (version 3.15.0b1)
numpy:  /comm/swstack/core/python/2.7.13/lib/python2.7/site-packages/numpy (version 1.13.3)
scipy:  /comm/swstack/core/python/2.7.13/lib/python2.7/site-packages/scipy (version 0.19.1)
units:  Angstrom and eV
cores:  16
Extra parameters: {'blacs': True}

Input parameters:
  basis: dzp
  gpts: [80 80 48]
  kpts: [1 1 1]
  maxiter: 99
  mixer: {backend: pulay,
          beta: 0.05,
          method: separate,
          nmaxold: 5,
          weight: 75}
  mode: lcao
  nbands: -50
  occupations: {name: fermi-dirac,
                width: 0.1}
  poissonsolver: {eps: 1e-07,
                  name: fd,
                  nn: 3,
                  relax: GS}
  xc: PBE

System changes: positions, numbers, cell, pbc, initial_charges, initial_magmoms 

Initialize ...

C-setup:
  name: Carbon
  id: 4aa54d4b901d75f77cc0ea3eec22967b
  Z: 6
  valence: 4
  core: 2
  charge: 0.0
  file: /home/esb/DFT/gpaw-setups-0.8.7929/C.PBE.gz
  cutoffs: 0.64(comp), 1.14(filt), 1.14(core), lmax=2
  valence states:
                energy  radius
    2s(2.00)   -13.751   0.635
    2p(2.00)    -5.284   0.635
    *s          13.461   0.635
    *p          21.927   0.635
    *d           0.000   0.635

  LCAO basis set for C:
    Name: dzp
    File: /home/esb/DFT/gpaw-setups-0.8.7929/C.dzp.basis.gz
    Number of radial functions: 5
    Number of spherical harmonics: 13
      l=0, rc=5.5469 Bohr: 2s-sz confined orbital
      l=1, rc=6.6719 Bohr: 2p-sz confined orbital
      l=0, rc=3.0312 Bohr: 2s-dz split-valence wave
      l=1, rc=3.7500 Bohr: 2p-dz split-valence wave
      l=2, rc=6.6719 Bohr: d-type Gaussian polarization

Reference energy: -24663.074771

Spin-paired calculation

Occupation numbers:
  Fermi-Dirac: width=0.1000 eV

Convergence criteria:
  Maximum total energy change: 0.0005 eV / electron
  Maximum integral of absolute density change: 0.0001 electrons
  Maximum integral of absolute eigenstate change: 4e-08 eV^2
  Maximum number of iterations: 99

Symmetries present (total): 1

  ( 1  0  0)
  ( 0  1  0)
  ( 0  0  1)

1 k-point (Gamma)
1 k-point in the irreducible part of the Brillouin zone
       k-points in crystal coordinates                weights
   0:     0.00000000    0.00000000    0.00000000          1/1

Wave functions: LCAO
  Diagonalizer: Serial LAPACK
  Atomic Correction: dense with blas
  Datatype: float
  Eigensolver: None 

LCAO using direct dense diagonalizer 

Densities:
  Coarse grid: 80*80*48 grid
  Fine grid: 160*160*96 grid
  Total Charge: 0.000000 

Density mixing:
  Method: separate
  Backend: pulay
  Linear mixing parameter: 0.05
  Mixing with 5 old densities
  Damping of long wave oscillations: 75 

Hamiltonian:
  XC and Coulomb potentials evaluated on a 160*160*96 grid
  Using the PBE Exchange-Correlation functional
  Interpolation: tri-quintic (5. degree polynomial)
  Poisson solver: Gauss-Seidel solver with 6 multi-grid levels
    Coarsest grid: 5 x 5 x 3 points
    Stencil: 6*3+1=19 point O(h^6) finite-difference Laplacian
    Max iterations: 1000
    Tolerance: 1.000000e-07 

Memory estimate:
  Process memory now: 77.56 MiB
  Calculator: 15.59 MiB
    Density: 6.13 MiB
      Arrays: 3.81 MiB
      Localized functions: 0.86 MiB
      Mixer: 1.46 MiB
    Hamiltonian: 5.40 MiB
      Arrays: 2.49 MiB
      XC: 0.00 MiB
      Poisson: 2.85 MiB
      vbar: 0.07 MiB
    Wavefunctions: 4.05 MiB
      C [qnM]: 0.23 MiB
      S, T [2 x qmm]: 1.49 MiB
      P [aqMi]: 0.01 MiB
      TCI: 0.00 MiB
      BasisFunctions: 2.33 MiB
      Eigensolver: 0.00 MiB

Total number of cores used: 16
Domain decomposition: 2 x 4 x 2

Number of atoms: 24
Number of atomic orbitals: 312
Number of bands in calculation: 98
Bands to converge: occupied states only
Number of valence electrons: 96

... initialized

Initializing position-dependent things.

Density initialized from atomic densities
           .--------------------------------------.  
          /|                                      |  
         / |                                      |  
        /  |                                      |  
       /   |                                      |  
      /    |                                      |  
     /     |                                      |  
    /      |                                      |  
   /       |                                      |  
  /        |                                      |  
 *         |            C  C  C     C             |  
 |         |           C  C  C     CC             |  
 |         .----------C-------------C-------------.  
 |        /          C C  C        C             /   
 |       /            C      C  C  C            /    
 |      /               C                      /     
 |     /                   C  C  C            /      
 |    /                                      /       
 |   /                                      /        
 |  /                                      /         
 | /                                      /          
 |/                                      /           
 *--------------------------------------*            

Positions:
   0 C     10.326239    4.697679    4.424449
   1 C     11.425509    5.289479    4.168808
   2 C     12.278066    6.317925    4.102286
   3 C      9.033694    4.786502    4.767627
   4 C     12.554190    7.559694    4.178454
   5 C      7.874849    5.166840    5.119855
   6 C     12.289500    8.842986    4.473229
   7 C      7.148149    6.293262    5.449731
   8 C      8.439173    8.608807    5.663306
   9 C     11.647281    9.898995    4.757997
  10 C      9.431624    9.343821    5.470936
  11 C      7.444835    7.668125    5.675657
  12 C      9.144583    5.752442    1.735882
  13 C     10.246901    6.341522    1.487177
  14 C     11.161637    7.314466    1.562127
  15 C      8.021539    5.689965    2.464720
  16 C     11.626760    8.387532    2.068316
  17 C      7.062574    5.891888    3.271723
  18 C     11.574154    9.481514    2.845635
  19 C      6.617398    6.767018    4.242138
  20 C      7.991572    9.008341    4.644902
  21 C     11.200638   10.297674    3.741772
  22 C      9.013084    9.717417    4.518650
  23 C      7.033535    8.035257    4.739845

Unit cell:
           periodic     x           y           z      points  spacing
  1. axis:    yes   16.000000    0.000000    0.000000    80     0.2000
  2. axis:    yes    0.000000   16.000000    0.000000    80     0.2000
  3. axis:    yes    0.000000    0.000000   10.000000    48     0.2083

Effective grid spacing dv^(1/3) = 0.2027

                     log10-error:    total        iterations:
           time      wfs    density  energy       fermi  poisson
iter:   1  09:23:30          +inf  -160.861001    3      6      
iter:   2  09:23:31         -0.86  -159.108861    34     3      
iter:   3  09:23:32         -0.90  -156.442060    34     3      
iter:   4  09:23:33         -0.98  -153.205994    32     4      
iter:   5  09:23:33         -1.31  -152.948498    3      3      
iter:   6  09:23:34         -1.44  -152.955505    32     3      
iter:   7  09:23:35         -1.53  -152.839573    4      3      
iter:   8  09:23:36         -1.71  -152.817567    3      3      
iter:   9  09:23:36         -1.96  -152.787251    3      2      
iter:  10  09:23:37         -2.18  -152.778932    3      2      
iter:  11  09:23:38         -2.36  -152.774289    2      2      
iter:  12  09:23:39         -2.44  -152.768804    2      2      
iter:  13  09:23:39         -2.68  -152.768651    2      2      
iter:  14  09:23:40         -2.84  -152.784872    2      1      
iter:  15  09:23:41         -2.94  -152.779520    2      1      
iter:  16  09:23:41         -3.02  -152.780651    2      1      
iter:  17  09:23:42         -3.13  -152.767921    2      2      
iter:  18  09:23:43         -3.47  -152.768958    2      1      
iter:  19  09:23:44         -3.64  -152.767693    2      1      
iter:  20  09:23:44         -3.71  -152.768839    2      1      
iter:  21  09:23:45         -3.80  -152.768637    2      1      
iter:  22  09:23:46         -3.91  -152.766082    2      1      
iter:  23  09:23:46         -3.95  -152.765793    2      1      
iter:  24  09:23:47         -4.02  -152.765415    2      1      

Converged after 24 iterations.

Dipole moment: (-0.146050, 0.029555, -0.268487) |e|*Ang

Energy contributions relative to reference atoms: (reference = -24663.074771)

Kinetic:       +301.285674
Potential:     -248.337138
External:        +0.000000
XC:            -208.803985
Entropy (-ST):   -0.286418
Local:           +3.233244
--------------------------
Free energy:   -152.908624
Extrapolated:  -152.765415

Fermi level: -3.82429

 Band  Eigenvalues  Occupancy
    0    -28.79973    2.00000
    1    -25.82786    2.00000
    2    -23.83346    2.00000
    3    -22.27022    2.00000
    4    -20.37964    2.00000
    5    -19.96097    2.00000
    6    -19.77224    2.00000
    7    -19.15090    2.00000
    8    -18.86190    2.00000
    9    -18.21723    2.00000
   10    -17.37173    2.00000
   11    -17.10016    2.00000
   12    -16.36069    2.00000
   13    -16.25750    2.00000
   14    -15.57453    2.00000
   15    -14.79534    2.00000
   16    -14.75428    2.00000
   17    -14.47505    2.00000
   18    -13.79869    2.00000
   19    -13.62650    2.00000
   20    -13.21608    2.00000
   21    -13.01102    2.00000
   22    -12.60386    2.00000
   23    -12.43190    2.00000
   24    -11.80232    2.00000
   25    -10.89032    2.00000
   26    -10.54581    2.00000
   27    -10.42255    2.00000
   28    -10.18242    2.00000
   29     -9.77300    2.00000
   30     -9.63463    2.00000
   31     -9.10454    2.00000
   32     -8.72254    2.00000
   33     -8.68149    2.00000
   34     -8.26573    2.00000
   35     -7.90900    2.00000
   36     -7.84043    2.00000
   37     -7.64087    2.00000
   38     -6.87866    2.00000
   39     -6.38292    2.00000
   40     -6.28781    2.00000
   41     -6.21666    2.00000
   42     -5.38519    2.00000
   43     -5.10788    1.99999
   44     -4.97053    1.99998
   45     -4.46672    1.99676
   46     -4.34114    1.98868
   47     -3.86894    1.21962
   48     -3.77929    0.77873
   49     -3.34262    0.01606
   50     -2.88762    0.00017
   51     -2.57097    0.00001
   52     -2.26098    0.00000
   53     -1.86366    0.00000
   54     -1.85488    0.00000
   55     -1.31267    0.00000
   56     -1.02453    0.00000
   57     -0.42738    0.00000
   58     -0.10434    0.00000
   59     -0.05550    0.00000
   60      0.22759    0.00000
   61      0.41245    0.00000
   62      0.84418    0.00000
   63      1.50433    0.00000
   64      2.95275    0.00000
   65      3.27473    0.00000
   66      3.76940    0.00000
   67      4.31381    0.00000
   68      4.64642    0.00000
   69      5.15807    0.00000
   70      5.52513    0.00000
   71      5.63228    0.00000
   72      6.48854    0.00000
   73      6.90272    0.00000
   74      7.19133    0.00000
   75      7.36060    0.00000
   76      7.93565    0.00000
   77      8.04282    0.00000
   78      8.20352    0.00000
   79      8.28734    0.00000
   80      8.40063    0.00000
   81      8.58425    0.00000
   82      8.66436    0.00000
   83      8.90058    0.00000
   84      9.06741    0.00000
   85      9.13543    0.00000
   86      9.37651    0.00000
   87      9.45022    0.00000
   88      9.46034    0.00000
   89      9.70800    0.00000
   90      9.85613    0.00000
   91      9.88761    0.00000
   92      9.90879    0.00000
   93      9.99384    0.00000
   94     10.08065    0.00000
   95     10.25089    0.00000
   96     10.57593    0.00000
   97     10.82691    0.00000


Forces in eV/Ang:
  0 C    -1.52357   -0.52224    0.35017
  1 C     1.47410    1.29490    0.01539
  2 C    -0.73343   -2.15503    0.16940
  3 C     1.89662   -0.75231    0.91921
  4 C     0.16550    2.38538    2.46482
  5 C     1.04104   -0.76106    2.24985
  6 C     5.48938   -7.64374    1.25747
  7 C    -0.22378   -3.81164    2.53974
  8 C     0.89781  -12.98912   24.42625
  9 C     3.58408   -3.06937   19.18814
 10 C    24.03623   -2.31890   24.86625
 11 C    13.84689  -14.29658   35.14070
 12 C    -1.43185   -0.58551    0.48564
 13 C     1.37634    1.37799   -0.21922
 14 C    -1.15229   -1.72830   -0.84460
 15 C     0.53916    0.44138   -2.09597
 16 C    -0.88643    3.33957    0.10528
 17 C    -0.96257    0.98950   -2.18573
 18 C     1.14049   -3.75966   -8.63757
 19 C    -2.79664   -1.50746   -3.27177
 20 C   -18.62664    4.43155  -19.95024
 21 C   -10.73937    9.73209  -13.45619
 22 C     0.34475   18.86247  -29.06842
 23 C   -16.74434   12.94426  -34.42335

System changes: positions 

Initializing position-dependent things.

Density initialized from wave functions
           .--------------------------------------.  
          /|                                      |  
         / |                                      |  
        /  |                                      |  
       /   |                                      |  
      /    |                                      |  
     /     |                                      |  
    /      |                                      |  
   /       |                                      |  
  /        |                                      |  
 *         |            C  C  C     C             |  
 |         |           C  C  C     CC             |  
 |         .----------C-------------C-------------.  
 |        /          C C  C        C             /   
 |       /            C      C  C  C            /    
 |      /               C                      /     
 |     /                   C  C  C            /      
 |    /                                      /       
 |   /                                      /        
 |  /                                      /         
 | /                                      /          
 |/                                      /           
 *--------------------------------------*            

Positions:
   0 C     10.324731    4.697162    4.424796
   1 C     11.426968    5.290761    4.168823
   2 C     12.277340    6.315791    4.102454
   3 C      9.035571    4.785757    4.768537
   4 C     12.554354    7.562055    4.180894
   5 C      7.875880    5.166086    5.122082
   6 C     12.294933    8.835420    4.474473
   7 C      7.147927    6.289489    5.452245
   8 C      8.440062    8.595949    5.687485
   9 C     11.650829    9.895956    4.776991
  10 C      9.455417    9.341526    5.495550
  11 C      7.458542    7.653973    5.710442
  12 C      9.143166    5.751862    1.736363
  13 C     10.248263    6.342886    1.486960
  14 C     11.160496    7.312755    1.561291
  15 C      8.022073    5.690402    2.462645
  16 C     11.625882    8.390838    2.068420
  17 C      7.061621    5.892868    3.269559
  18 C     11.575283    9.477793    2.837085
  19 C      6.614630    6.765526    4.238899
  20 C      7.973134    9.012728    4.625154
  21 C     11.190008   10.307308    3.728452
  22 C      9.013425    9.736088    4.489876
  23 C      7.016960    8.048070    4.705770

Unit cell:
           periodic     x           y           z      points  spacing
  1. axis:    yes   16.000000    0.000000    0.000000    80     0.2000
  2. axis:    yes    0.000000   16.000000    0.000000    80     0.2000
  3. axis:    yes    0.000000    0.000000   10.000000    48     0.2083

Effective grid spacing dv^(1/3) = 0.2027

                     log10-error:    total        iterations:
           time      wfs    density  energy       fermi  poisson
iter:   1  09:23:50          +inf  -159.846526    3      5      
iter:   2  09:23:51         -1.96  -159.824762    2      2      
iter:   3  09:23:51         -2.01  -159.800998    2      2      
iter:   4  09:23:52         -2.12  -159.763199    3      3      
iter:   5  09:23:53         -2.47  -159.760214    2      2      
iter:   6  09:23:54         -2.67  -159.753563    2      2      
iter:   7  09:23:54         -2.92  -159.752776    2      2      
iter:   8  09:23:55         -3.00  -159.753138    2      2      
iter:   9  09:23:56         -3.34  -159.751046    2      1      
iter:  10  09:23:57         -3.41  -159.748716    2      1      
iter:  11  09:23:57         -3.57  -159.751806    2      1      
iter:  12  09:23:58         -3.83  -159.753301    2      1      
iter:  13  09:23:59         -3.95  -159.753996    2      1      
iter:  14  09:23:59         -4.03  -159.754114    2      1      

Converged after 14 iterations.

Dipole moment: (-0.068505, -0.015550, -0.322751) |e|*Ang

Energy contributions relative to reference atoms: (reference = -24663.074771)

Kinetic:       +260.647209
Potential:     -220.766720
External:        +0.000000
XC:            -202.661025
Entropy (-ST):   -0.196256
Local:           +3.124550
--------------------------
Free energy:   -159.852242
Extrapolated:  -159.754114

Fermi level: -3.91138

 Band  Eigenvalues  Occupancy
    0    -27.87652    2.00000
    1    -25.09319    2.00000
    2    -23.62219    2.00000
    3    -21.88113    2.00000
    4    -20.39670    2.00000
    5    -20.01744    2.00000
    6    -19.70070    2.00000
    7    -19.21148    2.00000
    8    -18.79758    2.00000
    9    -18.28462    2.00000
   10    -17.35016    2.00000
   11    -17.18285    2.00000
   12    -16.30677    2.00000
   13    -16.28192    2.00000
   14    -15.60182    2.00000
   15    -14.85368    2.00000
   16    -14.72652    2.00000
   17    -14.12132    2.00000
   18    -13.86905    2.00000
   19    -13.15785    2.00000
   20    -13.08993    2.00000
   21    -12.95515    2.00000
   22    -12.51552    2.00000
   23    -12.47308    2.00000
   24    -11.63224    2.00000
   25    -10.62734    2.00000
   26    -10.51993    2.00000
   27    -10.24703    2.00000
   28    -10.02075    2.00000
   29     -9.94200    2.00000
   30     -9.27458    2.00000
   31     -9.07569    2.00000
   32     -8.72664    2.00000
   33     -8.67835    2.00000
   34     -8.21683    2.00000
   35     -7.97578    2.00000
   36     -7.78264    2.00000
   37     -7.69419    2.00000
   38     -6.80707    2.00000
   39     -6.45706    2.00000
   40     -6.36155    2.00000
   41     -6.20915    2.00000
   42     -5.36083    2.00000
   43     -5.21467    2.00000
   44     -4.96793    1.99995
   45     -4.59582    1.99787
   46     -4.52091    1.99550
   47     -4.06296    1.63984
   48     -3.76111    0.36405
   49     -3.25306    0.00276
   50     -2.78540    0.00003
   51     -2.62545    0.00001
   52     -2.38429    0.00000
   53     -2.03782    0.00000
   54     -1.78928    0.00000
   55     -1.41953    0.00000
   56     -0.98191    0.00000
   57     -0.40818    0.00000
   58     -0.12286    0.00000
   59     -0.10617    0.00000
   60      0.07689    0.00000
   61      0.34159    0.00000
   62      0.63200    0.00000
   63      1.49335    0.00000
   64      2.83484    0.00000
   65      3.49410    0.00000
   66      3.56450    0.00000
   67      4.30912    0.00000
   68      4.32670    0.00000
   69      4.78711    0.00000
   70      5.45102    0.00000
   71      5.84084    0.00000
   72      6.64259    0.00000
   73      6.96363    0.00000
   74      6.97299    0.00000
   75      7.44269    0.00000
   76      7.96211    0.00000
   77      8.17741    0.00000
   78      8.23090    0.00000
   79      8.25169    0.00000
   80      8.44498    0.00000
   81      8.48186    0.00000
   82      8.65216    0.00000
   83      8.95690    0.00000
   84      9.00238    0.00000
   85      9.16636    0.00000
   86      9.28386    0.00000
   87      9.36427    0.00000
   88      9.49558    0.00000
   89      9.74277    0.00000
   90      9.86920    0.00000
   91      9.89069    0.00000
   92      9.91239    0.00000
   93      9.95169    0.00000
   94      9.98585    0.00000
   95     10.16180    0.00000
   96     10.59526    0.00000
   97     10.59630    0.00000


Forces in eV/Ang:
  0 C    -1.27719   -0.42533    0.25499
  1 C     1.22799    1.10682    0.12469
  2 C    -0.54835   -1.75773    0.12990
  3 C     1.75985   -0.69129    0.94930
  4 C     0.18934    1.54450    2.36060
  5 C     1.00425   -0.93747    2.19126
  6 C     4.92092   -6.40468    1.31254
  7 C    -0.16750   -3.63903    2.10488
  8 C     1.57124   -9.72393   19.61543
  9 C     1.95930   -2.25510   15.25233
 10 C    17.73077   -1.02481   16.95002
 11 C     8.55451   -8.78442   22.65227
 12 C    -1.16579   -0.49949    0.42669
 13 C     1.07832    1.23471   -0.21724
 14 C    -0.89747   -1.39955   -0.71448
 15 C     0.43459    0.47266   -1.98356
 16 C    -1.01486    2.64257   -0.35047
 17 C    -0.99635    0.81105   -2.24061
 18 C     1.03338   -2.91911   -7.57480
 19 C    -2.43756   -1.62336   -2.99989
 20 C   -14.18348    4.31705  -16.19821
 21 C    -9.09132    7.62408   -9.94349
 22 C     1.30793   13.65464  -20.39448
 23 C   -10.92403    8.62171  -21.64990

System changes: positions 

Initializing position-dependent things.

Density initialized from wave functions
           .--------------------------------------.  
          /|                                      |  
         / |                                      |  
        /  |                                      |  
       /   |                                      |  
      /    |                                      |  
     /     |                                      |  
    /      |                                      |  
   /       |                                      |  
  /        |                                      |  
 *         |            C  C  C     C             |  
 |         |           C  C  C     C C            |  
 |         .----------C-------------C-------------.  
 |        /          C C  C        C             /   
 |       /            C      C  C  C            /    
 |      /               C                      /     
 |     /                   C  C  C            /      
 |    /                                      /       
 |   /                                      /        
 |  /                                      /         
 | /                                      /          
 |/                                      /           
 *--------------------------------------*            

Positions:
   0 C     10.321966    4.696328    4.425079
   1 C     11.429573    5.293306    4.169872
   2 C     12.276616    6.312326    4.102651
   3 C      9.040566    4.783837    4.771838
   4 C     12.555116    7.562228    4.188057
   5 C      7.878971    5.161969    5.128954
   6 C     12.307813    8.821573    4.479116
   7 C      7.147705    6.278517    5.456634
   8 C      8.449168    8.583011    5.723958
   9 C     11.647787    9.893289    4.804212
  10 C      9.476955    9.345712    5.505108
  11 C      7.455788    7.657254    5.712062
  12 C      9.140882    5.750721    1.737424
  13 C     10.250073    6.346114    1.486256
  14 C     11.159030    7.310068    1.559699
  15 C      8.022893    5.692141    2.456771
  16 C     11.621791    8.395466    2.064604
  17 C      7.058144    5.894496    3.261862
  18 C     11.578059    9.473093    2.818356
  19 C      6.608702    6.759505    4.230612
  20 C      7.952396    9.026271    4.593745
  21 C     11.169705   10.320093    3.716237
  22 C      9.023357    9.750619    4.473405
  23 C      7.014998    8.051203    4.709114

Unit cell:
           periodic     x           y           z      points  spacing
  1. axis:    yes   16.000000    0.000000    0.000000    80     0.2000
  2. axis:    yes    0.000000   16.000000    0.000000    80     0.2000
  3. axis:    yes    0.000000    0.000000   10.000000    48     0.2083

Effective grid spacing dv^(1/3) = 0.2027

                     log10-error:    total        iterations:
           time      wfs    density  energy       fermi  poisson
iter:   1  09:24:02          +inf  -163.482853    3      5      
iter:   2  09:24:03         -1.94  -163.440638    3      2      
iter:   3  09:24:04         -2.05  -163.411731    3      2      
iter:   4  09:24:04         -2.22  -163.400773    2      2      
iter:   5  09:24:05         -2.44  -163.394554    3      2      
iter:   6  09:24:06         -2.76  -163.389872    2      2      
iter:   7  09:24:07         -2.90  -163.388127    2      2      
iter:   8  09:24:07         -3.15  -163.387843    2      1      
iter:   9  09:24:08         -3.25  -163.385829    2      1      
iter:  10  09:24:09         -3.39  -163.385112    2      1      
iter:  11  09:24:09         -3.48  -163.385418    2      1      
iter:  12  09:24:10         -3.66  -163.387437    2      1      
iter:  13  09:24:11         -3.74  -163.388387    2      1      
iter:  14  09:24:12         -3.89  -163.388546    2      1      
iter:  15  09:24:12         -4.02  -163.388453    2      1      

Converged after 15 iterations.

Dipole moment: (-0.069032, -0.035394, -0.329496) |e|*Ang

Energy contributions relative to reference atoms: (reference = -24663.074771)

Kinetic:       +233.918456
Potential:     -202.228205
External:        +0.000000
XC:            -198.113355
Entropy (-ST):   -0.112976
Local:           +3.091139
--------------------------
Free energy:   -163.444941
Extrapolated:  -163.388453

Fermi level: -3.96250

 Band  Eigenvalues  Occupancy
    0    -27.26717    2.00000
    1    -24.66490    2.00000
    2    -23.15501    2.00000
    3    -21.67952    2.00000
    4    -20.38856    2.00000
    5    -20.04714    2.00000
    6    -19.64831    2.00000
    7    -19.25993    2.00000
    8    -18.75034    2.00000
    9    -18.32797    2.00000
   10    -17.34445    2.00000
   11    -17.21175    2.00000
   12    -16.32798    2.00000
   13    -16.24303    2.00000
   14    -15.61811    2.00000
   15    -14.86597    2.00000
   16    -14.70560    2.00000
   17    -13.98156    2.00000
   18    -13.89466    2.00000
   19    -13.16732    2.00000
   20    -13.12506    2.00000
   21    -12.62669    2.00000
   22    -12.62427    2.00000
   23    -12.20545    2.00000
   24    -11.53206    2.00000
   25    -10.53401    2.00000
   26    -10.37603    2.00000
   27    -10.13116    2.00000
   28    -10.01849    2.00000
   29     -9.80398    2.00000
   30     -9.24273    2.00000
   31     -9.01230    2.00000
   32     -8.74871    2.00000
   33     -8.63542    2.00000
   34     -8.17497    2.00000
   35     -8.01159    2.00000
   36     -7.74058    2.00000
   37     -7.73335    2.00000
   38     -6.77154    2.00000
   39     -6.51732    2.00000
   40     -6.41043    2.00000
   41     -6.15065    2.00000
   42     -5.44609    2.00000
   43     -5.33294    2.00000
   44     -4.89272    1.99982
   45     -4.71303    1.99890
   46     -4.60429    1.99674
   47     -4.21185    1.84736
   48     -3.71591    0.15657
   49     -3.13930    0.00053
   50     -2.94883    0.00008
   51     -2.51437    0.00000
   52     -2.46635    0.00000
   53     -2.17536    0.00000
   54     -1.73320    0.00000
   55     -1.45808    0.00000
   56     -0.94640    0.00000
   57     -0.33670    0.00000
   58     -0.12670    0.00000
   59     -0.11476    0.00000
   60      0.02723    0.00000
   61      0.28455    0.00000
   62      0.57481    0.00000
   63      1.53355    0.00000
   64      2.70527    0.00000
   65      3.17963    0.00000
   66      3.47415    0.00000
   67      3.81250    0.00000
   68      4.31781    0.00000
   69      4.43327    0.00000
   70      5.31538    0.00000
   71      5.72649    0.00000
   72      6.71593    0.00000
   73      6.82721    0.00000
   74      6.95694    0.00000
   75      7.44138    0.00000
   76      8.00087    0.00000
   77      8.17640    0.00000
   78      8.20995    0.00000
   79      8.26188    0.00000
   80      8.38823    0.00000
   81      8.47567    0.00000
   82      8.66747    0.00000
   83      8.98596    0.00000
   84      9.02274    0.00000
   85      9.17861    0.00000
   86      9.26725    0.00000
   87      9.36349    0.00000
   88      9.44878    0.00000
   89      9.76524    0.00000
   90      9.80621    0.00000
   91      9.87531    0.00000
   92      9.92815    0.00000
   93      9.94767    0.00000
   94     10.02478    0.00000
   95     10.07719    0.00000
   96     10.39819    0.00000
   97     10.61568    0.00000


Forces in eV/Ang:
  0 C    -0.92343   -0.35586    0.14107
  1 C     0.93222    0.91477    0.21149
  2 C    -0.41991   -1.58404    0.05024
  3 C     1.65610   -0.61950    0.94479
  4 C     0.28598    0.76970    2.19258
  5 C     0.82588   -0.92717    2.05453
  6 C     3.82085   -4.30261    1.44614
  7 C    -0.34028   -3.18736    1.55600
  8 C     1.58016   -6.28856   14.20682
  9 C     0.71685   -1.95201   10.80321
 10 C    13.97008   -1.46394   14.01688
 11 C     8.76179   -8.64527   22.49042
 12 C    -0.83810   -0.42256    0.29714
 13 C     0.76848    1.07447   -0.17248
 14 C    -0.71844   -1.28058   -0.65731
 15 C     0.39086    0.50223   -1.87746
 16 C    -1.03334    1.96796   -0.79436
 17 C    -1.02109    0.69542   -2.04567
 18 C     0.69151   -1.48012   -5.69638
 19 C    -2.10237   -1.64178   -2.36947
 20 C    -9.76390    3.86174  -11.58908
 21 C    -7.01687    4.95930   -6.84267
 22 C     0.40924   10.64171  -16.79660
 23 C   -10.64736    8.66418  -21.63560

System changes: positions 

Initializing position-dependent things.

Density initialized from wave functions
           .--------------------------------------.  
          /|                                      |  
         / |                                      |  
        /  |                                      |  
       /   |                                      |  
      /    |                                      |  
     /     |                                      |  
    /      |                                      |  
   /       |                                      |  
  /        |                                      |  
 *         |            C  C  C     C             |  
 |         |           C  C  C     C C            |  
 |         .----------C-------------C-------------.  
 |        /          C C  C        C             /   
 |       /            C      C  C  C            /    
 |      /                                      /     
 |     /                C  C  C  C            /      
 |    /                                      /       
 |   /                                      /        
 |  /                                      /         
 | /                                      /          
 |/                                      /           
 *--------------------------------------*            

Positions:
   0 C     10.319452    4.695037    4.424565
   1 C     11.432451    5.297182    4.173010
   2 C     12.276059    6.305540    4.102210
   3 C      9.050923    4.780233    4.779138
   4 C     12.557978    7.555335    4.202403
   5 C      7.883813    5.153324    5.142904
   6 C     12.324712    8.813113    4.491100
   7 C      7.144875    6.258938    5.460909
   8 C      8.467872    8.587460    5.752314
   9 C     11.630050    9.888722    4.821202
  10 C      9.496592    9.345914    5.512749
  11 C      7.467446    7.650491    5.749723
  12 C      9.139071    5.748861    1.738361
  13 C     10.251129    6.351798    1.485225
  14 C     11.157233    7.304551    1.556449
  15 C      8.024495    5.696342    2.444532
  16 C     11.612704    8.399460    2.051752
  17 C      7.050090    5.897232    3.247107
  18 C     11.580345    9.478100    2.796594
  19 C      6.598501    6.746031    4.219038
  20 C      7.948190    9.051436    4.569848
  21 C     11.145162   10.321615    3.717410
  22 C      9.031715    9.760658    4.456318
  23 C      6.997244    8.071272    4.679978

Unit cell:
           periodic     x           y           z      points  spacing
  1. axis:    yes   16.000000    0.000000    0.000000    80     0.2000
  2. axis:    yes    0.000000   16.000000    0.000000    80     0.2000
  3. axis:    yes    0.000000    0.000000   10.000000    48     0.2083

Effective grid spacing dv^(1/3) = 0.2027

                     log10-error:    total        iterations:
           time      wfs    density  energy       fermi  poisson
iter:   1  09:24:15          +inf  -167.372096    3      5      
iter:   2  09:24:16         -1.95  -167.334479    2      2      
iter:   3  09:24:17         -2.06  -167.305401    2      2      
iter:   4  09:24:17         -2.23  -167.297723    2      2      
iter:   5  09:24:18         -2.44  -167.293896    2      2      
iter:   6  09:24:19         -2.75  -167.289280    2      2      
iter:   7  09:24:20         -2.89  -167.288541    2      2      
iter:   8  09:24:20         -3.18  -167.288929    2      1      
iter:   9  09:24:21         -3.26  -167.287586    2      1      
iter:  10  09:24:22         -3.41  -167.285562    2      1      
iter:  11  09:24:22         -3.50  -167.286417    2      1      
iter:  12  09:24:23         -3.60  -167.287398    2      1      
iter:  13  09:24:24         -3.67  -167.287693    1      1      
iter:  14  09:24:24         -3.80  -167.287723    1      1      
iter:  15  09:24:25         -3.85  -167.288618    2      1      
iter:  16  09:24:26         -4.00  -167.288434    2      1      
iter:  17  09:24:27         -4.13  -167.287644    2      1      

Converged after 17 iterations.

Dipole moment: (-0.071964, -0.030350, -0.325627) |e|*Ang

Energy contributions relative to reference atoms: (reference = -24663.074771)

Kinetic:       +204.292113
Potential:     -181.640867
External:        +0.000000
XC:            -193.020038
Entropy (-ST):   -0.048497
Local:           +3.105397
--------------------------
Free energy:   -167.311893
Extrapolated:  -167.287644

Fermi level: -4.01284

 Band  Eigenvalues  Occupancy
    0    -26.56101    2.00000
    1    -24.09635    2.00000
    2    -22.79154    2.00000
    3    -21.33133    2.00000
    4    -20.35452    2.00000
    5    -20.07449    2.00000
    6    -19.51360    2.00000
    7    -19.29402    2.00000
    8    -18.57141    2.00000
    9    -18.34989    2.00000
   10    -17.24755    2.00000
   11    -17.24597    2.00000
   12    -16.39674    2.00000
   13    -16.13056    2.00000
   14    -15.70853    2.00000
   15    -14.91310    2.00000
   16    -14.65938    2.00000
   17    -13.91584    2.00000
   18    -13.84424    2.00000
   19    -13.25182    2.00000
   20    -13.07377    2.00000
   21    -12.71964    2.00000
   22    -12.18233    2.00000
   23    -12.01997    2.00000
   24    -11.40472    2.00000
   25    -10.45051    2.00000
   26    -10.28909    2.00000
   27    -10.22065    2.00000
   28     -9.98868    2.00000
   29     -9.66534    2.00000
   30     -9.00689    2.00000
   31     -8.87023    2.00000
   32     -8.76681    2.00000
   33     -8.56175    2.00000
   34     -8.11890    2.00000
   35     -8.05000    2.00000
   36     -7.75567    2.00000
   37     -7.65017    2.00000
   38     -6.68099    2.00000
   39     -6.58564    2.00000
   40     -6.45712    2.00000
   41     -6.07296    2.00000
   42     -5.66257    2.00000
   43     -5.28041    1.99999
   44     -4.85953    1.99958
   45     -4.81108    1.99932
   46     -4.68231    1.99753
   47     -4.38678    1.95357
   48     -3.64615    0.04984
   49     -3.02564    0.00010
   50     -2.98487    0.00007
   51     -2.56085    0.00000
   52     -2.37185    0.00000
   53     -2.29527    0.00000
   54     -1.66108    0.00000
   55     -1.51591    0.00000
   56     -0.86419    0.00000
   57     -0.37003    0.00000
   58     -0.31192    0.00000
   59     -0.06058    0.00000
   60     -0.02291    0.00000
   61      0.18369    0.00000
   62      0.49015    0.00000
   63      1.57918    0.00000
   64      2.51284    0.00000
   65      2.89899    0.00000
   66      3.34701    0.00000
   67      3.40194    0.00000
   68      3.96592    0.00000
   69      4.40140    0.00000
   70      5.24837    0.00000
   71      5.73515    0.00000
   72      6.53837    0.00000
   73      6.72389    0.00000
   74      6.92937    0.00000
   75      7.50752    0.00000
   76      8.04046    0.00000
   77      8.06449    0.00000
   78      8.24208    0.00000
   79      8.28495    0.00000
   80      8.35062    0.00000
   81      8.50390    0.00000
   82      8.71580    0.00000
   83      8.77437    0.00000
   84      9.08065    0.00000
   85      9.18594    0.00000
   86      9.22845    0.00000
   87      9.36428    0.00000
   88      9.44805    0.00000
   89      9.73503    0.00000
   90      9.80424    0.00000
   91      9.85175    0.00000
   92      9.94429    0.00000
   93      9.97204    0.00000
   94      9.97263    0.00000
   95     10.11665    0.00000
   96     10.25397    0.00000
   97     10.63399    0.00000


Forces in eV/Ang:
  0 C    -0.46532   -0.30786    0.01383
  1 C     0.59884    0.60454    0.24924
  2 C    -0.27052   -1.50203   -0.02622
  3 C     1.16879   -0.49470    0.97314
  4 C     0.29711    1.02864    2.11312
  5 C     0.81196   -1.03638    1.77318
  6 C     3.06097   -3.19488    1.40597
  7 C    -0.40041   -2.10586    0.91753
  8 C     0.17893   -5.54069   10.97121
  9 C     0.39950   -2.30253    8.72893
 10 C    12.24649   -0.71719   11.33237
 11 C     5.30757   -4.95384   13.53227
 12 C    -0.42930   -0.33776    0.09550
 13 C     0.42399    0.78224   -0.15570
 14 C    -0.55223   -1.22375   -0.67001
 15 C     0.06535    0.49816   -1.52610
 16 C    -0.90440    2.12452   -0.61785
 17 C    -0.85189    0.41644   -1.98558
 18 C     0.44666   -0.84950   -4.54550
 19 C    -1.44290   -1.14039   -1.40172
 20 C    -8.47212    2.16111   -8.63355
 21 C    -5.97832    3.41093   -5.84255
 22 C     1.13085    9.18914  -13.88278
 23 C    -6.37232    5.39196  -12.87697

System changes: positions 

Initializing position-dependent things.

Density initialized from wave functions
           .--------------------------------------.  
          /|                                      |  
         / |                                      |  
        /  |                                      |  
       /   |                                      |  
      /    |                                      |  
     /     |                                      |  
    /      |                                      |  
   /       |                                      |  
  /        |                                      |  
 *         |            C  C  C    C              |  
 |         |           C  C  C     C C            |  
 |         .----------C-------------C-------------.  
 |        /          C C  C        C             /   
 |       /            C      C  C  C            /    
 |      /                                      /     
 |     /                C  C  C  C            /      
 |    /                                      /       
 |   /                                      /        
 |  /                                      /         
 | /                                      /          
 |/                                      /           
 *--------------------------------------*            

Positions:
   0 C     10.320335    4.693519    4.422951
   1 C     11.433421    5.299409    4.176794
   2 C     12.276140    6.296133    4.100979
   3 C      9.059015    4.776883    4.788304
   4 C     12.561578    7.553447    4.219668
   5 C      7.889703    5.142372    5.157259
   6 C     12.339427    8.809867    4.505268
   7 C      7.140313    6.246016    5.461062
   8 C      8.472178    8.586708    5.772950
   9 C     11.612183    9.875266    4.836667
  10 C      9.531856    9.347353    5.531574
  11 C      7.471490    7.654195    5.762515
  12 C      9.140163    5.747104    1.737527
  13 C     10.249986    6.356246    1.484156
  14 C     11.155643    7.296749    1.551668
  15 C      8.023423    5.701344    2.432757
  16 C     11.603544    8.409224    2.039851
  17 C      7.042153    5.898398    3.229965
  18 C     11.580802    9.487855    2.778147
  19 C      6.591501    6.735461    4.214371
  20 C      7.937317    9.064182    4.556551
  21 C     11.119174   10.315562    3.713863
  22 C      9.044331    9.781901    4.424898
  23 C      6.992268    8.082576    4.673957

Unit cell:
           periodic     x           y           z      points  spacing
  1. axis:    yes   16.000000    0.000000    0.000000    80     0.2000
  2. axis:    yes    0.000000   16.000000    0.000000    80     0.2000
  3. axis:    yes    0.000000    0.000000   10.000000    48     0.2083

Effective grid spacing dv^(1/3) = 0.2027

                     log10-error:    total        iterations:
           time      wfs    density  energy       fermi  poisson
iter:   1  09:24:29          +inf  -169.908859    3      5      
iter:   2  09:24:30         -1.96  -169.846210    2      2      
iter:   3  09:24:31         -2.12  -169.808910    2      2      
iter:   4  09:24:32         -2.37  -169.805602    2      2      
iter:   5  09:24:32         -2.59  -169.803453    2      2      
iter:   6  09:24:33         -2.74  -169.802931    2      2      
iter:   7  09:24:34         -3.06  -169.801089    2      2      
iter:   8  09:24:35         -3.33  -169.800674    2      1      
iter:   9  09:24:35         -3.43  -169.800904    2      1      
iter:  10  09:24:36         -3.51  -169.802286    2      1      
iter:  11  09:24:37         -3.73  -169.800764    2      1      
iter:  12  09:24:37         -3.76  -169.800600    2      1      
iter:  13  09:24:38         -4.04  -169.800625    2      1      

Converged after 13 iterations.

Dipole moment: (-0.068774, -0.020546, -0.324779) |e|*Ang

Energy contributions relative to reference atoms: (reference = -24663.074771)

Kinetic:       +182.116553
Potential:     -165.997505
External:        +0.000000
XC:            -188.992171
Entropy (-ST):   -0.027879
Local:           +3.086438
--------------------------
Free energy:   -169.814564
Extrapolated:  -169.800625

Fermi level: -4.02842

 Band  Eigenvalues  Occupancy
    0    -26.00299    2.00000
    1    -23.58811    2.00000
    2    -22.53605    2.00000
    3    -21.12282    2.00000
    4    -20.32660    2.00000
    5    -20.09548    2.00000
    6    -19.41807    2.00000
    7    -19.30483    2.00000
    8    -18.47194    2.00000
    9    -18.37492    2.00000
   10    -17.28296    2.00000
   11    -17.17251    2.00000
   12    -16.41390    2.00000
   13    -16.04208    2.00000
   14    -15.72139    2.00000
   15    -14.91780    2.00000
   16    -14.60651    2.00000
   17    -13.90648    2.00000
   18    -13.70933    2.00000
   19    -13.29052    2.00000
   20    -12.98331    2.00000
   21    -12.75673    2.00000
   22    -11.92144    2.00000
   23    -11.80272    2.00000
   24    -11.27757    2.00000
   25    -10.36041    2.00000
   26    -10.22255    2.00000
   27    -10.20587    2.00000
   28     -9.81865    2.00000
   29     -9.53958    2.00000
   30     -8.95303    2.00000
   31     -8.77957    2.00000
   32     -8.72791    2.00000
   33     -8.47535    2.00000
   34     -8.08521    2.00000
   35     -8.07077    2.00000
   36     -7.76719    2.00000
   37     -7.58118    2.00000
   38     -6.64967    2.00000
   39     -6.59360    2.00000
   40     -6.52108    2.00000
   41     -6.01342    2.00000
   42     -5.94959    2.00000
   43     -5.24411    1.99999
   44     -4.93871    1.99978
   45     -4.77583    1.99887
   46     -4.77536    1.99886
   47     -4.47708    1.97773
   48     -3.58958    0.02454
   49     -3.11769    0.00022
   50     -2.85527    0.00002
   51     -2.62849    0.00000
   52     -2.36950    0.00000
   53     -2.26650    0.00000
   54     -1.61323    0.00000
   55     -1.57193    0.00000
   56     -0.80641    0.00000
   57     -0.53121    0.00000
   58     -0.31173    0.00000
   59     -0.05111    0.00000
   60     -0.01759    0.00000
   61      0.11138    0.00000
   62      0.48219    0.00000
   63      1.59424    0.00000
   64      2.29946    0.00000
   65      2.60717    0.00000
   66      3.05522    0.00000
   67      3.36140    0.00000
   68      3.66761    0.00000
   69      4.44090    0.00000
   70      5.19282    0.00000
   71      5.56895    0.00000
   72      6.41926    0.00000
   73      6.77930    0.00000
   74      6.96768    0.00000
   75      7.51556    0.00000
   76      7.89712    0.00000
   77      8.04932    0.00000
   78      8.08499    0.00000
   79      8.25148    0.00000
   80      8.44718    0.00000
   81      8.54660    0.00000
   82      8.69579    0.00000
   83      8.74012    0.00000
   84      9.08150    0.00000
   85      9.10891    0.00000
   86      9.28918    0.00000
   87      9.38392    0.00000
   88      9.45329    0.00000
   89      9.64095    0.00000
   90      9.78190    0.00000
   91      9.81293    0.00000
   92      9.89385    0.00000
   93      9.98227    0.00000
   94     10.00305    0.00000
   95     10.13339    0.00000
   96     10.19072    0.00000
   97     10.64065    0.00000


Forces in eV/Ang:
  0 C    -0.42500   -0.39089   -0.01197
  1 C     0.42097    0.38410    0.24401
  2 C     0.10797   -0.71039   -0.04492
  3 C     1.01272   -0.43988    0.94362
  4 C     0.19081    0.64644    1.94017
  5 C     0.62081   -0.85976    1.56863
  6 C     2.65784   -2.73094    1.32976
  7 C    -0.28300   -1.48716    0.69037
  8 C     1.05018   -3.59977    8.60571
  9 C    -0.26748   -2.03873    6.87199
 10 C     8.65001   -0.01730    6.96522
 11 C     4.14188   -4.69168   11.35226
 12 C    -0.38239   -0.39688    0.02540
 13 C     0.22798    0.55543   -0.17138
 14 C    -0.06795   -0.53707   -0.45682
 15 C    -0.01153    0.47033   -1.36682
 16 C    -0.97622    1.68667   -0.67282
 17 C    -0.81776    0.40592   -1.66805
 18 C     0.34200   -0.63716   -3.96908
 19 C    -1.03226   -0.78664   -1.02592
 20 C    -5.80622    2.49336   -6.92603
 21 C    -5.18538    2.35411   -4.33359
 22 C     1.62471    6.28480   -9.02768
 23 C    -5.68615    4.05135  -10.91066

System changes: positions 

Initializing position-dependent things.

Density initialized from wave functions
           .--------------------------------------.  
          /|                                      |  
         / |                                      |  
        /  |                                      |  
       /   |                                      |  
      /    |                                      |  
     /     |                                      |  
    /      |                                      |  
   /       |                                      |  
  /        |                                      |  
 *         |            C  C  C    C              |  
 |         |           C  C  C    C  C            |  
 |         .----------C-------------C-------------.  
 |        /          C C  C        C             /   
 |       /            C      C  C  C            /    
 |      /                                      /     
 |     /                C  C  C  C            /      
 |    /                                      /       
 |   /                                      /        
 |  /                                      /         
 | /                                      /          
 |/                                      /           
 *--------------------------------------*            

Positions:
   0 C     10.320528    4.689561    4.420832
   1 C     11.433831    5.300491    4.181597
   2 C     12.280825    6.292056    4.099257
   3 C      9.068950    4.772442    4.801188
   4 C     12.564869    7.550937    4.243219
   5 C      7.896259    5.129427    5.175662
   6 C     12.360180    8.801224    4.524137
   7 C      7.135737    6.234940    5.460829
   8 C      8.487621    8.591342    5.801178
   9 C     11.586005    9.855343    4.859421
  10 C      9.564020    9.357497    5.530174
  11 C      7.474495    7.647568    5.784266
  12 C      9.140739    5.743189    1.735770
  13 C     10.247264    6.360229    1.482217
  14 C     11.159029    7.293888    1.547145
  15 C      8.020959    5.708024    2.417449
  16 C     11.589742    8.421975    2.024953
  17 C      7.031418    5.900715    3.209124
  18 C     11.581304    9.497795    2.750388
  19 C      6.585447    6.726089    4.210732
  20 C      7.930755    9.088129    4.535609
  21 C     11.080795   10.306537    3.708696
  22 C      9.070509    9.797570    4.410313
  23 C      6.978139    8.091101    4.658360

Unit cell:
           periodic     x           y           z      points  spacing
  1. axis:    yes   16.000000    0.000000    0.000000    80     0.2000
  2. axis:    yes    0.000000   16.000000    0.000000    80     0.2000
  3. axis:    yes    0.000000    0.000000   10.000000    48     0.2083

Effective grid spacing dv^(1/3) = 0.2027

                     log10-error:    total        iterations:
           time      wfs    density  energy       fermi  poisson
iter:   1  09:24:41          +inf  -172.118625    2      5      
iter:   2  09:24:42         -1.98  -172.059130    2      2      
iter:   3  09:24:42         -2.10  -172.004008    2      2      
iter:   4  09:24:43         -2.33  -171.996912    2      2      
iter:   5  09:24:44         -2.56  -171.995380    2      2      
iter:   6  09:24:45         -2.74  -171.993971    2      2      
iter:   7  09:24:45         -2.88  -171.993660    2      2      
iter:   8  09:24:46         -3.20  -171.994292    1      1      
iter:   9  09:24:47         -3.26  -171.997745    2      1      
iter:  10  09:24:47         -3.46  -171.996519    1      1      
iter:  11  09:24:48         -3.68  -171.991595    2      1      
iter:  12  09:24:49         -3.82  -171.991781    2      1      
iter:  13  09:24:50         -3.96  -171.993278    1      1      
iter:  14  09:24:50         -4.21  -171.991120    1      1      

Converged after 14 iterations.

Dipole moment: (-0.075762, -0.011964, -0.321512) |e|*Ang

Energy contributions relative to reference atoms: (reference = -24663.074771)

Kinetic:       +159.922644
Potential:     -150.159428
External:        +0.000000
XC:            -184.793867
Entropy (-ST):   -0.016964
Local:           +3.048013
--------------------------
Free energy:   -171.999602
Extrapolated:  -171.991120

Fermi level: -4.03451

 Band  Eigenvalues  Occupancy
    0    -25.37898    2.00000
    1    -23.21041    2.00000
    2    -22.15362    2.00000
    3    -20.86002    2.00000
    4    -20.27611    2.00000
    5    -20.11437    2.00000
    6    -19.33673    2.00000
    7    -19.31012    2.00000
    8    -18.40474    2.00000
    9    -18.36372    2.00000
   10    -17.31457    2.00000
   11    -17.07041    2.00000
   12    -16.42515    2.00000
   13    -15.96719    2.00000
   14    -15.71883    2.00000
   15    -14.91970    2.00000
   16    -14.53426    2.00000
   17    -13.90398    2.00000
   18    -13.71018    2.00000
   19    -13.32206    2.00000
   20    -12.95785    2.00000
   21    -12.77260    2.00000
   22    -11.64452    2.00000
   23    -11.54535    2.00000
   24    -11.10473    2.00000
   25    -10.29764    2.00000
   26    -10.28799    2.00000
   27    -10.09475    2.00000
   28     -9.69557    2.00000
   29     -9.42778    2.00000
   30     -8.88525    2.00000
   31     -8.79129    2.00000
   32     -8.57283    2.00000
   33     -8.33889    2.00000
   34     -8.11653    2.00000
   35     -8.03099    2.00000
   36     -7.79649    2.00000
   37     -7.50527    2.00000
   38     -6.75876    2.00000
   39     -6.61701    2.00000
   40     -6.49051    2.00000
   41     -6.18160    2.00000
   42     -5.95743    2.00000
   43     -5.18729    1.99998
   44     -5.02088    1.99990
   45     -4.89339    1.99963
   46     -4.76928    1.99871
   47     -4.54794    1.98829
   48     -3.53371    0.01328
   49     -3.11802    0.00021
   50     -2.71699    0.00000
   51     -2.68779    0.00000
   52     -2.42081    0.00000
   53     -2.21763    0.00000
   54     -1.61092    0.00000
   55     -1.57023    0.00000
   56     -0.75663    0.00000
   57     -0.69823    0.00000
   58     -0.26966    0.00000
   59     -0.11573    0.00000
   60      0.00993    0.00000
   61      0.04540    0.00000
   62      0.47482    0.00000
   63      1.63367    0.00000
   64      1.93945    0.00000
   65      2.22332    0.00000
   66      2.77670    0.00000
   67      3.06872    0.00000
   68      3.42651    0.00000
   69      4.46102    0.00000
   70      5.11157    0.00000
   71      5.56208    0.00000
   72      6.12569    0.00000
   73      6.80235    0.00000
   74      6.98155    0.00000
   75      7.51555    0.00000
   76      7.71180    0.00000
   77      7.86196    0.00000
   78      8.09553    0.00000
   79      8.21706    0.00000
   80      8.54418    0.00000
   81      8.56860    0.00000
   82      8.59553    0.00000
   83      8.77315    0.00000
   84      9.02301    0.00000
   85      9.05350    0.00000
   86      9.35835    0.00000
   87      9.36095    0.00000
   88      9.54064    0.00000
   89      9.60271    0.00000
   90      9.75259    0.00000
   91      9.83315    0.00000
   92      9.84665    0.00000
   93     10.01082    0.00000
   94     10.07104    0.00000
   95     10.07613    0.00000
   96     10.26660    0.00000
   97     10.64744    0.00000


Forces in eV/Ang:
  0 C    -0.14532   -0.40773   -0.09166
  1 C     0.43260    0.45175    0.23589
  2 C     0.12069   -0.68421   -0.07201
  3 C     0.55282   -0.34263    0.97503
  4 C     0.20137    0.17969    1.68005
  5 C     0.51167   -0.69007    1.31724
  6 C     1.89196   -1.45982    1.30291
  7 C    -0.14718   -1.16111    0.53057
  8 C     0.41225   -2.64181    6.04378
  9 C    -0.82472   -2.01953    4.69631
 10 C     7.17092   -0.17719    5.73624
 11 C     3.25610   -3.03451    7.99285
 12 C    -0.15836   -0.39109   -0.11712
 13 C     0.28572    0.60980   -0.14763
 14 C    -0.03045   -0.52881   -0.44320
 15 C    -0.31698    0.45591   -1.03216
 16 C    -0.92146    1.17541   -0.82940
 17 C    -0.70117    0.36792   -1.36511
 18 C     0.14104    0.13640   -2.70617
 19 C    -0.72302   -0.62659   -0.84614
 20 C    -4.34900    1.58390   -4.70021
 21 C    -4.15828    0.97041   -2.90562
 22 C     1.28150    5.06206   -7.57019
 23 C    -3.70873    3.13822   -7.75194

System changes: positions 

Initializing position-dependent things.

Density initialized from wave functions
           .--------------------------------------.  
          /|                                      |  
         / |                                      |  
        /  |                                      |  
       /   |                                      |  
      /    |                                      |  
     /     |                                      |  
    /      |                                      |  
   /       |                                      |  
  /        |                                      |  
 *         |            C  C  C    C              |  
 |         |           C  C  C    C  C            |  
 |         .----------C-------------C-------------.  
 |        /          C C  C        C             /   
 |       /            C      C  C C             /    
 |      /                                      /     
 |     /                C  C  C  C            /      
 |    /                                      /       
 |   /                                      /        
 |  /                                      /         
 | /                                      /          
 |/                                      /           
 *--------------------------------------*            

Positions:
   0 C     10.322537    4.684605    4.418103
   1 C     11.435933    5.303654    4.186178
   2 C     12.285466    6.287428    4.097404
   3 C      9.074582    4.768553    4.815318
   4 C     12.568177    7.544541    4.265552
   5 C      7.902153    5.118449    5.192731
   6 C     12.376558    8.800635    4.543627
   7 C      7.133118    6.224884    5.461306
   8 C      8.497326    8.595841    5.821346
   9 C     11.556201    9.832796    4.873681
  10 C      9.598679    9.364133    5.534310
  11 C      7.480006    7.646203    5.799181
  12 C      9.142518    5.738546    1.732636
  13 C     10.246756    6.366138    1.480312
  14 C     11.162428    7.290529    1.542300
  15 C      8.014972    5.714858    2.404632
  16 C     11.575682    8.430983    2.008373
  17 C      7.021337    5.903724    3.190669
  18 C     11.580408    9.513244    2.730026
  19 C      6.580964    6.717928    4.206091
  20 C      7.925273    9.105863    4.522416
  21 C     11.044695   10.289754    3.708484
  22 C      9.093397    9.814386    4.389231
  23 C      6.971548    8.100250    4.647281

Unit cell:
           periodic     x           y           z      points  spacing
  1. axis:    yes   16.000000    0.000000    0.000000    80     0.2000
  2. axis:    yes    0.000000   16.000000    0.000000    80     0.2000
  3. axis:    yes    0.000000    0.000000   10.000000    48     0.2083

Effective grid spacing dv^(1/3) = 0.2027

                     log10-error:    total        iterations:
           time      wfs    density  energy       fermi  poisson
iter:   1  09:24:53          +inf  -173.601131    3      5      
iter:   2  09:24:54         -2.00  -173.547159    2      2      
iter:   3  09:24:55         -2.13  -173.499075    2      2      
iter:   4  09:24:55         -2.40  -173.493634    2      2      
iter:   5  09:24:56         -2.60  -173.492151    2      2      
iter:   6  09:24:57         -2.80  -173.498835    2      1      
iter:   7  09:24:57         -2.91  -173.491410    2      2      
iter:   8  09:24:58         -3.23  -173.488700    2      1      
iter:   9  09:24:59         -3.30  -173.494139    2      1      
iter:  10  09:25:00         -3.49  -173.490933    1      1      
iter:  11  09:25:00         -3.56  -173.489806    2      1      
iter:  12  09:25:01         -3.63  -173.494006    1      1      
iter:  13  09:25:02         -4.01  -173.489091    2      1      

Converged after 13 iterations.

Dipole moment: (-0.068494, 0.002793, -0.322942) |e|*Ang

Energy contributions relative to reference atoms: (reference = -24663.074771)

Kinetic:       +142.458352
Potential:     -137.534115
External:        +0.000000
XC:            -181.436221
Entropy (-ST):   -0.011111
Local:           +3.028448
--------------------------
Free energy:   -173.494646
Extrapolated:  -173.489091

Fermi level: -4.03284

 Band  Eigenvalues  Occupancy
    0    -24.88473    2.00000
    1    -22.84089    2.00000
    2    -21.94869    2.00000
    3    -20.66796    2.00000
    4    -20.23373    2.00000
    5    -20.12733    2.00000
    6    -19.35731    2.00000
    7    -19.21029    2.00000
    8    -18.42340    2.00000
    9    -18.27686    2.00000
   10    -17.34199    2.00000
   11    -16.97092    2.00000
   12    -16.42444    2.00000
   13    -15.90244    2.00000
   14    -15.71520    2.00000
   15    -14.92379    2.00000
   16    -14.48082    2.00000
   17    -13.86812    2.00000
   18    -13.71350    2.00000
   19    -13.34085    2.00000
   20    -12.92497    2.00000
   21    -12.77286    2.00000
   22    -11.44389    2.00000
   23    -11.36548    2.00000
   24    -10.93347    2.00000
   25    -10.29695    2.00000
   26    -10.23934    2.00000
   27    -10.00504    2.00000
   28     -9.58964    2.00000
   29     -9.33955    2.00000
   30     -8.81114    2.00000
   31     -8.79730    2.00000
   32     -8.45722    2.00000
   33     -8.17857    2.00000
   34     -8.14056    2.00000
   35     -8.01294    2.00000
   36     -7.81906    2.00000
   37     -7.45731    2.00000
   38     -6.95678    2.00000
   39     -6.71723    2.00000
   40     -6.39111    2.00000
   41     -6.32579    2.00000
   42     -5.90937    2.00000
   43     -5.14287    1.99997
   44     -5.06424    1.99993
   45     -4.98742    1.99986
   46     -4.76688    1.99870
   47     -4.60455    1.99344
   48     -3.47987    0.00790
   49     -3.10268    0.00018
   50     -2.78125    0.00001
   51     -2.54309    0.00000
   52     -2.44417    0.00000
   53     -2.16616    0.00000
   54     -1.65939    0.00000
   55     -1.52915    0.00000
   56     -0.81524    0.00000
   57     -0.72926    0.00000
   58     -0.27202    0.00000
   59     -0.21290    0.00000
   60      0.01782    0.00000
   61      0.03910    0.00000
   62      0.44362    0.00000
   63      1.60083    0.00000
   64      1.63648    0.00000
   65      1.94419    0.00000
   66      2.58060    0.00000
   67      2.92754    0.00000
   68      3.28743    0.00000
   69      4.44158    0.00000
   70      5.03448    0.00000
   71      5.49357    0.00000
   72      5.91090    0.00000
   73      6.81895    0.00000
   74      6.99714    0.00000
   75      7.48837    0.00000
   76      7.53415    0.00000
   77      7.70000    0.00000
   78      8.10570    0.00000
   79      8.16059    0.00000
   80      8.52101    0.00000
   81      8.59029    0.00000
   82      8.64544    0.00000
   83      8.80164    0.00000
   84      8.91244    0.00000
   85      9.00358    0.00000
   86      9.32939    0.00000
   87      9.38974    0.00000
   88      9.57228    0.00000
   89      9.65433    0.00000
   90      9.69210    0.00000
   91      9.82918    0.00000
   92      9.87482    0.00000
   93     10.03127    0.00000
   94     10.03164    0.00000
   95     10.14839    0.00000
   96     10.32146    0.00000
   97     10.61655    0.00000


Forces in eV/Ang:
  0 C    -0.03682   -0.34751   -0.10339
  1 C     0.09991    0.20942    0.27407
  2 C     0.29022   -0.49354   -0.09372
  3 C     0.62946   -0.32635    0.83619
  4 C     0.10009    0.48449    1.59523
  5 C     0.32695   -0.54601    1.18691
  6 C     1.55648   -1.29968    1.06039
  7 C    -0.06035   -0.67878    0.35813
  8 C     0.50241   -1.66986    4.32604
  9 C    -1.19115   -1.99787    3.75040
 10 C     5.45160   -0.06878    3.94413
 11 C     2.51842   -2.38683    6.00328
 12 C    -0.04531   -0.31900   -0.13763
 13 C    -0.04392    0.34883   -0.09804
 14 C     0.16266   -0.34892   -0.44300
 15 C    -0.22599    0.39759   -0.99082
 16 C    -0.84267    1.34644   -0.55919
 17 C    -0.66150    0.34702   -1.10641
 18 C     0.09536    0.02412   -2.25145
 19 C    -0.42651   -0.36459   -0.53468
 20 C    -2.92639    1.34132   -3.35784
 21 C    -3.77180    0.35107   -2.23069
 22 C     1.28015    3.66768   -5.52022
 23 C    -2.75191    2.29900   -5.95513

System changes: positions 

Initializing position-dependent things.

Density initialized from wave functions
           .--------------------------------------.  
          /|                                      |  
         / |                                      |  
        /  |                                      |  
       /   |                                      |  
      /    |                                      |  
     /     |                                      |  
    /      |                                      |  
   /       |                                      |  
  /        |                                      |  
 *         |            C  C  C    C              |  
 |         |           C  C  C    C  C            |  
 |         .----------C-------------C-------------.  
 |        /          C C  C        C             /   
 |       /            C      C  C C             /    
 |      /                                      /     
 |     /                C  C  C  C            /      
 |    /                                      /       
 |   /                                      /        
 |  /                                      /         
 | /                                      /          
 |/                                      /           
 *--------------------------------------*            

Positions:
   0 C     10.324952    4.680412    4.415629
   1 C     11.434753    5.304507    4.190848
   2 C     12.291277    6.283803    4.095523
   3 C      9.081583    4.764736    4.827247
   4 C     12.570061    7.544329    4.286602
   5 C      7.905942    5.109778    5.208135
   6 C     12.390742    8.797422    4.559310
   7 C      7.131757    6.219450    5.461278
   8 C      8.506608    8.602279    5.834828
   9 C     11.526862    9.809697    4.888023
  10 C      9.627104    9.369614    5.534714
  11 C      7.485332    7.644104    5.810619
  12 C      9.144772    5.734779    1.729689
  13 C     10.243206    6.369314    1.479057
  14 C     11.167076    7.288264    1.537159
  15 C      8.010658    5.720695    2.392221
  16 C     11.563264    8.443800    1.996759
  17 C      7.012053    5.906883    3.175646
  18 C     11.579659    9.523748    2.711731
  19 C      6.578877    6.712957    4.203661
  20 C      7.924226    9.120885    4.513940
  21 C     11.009037   10.272853    3.707086
  22 C      9.114375    9.826575    4.373370
  23 C      6.967122    8.106806    4.637163

Unit cell:
           periodic     x           y           z      points  spacing
  1. axis:    yes   16.000000    0.000000    0.000000    80     0.2000
  2. axis:    yes    0.000000   16.000000    0.000000    80     0.2000
  3. axis:    yes    0.000000    0.000000   10.000000    48     0.2083

Effective grid spacing dv^(1/3) = 0.2027

                     log10-error:    total        iterations:
           time      wfs    density  energy       fermi  poisson
iter:   1  09:25:05          +inf  -174.593595    2      5      
iter:   2  09:25:05         -2.09  -174.558190    2      2      
iter:   3  09:25:06         -2.21  -174.524782    2      2      
iter:   4  09:25:07         -2.44  -174.519727    1      2      
iter:   5  09:25:07         -2.65  -174.518494    2      2      
iter:   6  09:25:08         -2.88  -174.522635    2      1      
iter:   7  09:25:09         -2.98  -174.517774    2      2      
iter:   8  09:25:10         -3.31  -174.516308    1      1      
iter:   9  09:25:10         -3.37  -174.520024    2      1      
iter:  10  09:25:11         -3.56  -174.517593    1      1      
iter:  11  09:25:12         -3.62  -174.516849    1      1      
iter:  12  09:25:12         -3.70  -174.519850    1      1      
iter:  13  09:25:13         -4.07  -174.516158    1      1      

Converged after 13 iterations.

Dipole moment: (-0.068259, 0.014741, -0.322860) |e|*Ang

Energy contributions relative to reference atoms: (reference = -24663.074771)

Kinetic:       +129.509131
Potential:     -128.106953
External:        +0.000000
XC:            -178.937595
Entropy (-ST):   -0.008393
Local:           +3.023456
--------------------------
Free energy:   -174.520354
Extrapolated:  -174.516158

Fermi level: -4.03231

 Band  Eigenvalues  Occupancy
    0    -24.53303    2.00000
    1    -22.61094    2.00000
    2    -21.76780    2.00000
    3    -20.53568    2.00000
    4    -20.18244    2.00000
    5    -20.13655    2.00000
    6    -19.37074    2.00000
    7    -19.12234    2.00000
    8    -18.45038    2.00000
    9    -18.22875    2.00000
   10    -17.36355    2.00000
   11    -16.90180    2.00000
   12    -16.41216    2.00000
   13    -15.87012    2.00000
   14    -15.69396    2.00000
   15    -14.91999    2.00000
   16    -14.41548    2.00000
   17    -13.84386    2.00000
   18    -13.74880    2.00000
   19    -13.34444    2.00000
   20    -12.91184    2.00000
   21    -12.75975    2.00000
   22    -11.32108    2.00000
   23    -11.18308    2.00000
   24    -10.79892    2.00000
   25    -10.30883    2.00000
   26    -10.20075    2.00000
   27     -9.93014    2.00000
   28     -9.52442    2.00000
   29     -9.27231    2.00000
   30     -8.79937    2.00000
   31     -8.74819    2.00000
   32     -8.37491    2.00000
   33     -8.15940    2.00000
   34     -8.06565    2.00000
   35     -7.97941    2.00000
   36     -7.84902    2.00000
   37     -7.40851    2.00000
   38     -7.21260    2.00000
   39     -6.77773    2.00000
   40     -6.40465    2.00000
   41     -6.30238    2.00000
   42     -5.88389    2.00000
   43     -5.11035    1.99996
   44     -5.09180    1.99995
   45     -5.06702    1.99994
   46     -4.78537    1.99893
   47     -4.63994    1.99542
   48     -3.44556    0.00564
   49     -3.08636    0.00016
   50     -2.81986    0.00001
   51     -2.45741    0.00000
   52     -2.42913    0.00000
   53     -2.13597    0.00000
   54     -1.68481    0.00000
   55     -1.47714    0.00000
   56     -0.89152    0.00000
   57     -0.71218    0.00000
   58     -0.29180    0.00000
   59     -0.26194    0.00000
   60      0.00908    0.00000
   61      0.02998    0.00000
   62      0.41930    0.00000
   63      1.34779    0.00000
   64      1.63109    0.00000
   65      1.74470    0.00000
   66      2.46663    0.00000
   67      2.80206    0.00000
   68      3.22021    0.00000
   69      4.40778    0.00000
   70      4.95938    0.00000
   71      5.46104    0.00000
   72      5.71193    0.00000
   73      6.84120    0.00000
   74      6.99439    0.00000
   75      7.26178    0.00000
   76      7.52901    0.00000
   77      7.60664    0.00000
   78      8.10969    0.00000
   79      8.11635    0.00000
   80      8.46421    0.00000
   81      8.58579    0.00000
   82      8.71397    0.00000
   83      8.80996    0.00000
   84      8.81424    0.00000
   85      8.96810    0.00000
   86      9.30075    0.00000
   87      9.41556    0.00000
   88      9.55397    0.00000
   89      9.66902    0.00000
   90      9.74768    0.00000
   91      9.81881    0.00000
   92      9.93980    0.00000
   93     10.01118    0.00000
   94     10.04513    0.00000
   95     10.20138    0.00000
   96     10.36664    0.00000
   97     10.52235    0.00000


Forces in eV/Ang:
  0 C    -0.11701   -0.42451   -0.07705
  1 C     0.28438    0.39395    0.23473
  2 C     0.29817   -0.33949   -0.07610
  3 C     0.33719   -0.26304    0.84662
  4 C     0.05408   -0.01336    1.40791
  5 C     0.40134   -0.46378    0.97266
  6 C     1.11468   -0.63355    1.00977
  7 C     0.05819   -0.42532    0.27737
  8 C     0.42909   -1.16452    3.24418
  9 C    -1.43774   -1.97606    2.84807
 10 C     4.52307   -0.00936    2.91782
 11 C     2.08743   -1.83610    4.61976
 12 C    -0.16541   -0.38816   -0.11176
 13 C     0.16372    0.51040   -0.08514
 14 C     0.20050   -0.19940   -0.36050
 15 C    -0.34820    0.38761   -0.81294
 16 C    -0.88795    0.83916   -0.72009
 17 C    -0.48709    0.30649   -1.01552
 18 C    -0.01204    0.37140   -1.55650
 19 C    -0.23569   -0.16721   -0.41316
 20 C    -2.11655    1.09204   -2.48734
 21 C    -3.39509   -0.22262   -1.60937
 22 C     1.28415    2.87665   -4.36454
 23 C    -2.00961    1.77683   -4.68484

System changes: positions 

Initializing position-dependent things.

Density initialized from wave functions
           .--------------------------------------.  
          /|                                      |  
         / |                                      |  
        /  |                                      |  
       /   |                                      |  
      /    |                                      |  
     /     |                                      |  
    /      |                                      |  
   /       |                                      |  
  /        |                                      |  
 *         |            C  C  C    C              |  
 |         |           C  C  C    C  C            |  
 |         .----------C-------------C-------------.  
 |        /          C C  C        C             /   
 |       /                   C  C C             /    
 |      /             C                        /     
 |     /                C  C  C  C            /      
 |    /                                      /       
 |   /                                      /        
 |  /                                      /         
 | /                                      /          
 |/                                      /           
 *--------------------------------------*            

Positions:
   0 C     10.325571    4.675107    4.413743
   1 C     11.436470    5.308132    4.194874
   2 C     12.296812    6.281384    4.094000
   3 C      9.085544    4.761491    4.839301
   4 C     12.571263    7.539482    4.305786
   5 C      7.910953    5.102195    5.221302
   6 C     12.401471    8.798719    4.574252
   7 C      7.131953    6.216069    5.461398
   8 C      8.514939    8.608333    5.846018
   9 C     11.497170    9.785838    4.900233
  10 C      9.654452    9.374795    5.533723
  11 C      7.491225    7.642347    5.819875
  12 C      9.144769    5.729977    1.727371
  13 C     10.242882    6.374914    1.477919
  14 C     11.171674    7.287309    1.532812
  15 C      8.005185    5.726385    2.381514
  16 C     11.550302    8.451760    1.983905
  17 C      7.004881    5.909908    3.161387
  18 C     11.578127    9.536092    2.698610
  19 C      6.578187    6.710293    4.201515
  20 C      7.924244    9.134129    4.507051
  21 C     10.973797   10.254022    3.706608
  22 C      9.135241    9.837420    4.358972
  23 C      6.964686    8.112089    4.627861

Unit cell:
           periodic     x           y           z      points  spacing
  1. axis:    yes   16.000000    0.000000    0.000000    80     0.2000
  2. axis:    yes    0.000000   16.000000    0.000000    80     0.2000
  3. axis:    yes    0.000000    0.000000   10.000000    48     0.2083

Effective grid spacing dv^(1/3) = 0.2027

                     log10-error:    total        iterations:
           time      wfs    density  energy       fermi  poisson
iter:   1  09:25:16          +inf  -175.389921    2      5      
iter:   2  09:25:17         -2.12  -175.359584    2      2      
iter:   3  09:25:17         -2.22  -175.327304    2      2      
iter:   4  09:25:18         -2.49  -175.323083    2      2      
iter:   5  09:25:19         -2.67  -175.321916    2      2      
iter:   6  09:25:19         -2.93  -175.325412    2      1      
iter:   7  09:25:20         -3.05  -175.321005    2      2      
iter:   8  09:25:21         -3.35  -175.319840    1      1      
iter:   9  09:25:22         -3.42  -175.322842    2      1      
iter:  10  09:25:22         -3.60  -175.321121    1      1      
iter:  11  09:25:23         -3.67  -175.320494    1      1      
iter:  12  09:25:24         -3.75  -175.322723    1      1      
iter:  13  09:25:24         -4.13  -175.319873    1      1      

Converged after 13 iterations.

Dipole moment: (-0.064661, 0.028230, -0.323290) |e|*Ang

Energy contributions relative to reference atoms: (reference = -24663.074771)

Kinetic:       +118.764451
Potential:     -120.223683
External:        +0.000000
XC:            -176.877796
Entropy (-ST):   -0.006329
Local:           +3.020318
--------------------------
Free energy:   -175.323038
Extrapolated:  -175.319873

Fermi level: -4.02993

 Band  Eigenvalues  Occupancy
    0    -24.23930    2.00000
    1    -22.42837    2.00000
    2    -21.64313    2.00000
    3    -20.43635    2.00000
    4    -20.14257    2.00000
    5    -20.13529    2.00000
    6    -19.38932    2.00000
    7    -19.04215    2.00000
    8    -18.45796    2.00000
    9    -18.18970    2.00000
   10    -17.38352    2.00000
   11    -16.83402    2.00000
   12    -16.40043    2.00000
   13    -15.84683    2.00000
   14    -15.67587    2.00000
   15    -14.92520    2.00000
   16    -14.37225    2.00000
   17    -13.80748    2.00000
   18    -13.79546    2.00000
   19    -13.34569    2.00000
   20    -12.90434    2.00000
   21    -12.73820    2.00000
   22    -11.23516    2.00000
   23    -11.01575    2.00000
   24    -10.67877    2.00000
   25    -10.32160    2.00000
   26    -10.16586    2.00000
   27     -9.86367    2.00000
   28     -9.47770    2.00000
   29     -9.21531    2.00000
   30     -8.79992    2.00000
   31     -8.67344    2.00000
   32     -8.29866    2.00000
   33     -8.17135    2.00000
   34     -8.02370    2.00000
   35     -7.90947    2.00000
   36     -7.90639    2.00000
   37     -7.48075    2.00000
   38     -7.38843    2.00000
   39     -6.83389    2.00000
   40     -6.43937    2.00000
   41     -6.21332    2.00000
   42     -5.86208    2.00000
   43     -5.13866    1.99997
   44     -5.09102    1.99995
   45     -5.08105    1.99995
   46     -4.80733    1.99916
   47     -4.67387    1.99681
   48     -3.40866    0.00400
   49     -3.08316    0.00015
   50     -2.81267    0.00001
   51     -2.46302    0.00000
   52     -2.36219    0.00000
   53     -2.10526    0.00000
   54     -1.71993    0.00000
   55     -1.38368    0.00000
   56     -0.94099    0.00000
   57     -0.72093    0.00000
   58     -0.37258    0.00000
   59     -0.24340    0.00000
   60      0.00869    0.00000
   61      0.03078    0.00000
   62      0.37869    0.00000
   63      1.13397    0.00000
   64      1.57659    0.00000
   65      1.62119    0.00000
   66      2.37114    0.00000
   67      2.70694    0.00000
   68      3.18939    0.00000
   69      4.36348    0.00000
   70      4.88220    0.00000
   71      5.44354    0.00000
   72      5.53918    0.00000
   73      6.85497    0.00000
   74      6.98983    0.00000
   75      7.03644    0.00000
   76      7.53386    0.00000
   77      7.54703    0.00000
   78      8.05048    0.00000
   79      8.12781    0.00000
   80      8.40672    0.00000
   81      8.57703    0.00000
   82      8.73451    0.00000
   83      8.76496    0.00000
   84      8.83990    0.00000
   85      8.94755    0.00000
   86      9.27441    0.00000
   87      9.41702    0.00000
   88      9.54180    0.00000
   89      9.63497    0.00000
   90      9.79886    0.00000
   91      9.81925    0.00000
   92      9.99742    0.00000
   93     10.02857    0.00000
   94     10.06245    0.00000
   95     10.25217    0.00000
   96     10.40049    0.00000
   97     10.45213    0.00000


Forces in eV/Ang:
  0 C     0.15067   -0.28353   -0.11806
  1 C    -0.08371    0.14195    0.27466
  2 C     0.38191   -0.25860   -0.08157
  3 C     0.38323   -0.26957    0.75442
  4 C    -0.00953    0.25243    1.38040
  5 C     0.20744   -0.31338    0.89706
  6 C     0.87137   -0.62787    0.76506
  7 C     0.16674   -0.26831    0.18515
  8 C     0.35968   -0.73518    2.31596
  9 C    -1.70357   -1.91989    2.29003
 10 C     3.80134    0.01083    2.14298
 11 C     1.76951   -1.43563    3.58220
 12 C     0.14580   -0.23533   -0.21309
 13 C    -0.19700    0.25479   -0.00351
 14 C     0.26619   -0.14482   -0.36210
 15 C    -0.30070    0.35153   -0.76088
 16 C    -0.82714    1.00646   -0.48861
 17 C    -0.51101    0.32900   -0.77190
 18 C    -0.04008    0.18514   -1.29983
 19 C    -0.06241   -0.05571   -0.34433
 20 C    -1.44109    0.88312   -1.75858
 21 C    -3.17516   -0.56152   -1.15032
 22 C     1.30315    2.23247   -3.47352
 23 C    -1.45513    1.40214   -3.72950

System changes: positions 

Initializing position-dependent things.

Density initialized from wave functions
           .--------------------------------------.  
          /|                                      |  
         / |                                      |  
        /  |                                      |  
       /   |                                      |  
      /    |                                      |  
     /     |                                      |  
    /      |                                      |  
   /       |                                      |  
  /        |                  C                   |  
 *         |            C  C       C              |  
 |         |           C  C  C    C  C            |  
 |         .----------C-------------C-------------.  
 |        /          C C  C        C             /   
 |       /                   C  C C             /    
 |      /             C                        /     
 |     /                C  C  C  C            /      
 |    /                                      /       
 |   /                                      /        
 |  /                                      /         
 | /                                      /          
 |/                                      /           
 *--------------------------------------*            

Positions:
[...]
External:        +0.000000
XC:            -175.804435
Entropy (-ST):   -0.277001
Local:           +3.045094
--------------------------
Free energy:   -180.700082
Extrapolated:  -180.561581

Fermi level: -4.21881

 Band  Eigenvalues  Occupancy
    0    -23.71578    2.00000
    1    -22.36747    2.00000
    2    -20.74301    2.00000
    3    -20.51849    2.00000
    4    -20.25527    2.00000
    5    -19.74805    2.00000
    6    -19.68388    2.00000
    7    -18.91170    2.00000
    8    -18.24802    2.00000
    9    -18.23889    2.00000
   10    -17.91996    2.00000
   11    -16.83260    2.00000
   12    -16.57589    2.00000
   13    -15.75883    2.00000
   14    -15.68208    2.00000
   15    -15.66855    2.00000
   16    -14.22099    2.00000
   17    -13.96070    2.00000
   18    -13.91425    2.00000
   19    -13.42807    2.00000
   20    -12.69230    2.00000
   21    -12.56873    2.00000
   22    -11.50433    2.00000
   23    -10.95405    2.00000
   24    -10.85989    2.00000
   25    -10.60800    2.00000
   26     -9.76214    2.00000
   27     -9.74264    2.00000
   28     -9.50882    2.00000
   29     -9.08151    2.00000
   30     -9.05171    2.00000
   31     -8.97442    2.00000
   32     -8.91486    2.00000
   33     -8.09049    2.00000
   34     -7.82021    2.00000
   35     -7.72909    2.00000
   36     -7.65725    2.00000
   37     -7.50289    2.00000
   38     -7.41743    2.00000
   39     -7.26108    2.00000
   40     -6.93487    2.00000
   41     -6.28963    2.00000
   42     -5.55332    2.00000
   43     -5.40610    1.99999
   44     -5.26703    1.99994
   45     -5.12506    1.99977
   46     -5.06118    1.99956
   47     -4.23302    1.07095
   48     -4.20474    0.92979
   49     -2.86493    0.00000
   50     -2.73821    0.00000
   51     -2.58885    0.00000
   52     -2.31840    0.00000
   53     -1.52829    0.00000
   54     -1.27779    0.00000
   55     -1.08265    0.00000
   56     -0.86694    0.00000
   57     -0.52357    0.00000
   58     -0.34639    0.00000
   59     -0.09790    0.00000
   60      0.25208    0.00000
   61      0.61769    0.00000
   62      0.76106    0.00000
   63      1.57621    0.00000
   64      1.60309    0.00000
   65      1.73385    0.00000
   66      3.59526    0.00000
   67      3.82126    0.00000
   68      3.90937    0.00000
   69      4.07026    0.00000
   70      4.16839    0.00000
   71      6.39582    0.00000
   72      6.86085    0.00000
   73      7.13005    0.00000
   74      7.26818    0.00000
   75      7.50716    0.00000
   76      7.66704    0.00000
   77      7.76744    0.00000
   78      7.94249    0.00000
   79      8.03274    0.00000
   80      8.38799    0.00000
   81      8.57558    0.00000
   82      8.72097    0.00000
   83      8.84002    0.00000
   84      8.92037    0.00000
   85      8.96662    0.00000
   86      9.17921    0.00000
   87      9.23024    0.00000
   88      9.45199    0.00000
   89      9.50002    0.00000
   90      9.56673    0.00000
   91      9.76337    0.00000
   92      9.81102    0.00000
   93     10.05655    0.00000
   94     10.14113    0.00000
   95     10.19972    0.00000
   96     10.25911    0.00000
   97     10.30434    0.00000


Forces in eV/Ang:
  0 C     0.01622   -0.05359    0.01502
  1 C     0.02351   -0.03087    0.02360
  2 C     0.04434    0.04805    0.07979
  3 C    -0.03171    0.00408   -0.04170
  4 C     0.02771   -0.05514   -0.03401
  5 C    -0.07149   -0.00464    0.02413
  6 C    -0.10808    0.06814    0.04970
  7 C     0.04024    0.02748   -0.00438
  8 C     0.06619    0.00233   -0.07956
  9 C    -0.05539    0.00855   -0.00495
 10 C     0.00933   -0.00283   -0.03913
 11 C    -0.01260   -0.03374    0.07854
 12 C     0.01544   -0.03363    0.07031
 13 C    -0.06330   -0.03391   -0.01734
 14 C     0.02920    0.04600   -0.06262
 15 C    -0.03316   -0.00166    0.02600
 16 C     0.02769   -0.03524   -0.04834
 17 C    -0.06631   -0.00592   -0.02166
 18 C    -0.04178    0.06550    0.05919
 19 C     0.04975   -0.00650   -0.06844
 20 C     0.10964   -0.00581   -0.01010
 21 C    -0.02075    0.04825    0.06776
 22 C     0.02723   -0.02292    0.03204
 23 C    -0.01160    0.04623    0.00476

System changes: positions 

Initializing position-dependent things.

Density initialized from wave functions
           .--------------------------------------.  
          /|                                      |  
         / |                                      |  
        /  |                                      |  
       /   |                                      |  
      /    |                C                     |  
     /     |                                      |  
    /      |                                      |  
   /       |                                      |  
  /        |                C                     |  
 *         |             C     C                  |  
 |         |              C   C   C C             |  
 |         .------------CC-C--C--C----------------.  
 |        /            C          C              /   
 |       /                                      /    
 |      /              C         C             /     
 |     /               C                      /      
 |    /                        C             /       
 |   /                   C                  /        
 |  /                                      /         
 | /                                      /          
 |/                                      /           
 *--------------------------------------*            

Positions:
   0 C     10.832815    4.195395    6.160026
   1 C     11.954064    4.861421    6.153429
   2 C     12.812081    5.805957    5.879504
   3 C      9.558023    4.523876    5.960019
   4 C     12.692105    7.089644    5.550422
   5 C      8.496806    5.117837    5.569233
   6 C     12.244911    8.200118    5.107956
   7 C      7.748502    6.217555    5.225628
   8 C      8.658816    8.774185    5.876855
   9 C     11.237553    9.086435    4.810286
  10 C      9.928904    9.344269    5.494227
  11 C      7.807242    7.617019    5.753497
  12 C      8.229387    6.546532    0.267904
  13 C      9.204805    7.345933   -0.068651
  14 C     10.206240    8.176136    0.037763
  15 C      7.585093    6.334806    1.415206
  16 C     10.676502    8.897924    1.054149
  17 C      7.235650    6.291913    2.643647
  18 C     10.938793    9.371270    2.209937
  19 C      7.190523    6.728408    3.948003
  20 C      8.066884    9.305274    4.549936
  21 C     10.664505    9.599666    3.539816
  22 C      9.362683    9.854682    4.232767
  23 C      7.244258    8.123979    4.485328

Unit cell:
           periodic     x           y           z      points  spacing
  1. axis:    yes   16.000000    0.000000    0.000000    80     0.2000
  2. axis:    yes    0.000000   16.000000    0.000000    80     0.2000
  3. axis:    yes    0.000000    0.000000   10.000000    48     0.2083

Effective grid spacing dv^(1/3) = 0.2027

                     log10-error:    total        iterations:
           time      wfs    density  energy       fermi  poisson
iter:   1  09:39:34          +inf  -180.565639    2      5      
iter:   2  09:39:34         -2.77  -180.564313    2      1      
iter:   3  09:39:35         -2.85  -180.562391    2      1      
iter:   4  09:39:35         -3.08  -180.562764    2      1      
iter:   5  09:39:36         -3.16  -180.561521    2      1      
iter:   6  09:39:36         -3.36  -180.563743    2      2      
iter:   7  09:39:37         -3.15  -180.564151    2      1      
iter:   8  09:39:38         -3.78  -180.563591    2      1      
iter:   9  09:39:38         -3.85  -180.563301    2      1      
iter:  10  09:39:39         -3.97  -180.563615    2      1      
iter:  11  09:39:39         -4.15  -180.563365    2      1      

Converged after 11 iterations.

Dipole moment: (-0.039162, 0.047666, -16.012777) |e|*Ang

Energy contributions relative to reference atoms: (reference = -24663.074771)

Kinetic:       +102.033648
Potential:     -109.733430
External:        +0.000000
XC:            -175.779479
Entropy (-ST):   -0.275797
Local:           +3.053794
--------------------------
Free energy:   -180.701264
Extrapolated:  -180.563365

Fermi level: -4.20360

 Band  Eigenvalues  Occupancy
    0    -23.72577    2.00000
    1    -22.36834    2.00000
    2    -20.73308    2.00000
    3    -20.50439    2.00000
    4    -20.24429    2.00000
    5    -19.73608    2.00000
    6    -19.67311    2.00000
    7    -18.90760    2.00000
    8    -18.24100    2.00000
    9    -18.23267    2.00000
   10    -17.90636    2.00000
   11    -16.84488    2.00000
   12    -16.56759    2.00000
   13    -15.75639    2.00000
   14    -15.68765    2.00000
   15    -15.67462    2.00000
   16    -14.22237    2.00000
   17    -13.96197    2.00000
   18    -13.91030    2.00000
   19    -13.43280    2.00000
   20    -12.69276    2.00000
   21    -12.57319    2.00000
   22    -11.51168    2.00000
   23    -10.95959    2.00000
   24    -10.85852    2.00000
   25    -10.61761    2.00000
   26     -9.76207    2.00000
   27     -9.74391    2.00000
   28     -9.50621    2.00000
   29     -9.07432    2.00000
   30     -9.04424    2.00000
   31     -8.96376    2.00000
   32     -8.90515    2.00000
   33     -8.08459    2.00000
   34     -7.81270    2.00000
   35     -7.72723    2.00000
   36     -7.65195    2.00000
   37     -7.49948    2.00000
   38     -7.40651    2.00000
   39     -7.25669    2.00000
   40     -6.93689    2.00000
   41     -6.28929    2.00000
   42     -5.55445    2.00000
   43     -5.39626    1.99999
   44     -5.26005    1.99995
   45     -5.13533    1.99982
   46     -5.05799    1.99961
   47     -4.22424    1.10284
   48     -4.18308    0.89779
   49     -2.86894    0.00000
   50     -2.73649    0.00000
   51     -2.59370    0.00000
   52     -2.32210    0.00000
   53     -1.52615    0.00000
   54     -1.29019    0.00000
   55     -1.10518    0.00000
   56     -0.86543    0.00000
   57     -0.53901    0.00000
   58     -0.36150    0.00000
   59     -0.08504    0.00000
   60      0.24574    0.00000
   61      0.64601    0.00000
   62      0.78817    0.00000
   63      1.56147    0.00000
   64      1.59504    0.00000
   65      1.73126    0.00000
   66      3.64028    0.00000
   67      3.86417    0.00000
   68      3.90854    0.00000
   69      4.08511    0.00000
   70      4.17786    0.00000
   71      6.42715    0.00000
   72      6.86555    0.00000
   73      7.16456    0.00000
   74      7.29655    0.00000
   75      7.51332    0.00000
   76      7.66650    0.00000
   77      7.77054    0.00000
   78      7.94076    0.00000
   79      8.06750    0.00000
   80      8.39853    0.00000
   81      8.59020    0.00000
   82      8.74115    0.00000
   83      8.84988    0.00000
   84      8.91697    0.00000
   85      8.98637    0.00000
   86      9.18227    0.00000
   87      9.23523    0.00000
   88      9.44285    0.00000
   89      9.50400    0.00000
   90      9.56282    0.00000
   91      9.75674    0.00000
   92      9.78590    0.00000
   93     10.05355    0.00000
   94     10.14421    0.00000
   95     10.20712    0.00000
   96     10.24759    0.00000
   97     10.29313    0.00000


Forces in eV/Ang:
  0 C    -0.10886   -0.02902   -0.01216
  1 C    -0.01017   -0.00473    0.00701
  2 C     0.04253    0.08968    0.05271
  3 C     0.12390   -0.03123   -0.03249
  4 C     0.03378   -0.18273    0.02710
  5 C    -0.05056    0.01057    0.03860
  6 C    -0.10860    0.13117   -0.03468
  7 C     0.03054    0.00120    0.03725
  8 C     0.04128    0.00512   -0.07447
  9 C    -0.00255    0.02610   -0.01551
 10 C     0.00412    0.00015    0.03192
 11 C    -0.00029   -0.01257   -0.00038
 12 C    -0.01289   -0.02939    0.07760
 13 C    -0.03157    0.01954    0.03087
 14 C     0.02874    0.03869   -0.01142
 15 C    -0.00259   -0.01041    0.01202
 16 C    -0.01602   -0.06456   -0.10945
 17 C    -0.05064    0.01935   -0.03273
 18 C    -0.01899    0.05252    0.11786
 19 C    -0.00597    0.03100   -0.04904
 20 C     0.06028   -0.03971    0.03220
 21 C     0.01787    0.02463   -0.01439
 22 C     0.00982    0.01501   -0.01630
 23 C     0.00205   -0.00240    0.02864

System changes: positions 

Initializing position-dependent things.

Density initialized from wave functions
           .--------------------------------------.  
          /|                                      |  
         / |                                      |  
        /  |                                      |  
       /   |                                      |  
      /    |                C                     |  
     /     |                                      |  
    /      |                                      |  
   /       |                                      |  
  /        |                C                     |  
 *         |             C     C                  |  
 |         |              C   C   C C             |  
 |         .------------CC-C--C--C----------------.  
 |        /            C          C              /   
 |       /                                      /    
 |      /              C         C             /     
 |     /               C                      /      
 |    /                        C             /       
 |   /                   C                  /        
 |  /                                      /         
 | /                                      /          
 |/                                      /           
 *--------------------------------------*            

Positions:
   0 C     10.831326    4.197048    6.158153
   1 C     11.953009    4.862726    6.152629
   2 C     12.812668    5.807365    5.880039
   3 C      9.557277    4.523861    5.958963
   4 C     12.691639    7.088661    5.549041
   5 C      8.494381    5.116561    5.570490
   6 C     12.246313    8.202567    5.107393
   7 C      7.746610    6.215988    5.225624
   8 C      8.660700    8.772063    5.875417
   9 C     11.238754    9.088049    4.810346
  10 C      9.929085    9.344060    5.493956
  11 C      7.807611    7.616001    5.752814
  12 C      8.231045    6.545475    0.271668
  13 C      9.203755    7.348027   -0.066277
  14 C     10.208157    8.175959    0.039229
  15 C      7.584107    6.334058    1.416209
  16 C     10.678040    8.897538    1.054212
  17 C      7.231782    6.290521    2.643585
  18 C     10.940324    9.372415    2.210651
  19 C      7.189078    6.727239    3.947989
  20 C      8.068214    9.303727    4.548863
  21 C     10.666022    9.602430    3.539924
  22 C      9.363350    9.854113    4.232608
  23 C      7.245216    8.122976    4.485097

Unit cell:
           periodic     x           y           z      points  spacing
  1. axis:    yes   16.000000    0.000000    0.000000    80     0.2000
  2. axis:    yes    0.000000   16.000000    0.000000    80     0.2000
  3. axis:    yes    0.000000    0.000000   10.000000    48     0.2083

Effective grid spacing dv^(1/3) = 0.2027

                     log10-error:    total        iterations:
           time      wfs    density  energy       fermi  poisson
iter:   1  09:39:41          +inf  -180.565043    2      4      
iter:   2  09:39:42         -3.26  -180.564936    2      1      
iter:   3  09:39:43         -3.36  -180.564813    2      1      
iter:   4  09:39:43         -3.58  -180.564818    2      1      
iter:   5  09:39:44         -3.70  -180.564862    1      1      
iter:   6  09:39:44         -3.88  -180.564856    2      1      
iter:   7  09:39:45         -3.96  -180.564873    2      1      
iter:   8  09:39:45         -4.30  -180.564857    2      1      

Converged after 8 iterations.

Dipole moment: (-0.038590, 0.044772, -16.226493) |e|*Ang

Energy contributions relative to reference atoms: (reference = -24663.074771)

Kinetic:       +102.111347
Potential:     -109.794026
External:        +0.000000
XC:            -175.804237
Entropy (-ST):   -0.275786
Local:           +3.059952
--------------------------
Free energy:   -180.702750
Extrapolated:  -180.564857

Fermi level: -4.20543

 Band  Eigenvalues  Occupancy
    0    -23.72590    2.00000
    1    -22.36723    2.00000
    2    -20.73385    2.00000
    3    -20.50683    2.00000
    4    -20.24560    2.00000
    5    -19.73844    2.00000
    6    -19.67618    2.00000
    7    -18.90523    2.00000
    8    -18.23946    2.00000
    9    -18.23508    2.00000
   10    -17.91093    2.00000
   11    -16.84346    2.00000
   12    -16.56649    2.00000
   13    -15.75977    2.00000
   14    -15.68368    2.00000
   15    -15.67668    2.00000
   16    -14.22168    2.00000
   17    -13.96444    2.00000
   18    -13.91321    2.00000
   19    -13.43344    2.00000
   20    -12.69487    2.00000
   21    -12.57559    2.00000
   22    -11.50953    2.00000
   23    -10.95770    2.00000
   24    -10.85461    2.00000
   25    -10.61701    2.00000
   26     -9.76052    2.00000
   27     -9.74511    2.00000
   28     -9.50556    2.00000
   29     -9.07471    2.00000
   30     -9.04759    2.00000
   31     -8.96469    2.00000
   32     -8.90821    2.00000
   33     -8.08634    2.00000
   34     -7.81486    2.00000
   35     -7.73003    2.00000
   36     -7.65159    2.00000
   37     -7.50212    2.00000
   38     -7.40856    2.00000
   39     -7.24955    2.00000
   40     -6.93451    2.00000
   41     -6.28484    2.00000
   42     -5.54820    2.00000
   43     -5.39827    1.99999
   44     -5.26379    1.99995
   45     -5.13227    1.99981
   46     -5.05440    1.99959
   47     -4.22626    1.10375
   48     -4.18474    0.89692
   49     -2.86261    0.00000
   50     -2.73121    0.00000
   51     -2.59516    0.00000
   52     -2.31806    0.00000
   53     -1.52779    0.00000
   54     -1.29028    0.00000
   55     -1.10253    0.00000
   56     -0.86801    0.00000
   57     -0.53171    0.00000
   58     -0.35613    0.00000
   59     -0.08739    0.00000
   60      0.24086    0.00000
   61      0.64032    0.00000
   62      0.78057    0.00000
   63      1.56286    0.00000
   64      1.59476    0.00000
   65      1.73550    0.00000
   66      3.63822    0.00000
   67      3.86627    0.00000
   68      3.90693    0.00000
   69      4.09042    0.00000
   70      4.17803    0.00000
   71      6.42915    0.00000
   72      6.86811    0.00000
   73      7.17900    0.00000
   74      7.29340    0.00000
   75      7.51866    0.00000
   76      7.66672    0.00000
   77      7.77330    0.00000
   78      7.94276    0.00000
   79      8.06271    0.00000
   80      8.40655    0.00000
   81      8.59180    0.00000
   82      8.74039    0.00000
   83      8.85032    0.00000
   84      8.91963    0.00000
   85      8.98702    0.00000
   86      9.18365    0.00000
   87      9.23367    0.00000
   88      9.44947    0.00000
   89      9.50549    0.00000
   90      9.56557    0.00000
   91      9.75805    0.00000
   92      9.78896    0.00000
   93     10.05412    0.00000
   94     10.14463    0.00000
   95     10.20865    0.00000
   96     10.25095    0.00000
   97     10.29618    0.00000


Forces in eV/Ang:
  0 C    -0.01724   -0.01670    0.00158
  1 C    -0.01141   -0.00915    0.00260
  2 C     0.02020   -0.00429    0.07337
  3 C     0.05112   -0.00916   -0.04444
  4 C    -0.01254    0.00823   -0.02712
  5 C    -0.04244   -0.00752    0.03224
  6 C    -0.04129    0.00635    0.00283
  7 C     0.02787    0.01544    0.03439
  8 C     0.01445   -0.00106   -0.05479
  9 C    -0.01533    0.03523   -0.01102
 10 C     0.05062    0.00073    0.03065
 11 C     0.00672   -0.02290    0.00553
 12 C     0.03589    0.01522    0.01044
 13 C    -0.02115    0.00677    0.02697
 14 C    -0.02749   -0.01462   -0.05360
 15 C    -0.02711   -0.02122    0.04583
 16 C     0.02168    0.00602    0.00550
 17 C    -0.05031    0.00841   -0.00767
 18 C    -0.01408    0.02983    0.04348
 19 C    -0.01441    0.02709   -0.04783
 20 C     0.04316   -0.03250    0.03099
 21 C     0.00631    0.01257   -0.01039
 22 C     0.02131    0.03000   -0.03117
 23 C     0.00119   -0.01176    0.01152

