
  ___ ___ ___ _ _ _  
 |   |   |_  | | | | 
 | | | | | . | | | | 
 |__ |  _|___|_____|  1.3.0b1
 |___|_|             

User:   esb@s66n63.grendel.cscaa.dk
Date:   Wed Nov  8 14:13:03 2017
Arch:   x86_64
Pid:    109049
Python: 2.7.13
gpaw:   /home/esb/DFT/gpaw_git/gpaw
_gpaw:  /home/esb/DFT/gpaw_git/build/bin.linux-x86_64-2.7/gpaw-python
ase:    /home/esb/DFT/ase_git/ase (version 3.15.0b1)
numpy:  /comm/swstack/core/python/2.7.13/lib/python2.7/site-packages/numpy (version 1.13.3)
scipy:  /comm/swstack/core/python/2.7.13/lib/python2.7/site-packages/scipy (version 0.19.1)
units:  Angstrom and eV
cores:  16
Extra parameters: {'blacs': True}

Input parameters:
  basis: dzp
  gpts: [80 80 48]
  kpts: [1 1 1]
  maxiter: 99
  mixer: {backend: pulay,
          beta: 0.05,
          method: separate,
          nmaxold: 5,
          weight: 75}
  mode: lcao
  nbands: -50
  occupations: {name: fermi-dirac,
                width: 0.1}
  poissonsolver: {eps: 1e-07,
                  name: fd,
                  nn: 3,
                  relax: GS}
  xc: PBE

System changes: positions, numbers, cell, pbc, initial_charges, initial_magmoms 

Initialize ...

C-setup:
  name: Carbon
  id: 4aa54d4b901d75f77cc0ea3eec22967b
  Z: 6
  valence: 4
  core: 2
  charge: 0.0
  file: /home/esb/DFT/gpaw-setups-0.8.7929/C.PBE.gz
  cutoffs: 0.64(comp), 1.14(filt), 1.14(core), lmax=2
  valence states:
                energy  radius
    2s(2.00)   -13.751   0.635
    2p(2.00)    -5.284   0.635
    *s          13.461   0.635
    *p          21.927   0.635
    *d           0.000   0.635

  LCAO basis set for C:
    Name: dzp
    File: /home/esb/DFT/gpaw-setups-0.8.7929/C.dzp.basis.gz
    Number of radial functions: 5
    Number of spherical harmonics: 13
      l=0, rc=5.5469 Bohr: 2s-sz confined orbital
      l=1, rc=6.6719 Bohr: 2p-sz confined orbital
      l=0, rc=3.0312 Bohr: 2s-dz split-valence wave
      l=1, rc=3.7500 Bohr: 2p-dz split-valence wave
      l=2, rc=6.6719 Bohr: d-type Gaussian polarization

Reference energy: -24663.074771

Spin-paired calculation

Occupation numbers:
  Fermi-Dirac: width=0.1000 eV

Convergence criteria:
  Maximum total energy change: 0.0005 eV / electron
  Maximum integral of absolute density change: 0.0001 electrons
  Maximum integral of absolute eigenstate change: 4e-08 eV^2
  Maximum number of iterations: 99

Symmetries present (total): 1

  ( 1  0  0)
  ( 0  1  0)
  ( 0  0  1)

1 k-point (Gamma)
1 k-point in the irreducible part of the Brillouin zone
       k-points in crystal coordinates                weights
   0:     0.00000000    0.00000000    0.00000000          1/1

Wave functions: LCAO
  Diagonalizer: Serial LAPACK
  Atomic Correction: dense with blas
  Datatype: float
  Eigensolver: None 

LCAO using direct dense diagonalizer 

Densities:
  Coarse grid: 80*80*48 grid
  Fine grid: 160*160*96 grid
  Total Charge: 0.000000 

Density mixing:
  Method: separate
  Backend: pulay
  Linear mixing parameter: 0.05
  Mixing with 5 old densities
  Damping of long wave oscillations: 75 

Hamiltonian:
  XC and Coulomb potentials evaluated on a 160*160*96 grid
  Using the PBE Exchange-Correlation functional
  Interpolation: tri-quintic (5. degree polynomial)
  Poisson solver: Gauss-Seidel solver with 6 multi-grid levels
    Coarsest grid: 5 x 5 x 3 points
    Stencil: 6*3+1=19 point O(h^6) finite-difference Laplacian
    Max iterations: 1000
    Tolerance: 1.000000e-07 

Memory estimate:
  Process memory now: 77.59 MiB
  Calculator: 15.59 MiB
    Density: 6.13 MiB
      Arrays: 3.81 MiB
      Localized functions: 0.86 MiB
      Mixer: 1.46 MiB
    Hamiltonian: 5.40 MiB
      Arrays: 2.49 MiB
      XC: 0.00 MiB
      Poisson: 2.85 MiB
      vbar: 0.07 MiB
    Wavefunctions: 4.05 MiB
      C [qnM]: 0.23 MiB
      S, T [2 x qmm]: 1.49 MiB
      P [aqMi]: 0.01 MiB
      TCI: 0.00 MiB
      BasisFunctions: 2.33 MiB
      Eigensolver: 0.00 MiB

Total number of cores used: 16
Domain decomposition: 2 x 4 x 2

Number of atoms: 24
Number of atomic orbitals: 312
Number of bands in calculation: 98
Bands to converge: occupied states only
Number of valence electrons: 96

... initialized

Initializing position-dependent things.

Density initialized from atomic densities
           .--------------------------------------.  
          /|                                      |  
         / |                                      |  
        /  |                                      |  
       /   |                                      |  
      /    |                                      |  
     /     |                                      |  
    /      |                                      |  
   /       |            C                         |  
  /        |       C  C  C        C               |  
 *         |    CC          C C  C                |  
 |         |   C   C         C     C              |  
 |         .----C-C---C-------C--C----------------.  
 |        /    C C  CC    C                      /   
 |       /                                      /    
 |      /                                      /     
 |     /                                      /      
 |    /                                      /       
 |   /                                      /        
 |  /                                      /         
 | /                                      /          
 |/                                      /           
 *--------------------------------------*            

Positions:
   0 C      5.573699   11.335846    4.762316
   1 C     11.662638    6.439022    4.665766
   2 C      6.905127    6.493701    4.601492
   3 C     10.550584    5.573510    5.574356
   4 C      3.469411    9.215445    4.301494
   5 C      4.208322    5.431912    4.824023
   6 C      6.755716    4.191374    5.631670
   7 C     10.713802    9.619925    4.603102
   8 C     11.838194    8.375749    4.629251
   9 C      6.642739   11.119124    5.578861
  10 C      5.682168    3.792783    5.683990
  11 C      7.169452   10.055509    5.301468
  12 C      6.828368    5.023784    4.783500
  13 C      9.346095    4.164660    5.408716
  14 C      4.571970   10.775286    5.246441
  15 C     11.018184    9.758583    5.664870
  16 C      9.878058    6.961525    5.314866
  17 C      5.535247    5.860022    5.382267
  18 C      3.936475    9.445273    5.332650
  19 C      4.266220    8.333713    5.374973
  20 C      5.400098    8.247028    4.747718
  21 C      4.378973    6.502513    4.940435
  22 C      8.672665    8.597225    5.425987
  23 C      9.361268    9.732523    5.237239

Unit cell:
           periodic     x           y           z      points  spacing
  1. axis:    yes   16.000000    0.000000    0.000000    80     0.2000
  2. axis:    yes    0.000000   16.000000    0.000000    80     0.2000
  3. axis:    yes    0.000000    0.000000   10.000000    48     0.2083

Effective grid spacing dv^(1/3) = 0.2027

                     log10-error:    total        iterations:
           time      wfs    density  energy       fermi  poisson
iter:   1  14:13:05          +inf  -135.426089    3      6      
iter:   2  14:13:05         -0.83  -132.328840    3      3      
iter:   3  14:13:06         -0.88  -131.037715    3      3      
iter:   4  14:13:06         -0.89  -129.009972    3      2      
iter:   5  14:13:07         -0.92  -127.079223    4      3      
iter:   6  14:13:08         -1.06  -127.369375    4      3      
iter:   7  14:13:08         -1.13  -126.494354    3      3      
iter:   8  14:13:09         -1.21  -126.119465    4      3      
iter:   9  14:13:09         -1.34  -125.549190    4      3      
iter:  10  14:13:10         -1.50  -125.324177    3      3      
iter:  11  14:13:10         -1.69  -125.305788    3      2      
iter:  12  14:13:11         -1.75  -125.262120    3      3      
iter:  13  14:13:11         -1.93  -125.253781    3      3      
iter:  14  14:13:12         -2.08  -125.243630    3      2      
iter:  15  14:13:12         -2.19  -125.239634    3      2      
iter:  16  14:13:13         -2.34  -125.231749    3      2      
iter:  17  14:13:13         -2.64  -125.234259    2      1      
iter:  18  14:13:14         -2.73  -125.225707    2      2      
iter:  19  14:13:14         -2.88  -125.226235    2      1      
iter:  20  14:13:15         -2.96  -125.226394    2      1      
iter:  21  14:13:15         -3.07  -125.223152    2      1      
iter:  22  14:13:16         -3.27  -125.221515    2      1      
iter:  23  14:13:16         -3.42  -125.221986    2      1      
iter:  24  14:13:17         -3.63  -125.224047    2      1      
iter:  25  14:13:17         -3.86  -125.224848    2      1      
iter:  26  14:13:18         -3.93  -125.225065    1      1      
iter:  27  14:13:18         -4.03  -125.225112    2      1      

Converged after 27 iterations.

Dipole moment: (-0.384349, 0.134111, 0.221078) |e|*Ang

Energy contributions relative to reference atoms: (reference = -24663.074771)

Kinetic:       +229.407133
Potential:     -193.221273
External:        +0.000000
XC:            -163.939516
Entropy (-ST):   -0.465073
Local:           +2.761081
--------------------------
Free energy:   -125.457648
Extrapolated:  -125.225112

Fermi level: -4.81406

 Band  Eigenvalues  Occupancy
    0    -26.77577    2.00000
    1    -25.41725    2.00000
    2    -23.63400    2.00000
    3    -23.38337    2.00000
    4    -22.09876    2.00000
    5    -19.81497    2.00000
    6    -19.45966    2.00000
    7    -19.25653    2.00000
    8    -18.92232    2.00000
    9    -18.36480    2.00000
   10    -16.17723    2.00000
   11    -15.73281    2.00000
   12    -15.59243    2.00000
   13    -15.36012    2.00000
   14    -14.50529    2.00000
   15    -13.84781    2.00000
   16    -13.60394    2.00000
   17    -13.21945    2.00000
   18    -12.90218    2.00000
   19    -12.15785    2.00000
   20    -11.95837    2.00000
   21    -11.41965    2.00000
   22    -10.85130    2.00000
   23    -10.71755    2.00000
   24    -10.34985    2.00000
   25    -10.07036    2.00000
   26     -9.70746    2.00000
   27     -9.67349    2.00000
   28     -9.51290    2.00000
   29     -9.15112    2.00000
   30     -8.64293    2.00000
   31     -8.59725    2.00000
   32     -8.04180    2.00000
   33     -7.85669    2.00000
   34     -7.50322    2.00000
   35     -7.21898    2.00000
   36     -7.16038    2.00000
   37     -6.88307    2.00000
   38     -6.81463    2.00000
   39     -6.47912    2.00000
   40     -6.26661    2.00000
   41     -6.04734    1.99999
   42     -5.95004    1.99998
   43     -5.59213    1.99916
   44     -5.49207    1.99773
   45     -5.09399    1.88528
   46     -5.02791    1.78918
   47     -4.87990    1.31779
   48     -4.76585    0.76353
   49     -4.59232    0.19641
   50     -4.43902    0.04594
   51     -4.18493    0.00370
   52     -4.07920    0.00129
   53     -3.68577    0.00003
   54     -3.39016    0.00000
   55     -3.16459    0.00000
   56     -3.06866    0.00000
   57     -2.42085    0.00000
   58     -2.24317    0.00000
   59     -2.04466    0.00000
   60     -1.90164    0.00000
   61     -1.44814    0.00000
   62     -0.95642    0.00000
   63     -0.91634    0.00000
   64     -0.66302    0.00000
   65     -0.26539    0.00000
   66     -0.13302    0.00000
   67     -0.01405    0.00000
   68      0.23087    0.00000
   69      0.45486    0.00000
   70      1.15756    0.00000
   71      1.47103    0.00000
   72      1.84620    0.00000
   73      2.08151    0.00000
   74      2.42072    0.00000
   75      2.61950    0.00000
   76      2.84238    0.00000
   77      3.63591    0.00000
   78      4.17381    0.00000
   79      4.82873    0.00000
   80      5.92928    0.00000
   81      6.30500    0.00000
   82      6.37293    0.00000
   83      7.06182    0.00000
   84      7.41437    0.00000
   85      7.71223    0.00000
   86      7.91050    0.00000
   87      8.10555    0.00000
   88      8.41341    0.00000
   89      8.64184    0.00000
   90      8.92302    0.00000
   91      9.06417    0.00000
   92      9.17375    0.00000
   93      9.21850    0.00000
   94      9.31359    0.00000
   95      9.48224    0.00000
   96      9.58250    0.00000
   97      9.63843    0.00000


Forces in eV/Ang:
  0 C    -1.19043    2.51309   -1.21417
  1 C    -3.17048    1.11856    1.71876
  2 C    -0.81216   -4.02931    1.15065
  3 C    -3.80747    1.70846   -2.92969
  4 C    -9.25904   -3.48489  -18.03698
  5 C    -5.79472  -26.74719   -4.26337
  6 C    15.62227   -5.87885    8.83648
  7 C    -5.00770   -3.88225  -23.47961
  8 C    -1.78114   -1.10802    0.46338
  9 C     0.31158    5.08339    1.19917
 10 C   -16.90235   -9.36433    3.26217
 11 C     6.97473   -8.21814   -0.24110
 12 C     3.11543   16.22509  -10.63801
 13 C     3.47925    3.40404    0.49270
 14 C    -4.18964   -1.64893    1.88346
 15 C     6.99453    3.34493   23.34150
 16 C     3.07941   -2.62138    0.38892
 17 C     3.49408    0.95140   -1.48068
 18 C    -1.46839   28.98115   15.70472
 19 C     5.40733  -22.89157    2.61627
 20 C     5.82102   -1.48202   -3.51319
 21 C     1.18104   28.77188    4.77183
 22 C    -2.48271   -0.83227    0.21292
 23 C     0.39403    0.06858   -0.23848

System changes: positions 

Initializing position-dependent things.

Density initialized from wave functions
           .--------------------------------------.  
          /|                                      |  
         / |                                      |  
        /  |                                      |  
       /   |                                      |  
      /    |                                      |  
     /     |                                      |  
    /      |                                      |  
   /       |            C                         |  
  /        |       C  C  C        C               |  
 *         |     C          C C                   |  
 |         |   C   C         C   C C              |  
 |         .----C-C---C-------C--C----------------.  
 |        /    C C  CC    C                      /   
 |       /                                      /    
 |      /                                      /     
 |     /                                      /      
 |    /                                      /       
 |   /                                      /        
 |  /                                      /         
 | /                                      /          
 |/                                      /           
 *--------------------------------------*            

Positions:
   0 C      5.572256   11.338893    4.760844
   1 C     11.658795    6.440378    4.667850
   2 C      6.904143    6.488816    4.602887
   3 C     10.545969    5.575582    5.570804
   4 C      3.458186    9.211221    4.279628
   5 C      4.201298    5.399487    4.818855
   6 C      6.774655    4.184247    5.642383
   7 C     10.707731    9.615219    4.574638
   8 C     11.836034    8.374406    4.629813
   9 C      6.643117   11.125287    5.580315
  10 C      5.661677    3.781430    5.687945
  11 C      7.177907   10.045546    5.301175
  12 C      6.832145    5.043454    4.770604
  13 C      9.350313    4.168787    5.409314
  14 C      4.566891   10.773287    5.248725
  15 C     11.026663    9.762638    5.693167
  16 C      9.881791    6.958348    5.315338
  17 C      5.539483    5.861175    5.380472
  18 C      3.934695    9.480407    5.351689
  19 C      4.272775    8.305962    5.378145
  20 C      5.407155    8.245231    4.743458
  21 C      4.380405    6.537393    4.946220
  22 C      8.669655    8.596216    5.426246
  23 C      9.361745    9.732606    5.236950

Unit cell:
           periodic     x           y           z      points  spacing
  1. axis:    yes   16.000000    0.000000    0.000000    80     0.2000
  2. axis:    yes    0.000000   16.000000    0.000000    80     0.2000
  3. axis:    yes    0.000000    0.000000   10.000000    48     0.2083

Effective grid spacing dv^(1/3) = 0.2027

                     log10-error:    total        iterations:
           time      wfs    density  energy       fermi  poisson
iter:   1  14:13:20          +inf  -131.916654    3      5      
iter:   2  14:13:20         -1.66  -131.795291    3      2      
iter:   3  14:13:21         -1.83  -131.752657    3      2      
iter:   4  14:13:21         -1.94  -131.719666    3      2      
iter:   5  14:13:22         -2.06  -131.704266    3      2      
iter:   6  14:13:22         -2.21  -131.693927    3      2      
iter:   7  14:13:23         -2.42  -131.688635    3      2      
iter:   8  14:13:23         -2.58  -131.685588    2      2      
iter:   9  14:13:24         -2.70  -131.684038    2      2      
iter:  10  14:13:24         -2.93  -131.683766    2      1      
iter:  11  14:13:25         -3.02  -131.682411    3      2      
iter:  12  14:13:25         -3.21  -131.679558    2      1      
iter:  13  14:13:26         -3.31  -131.679000    2      1      
iter:  14  14:13:26         -3.52  -131.682909    2      1      
iter:  15  14:13:26         -3.65  -131.684851    2      1      
iter:  16  14:13:27         -3.89  -131.682988    2      1      
iter:  17  14:13:27         -4.04  -131.683102    1      1      

Converged after 17 iterations.

Dipole moment: (-0.367945, 0.136437, 0.202576) |e|*Ang

Energy contributions relative to reference atoms: (reference = -24663.074771)

Kinetic:       +185.841932
Potential:     -162.821139
External:        +0.000000
XC:            -157.129245
Entropy (-ST):   -0.459237
Local:           +2.654969
--------------------------
Free energy:   -131.912720
Extrapolated:  -131.683102

Fermi level: -4.83392

 Band  Eigenvalues  Occupancy
    0    -26.15492    2.00000
    1    -25.06052    2.00000
    2    -23.25452    2.00000
    3    -23.05378    2.00000
    4    -22.02072    2.00000
    5    -19.81976    2.00000
    6    -19.54349    2.00000
    7    -19.28271    2.00000
    8    -18.84391    2.00000
    9    -18.25700    2.00000
   10    -16.08120    2.00000
   11    -15.62350    2.00000
   12    -15.34050    2.00000
   13    -15.09648    2.00000
   14    -14.47347    2.00000
   15    -13.61438    2.00000
   16    -13.47486    2.00000
   17    -13.21177    2.00000
   18    -12.86240    2.00000
   19    -12.04402    2.00000
   20    -11.86724    2.00000
   21    -11.22931    2.00000
   22    -10.87775    2.00000
   23    -10.65823    2.00000
   24    -10.26810    2.00000
   25    -10.03767    2.00000
   26     -9.64762    2.00000
   27     -9.62264    2.00000
   28     -9.43449    2.00000
   29     -8.98549    2.00000
   30     -8.62149    2.00000
   31     -8.54865    2.00000
   32     -8.00086    2.00000
   33     -7.89143    2.00000
   34     -7.47631    2.00000
   35     -7.18847    2.00000
   36     -7.13447    2.00000
   37     -6.87258    2.00000
   38     -6.83919    2.00000
   39     -6.42253    2.00000
   40     -6.28778    2.00000
   41     -6.05490    1.99999
   42     -5.97452    1.99998
   43     -5.57734    1.99882
   44     -5.45398    1.99595
   45     -5.13599    1.90700
   46     -5.05418    1.80095
   47     -4.88666    1.25775
   48     -4.79294    0.79789
   49     -4.61530    0.20198
   50     -4.43371    0.03590
   51     -4.17188    0.00266
   52     -4.08414    0.00111
   53     -3.66167    0.00002
   54     -3.39755    0.00000
   55     -3.12040    0.00000
   56     -3.05770    0.00000
   57     -2.42841    0.00000
   58     -2.19255    0.00000
   59     -2.03706    0.00000
   60     -1.87127    0.00000
   61     -1.49645    0.00000
   62     -1.02536    0.00000
   63     -0.94552    0.00000
   64     -0.80805    0.00000
   65     -0.36277    0.00000
   66     -0.23851    0.00000
   67     -0.17978    0.00000
   68      0.03953    0.00000
   69      0.43206    0.00000
   70      0.98706    0.00000
   71      1.18942    0.00000
   72      1.67253    0.00000
   73      1.88898    0.00000
   74      2.10962    0.00000
   75      2.58091    0.00000
   76      2.72170    0.00000
   77      3.46554    0.00000
   78      4.18069    0.00000
   79      4.64706    0.00000
   80      5.78103    0.00000
   81      6.43268    0.00000
   82      6.59067    0.00000
   83      6.91934    0.00000
   84      7.35056    0.00000
   85      7.78178    0.00000
   86      7.93230    0.00000
   87      8.12290    0.00000
   88      8.31326    0.00000
   89      8.59693    0.00000
   90      8.91020    0.00000
   91      9.01670    0.00000
   92      9.15345    0.00000
   93      9.25883    0.00000
   94      9.30148    0.00000
   95      9.49124    0.00000
   96      9.59026    0.00000
   97      9.61110    0.00000


Forces in eV/Ang:
  0 C    -1.26367    2.35923   -0.92719
  1 C    -3.17015    1.11875    1.67148
  2 C    -0.48331   -3.45312    0.98213
  3 C    -3.77948    1.65914   -2.86491
  4 C    -6.53523   -2.49258  -12.22346
  5 C    -3.66283  -16.04587   -2.91576
  6 C    11.38705   -5.34295    6.87368
  7 C    -2.55560   -2.87052  -14.71767
  8 C    -2.03197   -0.97757    0.46711
  9 C     0.72152    3.81758    0.79185
 10 C   -12.14632   -7.14603    2.79325
 11 C     6.20991   -6.92772    0.03684
 12 C     2.34865   13.53002   -7.97883
 13 C     3.40762    3.34577    0.46822
 14 C    -3.35709   -1.05521    1.62216
 15 C     4.43431    2.29168   14.62759
 16 C     3.08825   -2.58603    0.39210
 17 C     2.38800    0.69369   -2.10741
 18 C    -1.96358   20.05118   10.43616
 19 C     3.07265  -16.63868    2.01798
 20 C     5.77278   -0.95843   -3.55550
 21 C    -0.06005   18.36979    4.27998
 22 C    -2.46894   -0.69497    0.19690
 23 C     0.65846   -0.08956   -0.31369

System changes: positions 

Initializing position-dependent things.

Density initialized from wave functions
           .--------------------------------------.  
          /|                                      |  
         / |                                      |  
        /  |                                      |  
       /   |                                      |  
      /    |                                      |  
     /     |                                      |  
    /      |                                      |  
   /       |            C                         |  
  /        |       C  C  C        C               |  
 *         |     C         C  C                   |  
 |         |   C   C         C   C C              |  
 |         .----C-C---C-------C--C----------------.  
 |        /    C C  CC    C                      /   
 |       /                                      /    
 |      /                                      /     
 |     /                                      /      
 |    /                                      /       
 |   /                                      /        
 |  /                                      /         
 | /                                      /          
 |/                                      /           
 *--------------------------------------*            

Positions:
   0 C      5.566870   11.347199    4.758944
   1 C     11.646391    6.444757    4.674106
   2 C      6.904232    6.478774    4.605715
   3 C     10.531347    5.581777    5.559983
   4 C      3.449019    9.207444    4.266812
   5 C      4.199806    5.401157    4.815562
   6 C      6.793704    4.166566    5.657458
   7 C     10.712501    9.610080    4.569822
   8 C     11.826572    8.371366    4.631663
   9 C      6.648410   11.132601    5.580960
  10 C      5.642794    3.766828    5.696051
  11 C      7.197602   10.026209    5.302994
  12 C      6.836717    5.080167    4.755398
  13 C      9.363217    4.181529    5.410999
  14 C      4.558768   10.772734    5.253499
  15 C     11.028594    9.765262    5.697919
  16 C      9.893930    6.948440    5.316891
  17 C      5.542165    5.862338    5.368449
  18 C      3.924028    9.505082    5.360793
  19 C      4.270735    8.278515    5.382438
  20 C      5.429455    8.244635    4.729290
  21 C      4.372694    6.546620    4.960006
  22 C      8.660076    8.594324    5.426920
  23 C      9.365915    9.731303    5.235269

Unit cell:
           periodic     x           y           z      points  spacing
  1. axis:    yes   16.000000    0.000000    0.000000    80     0.2000
  2. axis:    yes    0.000000   16.000000    0.000000    80     0.2000
  3. axis:    yes    0.000000    0.000000   10.000000    48     0.2083

Effective grid spacing dv^(1/3) = 0.2027

                     log10-error:    total        iterations:
           time      wfs    density  energy       fermi  poisson
iter:   1  14:13:29          +inf  -135.665557    3      5      
iter:   2  14:13:29         -1.58  -135.386955    3      2      
iter:   3  14:13:30         -1.83  -135.313023    3      2      
iter:   4  14:13:30         -1.99  -135.272894    3      2      
iter:   5  14:13:31         -2.14  -135.263184    3      2      
iter:   6  14:13:31         -2.28  -135.257828    3      2      
iter:   7  14:13:32         -2.41  -135.257242    3      2      
iter:   8  14:13:33         -2.56  -135.255791    3      2      
iter:   9  14:13:33         -2.70  -135.255677    3      2      
iter:  10  14:13:33         -2.97  -135.256701    2      1      
iter:  11  14:13:34         -3.06  -135.253731    2      2      
iter:  12  14:13:34         -3.25  -135.252983    2      1      
iter:  13  14:13:35         -3.35  -135.252960    2      1      
iter:  14  14:13:35         -3.52  -135.252092    2      1      
iter:  15  14:13:36         -3.77  -135.252523    2      1      
iter:  16  14:13:36         -3.93  -135.253225    2      1      
iter:  17  14:13:37         -4.02  -135.253356    2      1      

Converged after 17 iterations.

Dipole moment: (-0.334649, 0.160690, 0.177862) |e|*Ang

Energy contributions relative to reference atoms: (reference = -24663.074771)

Kinetic:       +160.615831
Potential:     -144.790158
External:        +0.000000
XC:            -153.508694
Entropy (-ST):   -0.426942
Local:           +2.643135
--------------------------
Free energy:   -135.466827
Extrapolated:  -135.253356

Fermi level: -4.85522

 Band  Eigenvalues  Occupancy
    0    -25.65107    2.00000
    1    -24.95239    2.00000
    2    -23.03264    2.00000
    3    -22.91506    2.00000
    4    -21.85379    2.00000
    5    -19.79991    2.00000
    6    -19.74571    2.00000
    7    -19.37287    2.00000
    8    -18.80714    2.00000
    9    -18.12870    2.00000
   10    -16.03484    2.00000
   11    -15.66559    2.00000
   12    -15.09116    2.00000
   13    -14.81922    2.00000
   14    -14.49791    2.00000
   15    -13.59466    2.00000
   16    -13.34538    2.00000
   17    -13.20795    2.00000
   18    -12.84716    2.00000
   19    -11.97451    2.00000
   20    -11.85704    2.00000
   21    -11.16863    2.00000
   22    -10.90197    2.00000
   23    -10.69553    2.00000
   24    -10.25735    2.00000
   25    -10.03284    2.00000
   26     -9.61998    2.00000
   27     -9.56165    2.00000
   28     -9.36236    2.00000
   29     -8.85786    2.00000
   30     -8.60261    2.00000
   31     -8.48069    2.00000
   32     -8.04559    2.00000
   33     -7.98299    2.00000
   34     -7.51213    2.00000
   35     -7.21259    2.00000
   36     -7.08547    2.00000
   37     -6.88852    2.00000
   38     -6.81007    2.00000
   39     -6.37791    2.00000
   40     -6.33793    2.00000
   41     -6.12771    1.99999
   42     -5.99019    1.99998
   43     -5.58377    1.99863
   44     -5.44872    1.99472
   45     -5.16620    1.91459
   46     -5.10464    1.84747
   47     -4.90816    1.25869
   48     -4.81878    0.81977
   49     -4.59655    0.14000
   50     -4.41239    0.02359
   51     -4.14755    0.00169
   52     -4.08164    0.00087
   53     -3.62515    0.00001
   54     -3.37618    0.00000
   55     -3.16360    0.00000
   56     -3.03254    0.00000
   57     -2.38103    0.00000
   58     -2.17380    0.00000
   59     -1.95720    0.00000
   60     -1.80965    0.00000
   61     -1.51962    0.00000
   62     -1.05385    0.00000
   63     -0.97110    0.00000
   64     -0.92447    0.00000
   65     -0.40213    0.00000
   66     -0.25470    0.00000
   67     -0.21275    0.00000
   68     -0.00221    0.00000
   69      0.50561    0.00000
   70      0.86246    0.00000
   71      1.06104    0.00000
   72      1.58890    0.00000
   73      1.78927    0.00000
   74      2.03914    0.00000
   75      2.59720    0.00000
   76      2.74012    0.00000
   77      3.47102    0.00000
   78      4.32941    0.00000
   79      4.72729    0.00000
   80      5.65087    0.00000
   81      6.61769    0.00000
   82      6.66600    0.00000
   83      6.83559    0.00000
   84      7.36587    0.00000
   85      7.82684    0.00000
   86      8.00417    0.00000
   87      8.19225    0.00000
   88      8.46267    0.00000
   89      8.58428    0.00000
   90      8.86928    0.00000
   91      8.95841    0.00000
   92      9.11422    0.00000
   93      9.22329    0.00000
   94      9.30828    0.00000
   95      9.49054    0.00000
   96      9.55854    0.00000
   97      9.62464    0.00000


Forces in eV/Ang:
  0 C    -1.12970    1.99737   -0.41871
  1 C    -3.13953    1.21741    1.55110
  2 C    -0.33137   -2.29714    0.72140
  3 C    -3.72002    1.30632   -2.67648
  4 C    -5.27410   -2.13320   -9.62689
  5 C    -3.15824  -15.16364   -2.95794
  6 C     8.16751   -3.38017    3.75703
  7 C    -2.25083   -2.88782  -13.61813
  8 C    -2.00466   -0.98876    0.47740
  9 C     1.10273    2.04150    0.09370
 10 C    -8.53761   -5.32497    2.43671
 11 C     5.03815   -5.15323    0.41188
 12 C     1.73050    9.31017   -4.34198
 13 C     3.38291    3.36003    0.47127
 14 C    -2.38422   -0.41015    1.34023
 15 C     4.01434    2.26934   13.56029
 16 C     3.02675   -2.38267    0.32953
 17 C     1.89551    0.14305   -2.33513
 18 C    -1.79085   14.38245    8.04213
 19 C     3.03834  -12.95887    0.88296
 20 C     4.46021   -0.20827   -2.76596
 21 C    -0.29411   17.79679    4.86497
 22 C    -2.29283   -0.12219    0.12061
 23 C     0.50687   -0.46065   -0.25009

System changes: positions 

Initializing position-dependent things.

Density initialized from wave functions
           .--------------------------------------.  
          /|                                      |  
         / |                                      |  
        /  |                                      |  
       /   |                                      |  
      /    |                                      |  
     /     |                                      |  
    /      |                                      |  
   /       |            C                         |  
  /        |       C  C  C        C               |  
 *         |    CC         C  C                   |  
 |         |   C   C         C   C C              |  
 |         .----C-C---C-------C--C----------------.  
 |        /    C C  CC    C                      /   
 |       /                                      /    
 |      /                                      /     
 |     /                                      /      
 |    /                                      /       
 |   /                                      /        
 |  /                                      /         
 | /                                      /          
 |/                                      /           
 *--------------------------------------*            

Positions:
   0 C      5.560789   11.355827    4.760036
   1 C     11.629684    6.451580    4.681746
   2 C      6.904944    6.473587    4.607737
   3 C     10.511791    5.587375    5.546638
   4 C      3.441382    9.203218    4.258942
   5 C      4.197525    5.388290    4.807856
   6 C      6.801505    4.157834    5.655894
   7 C     10.716421    9.600768    4.554019
   8 C     11.814390    8.366839    4.634273
   9 C      6.658004   11.130275    5.576805
  10 C      5.637407    3.757555    5.705117
  11 C      7.216255   10.012026    5.308062
  12 C      6.839368    5.100424    4.759709
  13 C      9.380808    4.199201    5.413380
  14 C      4.554119   10.776173    5.258198
  15 C     11.033094    9.770886    5.713807
  16 C      9.909994    6.936534    5.318481
  17 C      5.544009    5.859820    5.351406
  18 C      3.911943    9.509802    5.364147
  19 C      4.272588    8.258856    5.379984
  20 C      5.448969    8.249050    4.716670
  21 C      4.362791    6.576371    4.984843
  22 C      8.648433    8.596284    5.427231
  23 C      9.369779    9.726720    5.233667

Unit cell:
           periodic     x           y           z      points  spacing
  1. axis:    yes   16.000000    0.000000    0.000000    80     0.2000
  2. axis:    yes    0.000000   16.000000    0.000000    80     0.2000
  3. axis:    yes    0.000000    0.000000   10.000000    48     0.2083

Effective grid spacing dv^(1/3) = 0.2027

                     log10-error:    total        iterations:
           time      wfs    density  energy       fermi  poisson
iter:   1  14:13:38          +inf  -138.497827    3      5      
iter:   2  14:13:39         -1.61  -138.214205    3      2      
iter:   3  14:13:39         -1.89  -138.164141    3      2      
iter:   4  14:13:40         -2.02  -138.131615    3      2      
iter:   5  14:13:40         -2.20  -138.117247    3      2      
iter:   6  14:13:41         -2.25  -138.120279    3      2      
iter:   7  14:13:41         -2.44  -138.116332    3      2      
iter:   8  14:13:42         -2.65  -138.115438    3      2      
iter:   9  14:13:42         -2.81  -138.115309    2      2      
iter:  10  14:13:43         -2.98  -138.114804    2      2      
iter:  11  14:13:43         -3.14  -138.115461    2      1      
iter:  12  14:13:44         -3.31  -138.114169    2      1      
iter:  13  14:13:44         -3.41  -138.113327    2      1      
iter:  14  14:13:45         -3.62  -138.114207    2      1      
iter:  15  14:13:45         -3.74  -138.114454    2      1      
iter:  16  14:13:46         -3.92  -138.113888    2      1      
iter:  17  14:13:46         -4.14  -138.114410    2      1      

Converged after 17 iterations.

Dipole moment: (-0.310136, 0.171033, 0.161062) |e|*Ang

Energy contributions relative to reference atoms: (reference = -24663.074771)

Kinetic:       +142.391018
Potential:     -131.783297
External:        +0.000000
XC:            -151.186244
Entropy (-ST):   -0.396301
Local:           +2.662263
--------------------------
Free energy:   -138.312561
Extrapolated:  -138.114410

Fermi level: -4.87168

 Band  Eigenvalues  Occupancy
    0    -25.40197    2.00000
    1    -24.76260    2.00000
    2    -22.88060    2.00000
    3    -22.77554    2.00000
    4    -21.70347    2.00000
    5    -20.10040    2.00000
    6    -19.74490    2.00000
    7    -19.43445    2.00000
    8    -18.80345    2.00000
    9    -18.04877    2.00000
   10    -15.98346    2.00000
   11    -15.70794    2.00000
   12    -15.03065    2.00000
   13    -14.73414    2.00000
   14    -14.54020    2.00000
   15    -13.54201    2.00000
   16    -13.34386    2.00000
   17    -13.17892    2.00000
   18    -12.84148    2.00000
   19    -11.98447    2.00000
   20    -11.85039    2.00000
   21    -11.11303    2.00000
   22    -10.93519    2.00000
   23    -10.69946    2.00000
   24    -10.24706    2.00000
   25    -10.03580    2.00000
   26     -9.59079    2.00000
   27     -9.49542    2.00000
   28     -9.30045    2.00000
   29     -8.80152    2.00000
   30     -8.58815    2.00000
   31     -8.41674    2.00000
   32     -8.12855    2.00000
   33     -8.02327    2.00000
   34     -7.52426    2.00000
   35     -7.24547    2.00000
   36     -7.07299    2.00000
   37     -6.89173    2.00000
   38     -6.79027    2.00000
   39     -6.42713    2.00000
   40     -6.32580    2.00000
   41     -6.14094    1.99999
   42     -5.98382    1.99997
   43     -5.60447    1.99869
   44     -5.44377    1.99347
   45     -5.21581    1.93794
   46     -5.13967    1.87167
   47     -4.92050    1.23936
   48     -4.84285    0.85687
   49     -4.55748    0.08282
   50     -4.39832    0.01744
   51     -4.12967    0.00120
   52     -4.05792    0.00058
   53     -3.60176    0.00001
   54     -3.33145    0.00000
   55     -3.18799    0.00000
   56     -3.00824    0.00000
   57     -2.32209    0.00000
   58     -2.15451    0.00000
   59     -1.93469    0.00000
   60     -1.70266    0.00000
   61     -1.48253    0.00000
   62     -1.07316    0.00000
   63     -0.97875    0.00000
   64     -0.92484    0.00000
   65     -0.38669    0.00000
   66     -0.30580    0.00000
   67     -0.15146    0.00000
   68     -0.01521    0.00000
   69      0.62536    0.00000
   70      0.79029    0.00000
   71      0.94853    0.00000
   72      1.39690    0.00000
   73      1.75413    0.00000
   74      2.08681    0.00000
   75      2.63346    0.00000
   76      2.78171    0.00000
   77      3.46798    0.00000
   78      4.53588    0.00000
   79      4.72047    0.00000
   80      5.39329    0.00000
   81      6.53586    0.00000
   82      6.74425    0.00000
   83      6.88145    0.00000
   84      7.44426    0.00000
   85      7.80732    0.00000
   86      7.98538    0.00000
   87      8.12820    0.00000
   88      8.49911    0.00000
   89      8.60565    0.00000
   90      8.84099    0.00000
   91      8.94482    0.00000
   92      9.12126    0.00000
   93      9.20582    0.00000
   94      9.32844    0.00000
   95      9.49221    0.00000
   96      9.56543    0.00000
   97      9.59381    0.00000


Forces in eV/Ang:
  0 C    -0.81621    1.72206   -0.05949
  1 C    -3.05928    1.35163    1.39873
  2 C    -0.20248   -1.36494    0.61152
  3 C    -3.56329    0.70240   -2.45770
  4 C    -4.74820   -1.89260   -8.58360
  5 C    -1.99571  -10.42366   -2.32394
  6 C     6.85046   -3.26803    2.95450
  7 C    -1.30105   -2.64612  -10.10651
  8 C    -2.08574   -0.98750    0.45029
  9 C     1.01099    1.33996   -0.38798
 10 C    -7.15873   -4.72956    2.40232
 11 C     4.56957   -4.49872    0.53193
 12 C     1.52092    7.89660   -3.26133
 13 C     3.42039    3.42881    0.46662
 14 C    -2.06414   -0.39864    1.28371
 15 C     2.91350    1.96319   10.15856
 16 C     2.85145   -2.03147    0.25337
 17 C     0.84353    0.25774   -3.04802
 18 C    -1.69295   12.12797    7.06621
 19 C     3.37512  -11.70516    0.20072
 20 C     3.79391    0.13053   -2.29909
 21 C    -0.74977   13.28776    5.00055
 22 C    -2.32769    0.31564    0.04957
 23 C     0.66206   -0.61841   -0.25989

System changes: positions 

Initializing position-dependent things.

Density initialized from wave functions
           .--------------------------------------.  
          /|                                      |  
         / |                                      |  
        /  |                                      |  
       /   |                                      |  
      /    |                                      |  
     /     |                                      |  
    /      |                                      |  
   /       |            C                         |  
  /        |       C  C  C        C               |  
 *         |    CC         C  C                   |  
 |         |   C   C          C  C C              |  
 |         .----C-C---C-------C--C----------------.  
 |        /    C C  CC     C                     /   
 |       /                                      /    
 |      /                                      /     
 |     /                                      /      
 |    /                                      /       
 |   /                                      /        
 |  /                                      /         
 | /                                      /          
 |/                                      /           
 *--------------------------------------*            

Positions:
   0 C      5.556672   11.364053    4.763964
   1 C     11.610299    6.461096    4.689634
   2 C      6.906152    6.474598    4.609619
   3 C     10.489636    5.588455    5.532449
   4 C      3.429768    9.197752    4.243577
   5 C      4.200370    5.390612    4.801210
   6 C      6.810118    4.146431    5.652210
   7 C     10.723878    9.589230    4.545847
   8 C     11.799552    8.361047    4.637145
   9 C      6.667496   11.124445    5.568352
  10 C      5.630829    3.745824    5.717057
  11 C      7.236527    9.997410    5.314513
  12 C      6.842714    5.119338    4.767442
  13 C      9.402597    4.221346    5.416273
  14 C      4.549170   10.778689    5.264085
  15 C     11.034638    9.777466    5.723020
  16 C      9.927658    6.925449    5.319663
  17 C      5.539008    5.858736    5.325589
  18 C      3.899577    9.518607    5.373226
  19 C      4.284285    8.229861    5.372251
  20 C      5.466497    8.256099    4.705898
  21 C      4.349728    6.595805    5.017273
  22 C      8.633958    8.602407    5.426976
  23 C      9.375302    9.720168    5.231818

Unit cell:
           periodic     x           y           z      points  spacing
  1. axis:    yes   16.000000    0.000000    0.000000    80     0.2000
  2. axis:    yes    0.000000   16.000000    0.000000    80     0.2000
  3. axis:    yes    0.000000    0.000000   10.000000    48     0.2083

Effective grid spacing dv^(1/3) = 0.2027

                     log10-error:    total        iterations:
           time      wfs    density  energy       fermi  poisson
iter:   1  14:13:48          +inf  -140.960466    3      5      
iter:   2  14:13:48         -1.64  -140.730740    3      2      
iter:   3  14:13:49         -1.89  -140.674994    3      2      
iter:   4  14:13:49         -2.02  -140.636703    3      2      
iter:   5  14:13:50         -2.20  -140.623932    3      2      
iter:   6  14:13:50         -2.34  -140.627043    3      2      
iter:   7  14:13:51         -2.44  -140.622196    3      2      
iter:   8  14:13:51         -2.65  -140.622011    2      2      
iter:   9  14:13:52         -2.77  -140.622188    2      2      
iter:  10  14:13:52         -2.98  -140.621588    2      2      
iter:  11  14:13:53         -3.20  -140.621942    2      1      
iter:  12  14:13:53         -3.30  -140.621607    2      1      
iter:  13  14:13:54         -3.47  -140.621466    2      1      
iter:  14  14:13:54         -3.61  -140.621515    2      1      
iter:  15  14:13:55         -3.84  -140.621434    2      1      
iter:  16  14:13:55         -3.96  -140.621309    2      1      
iter:  17  14:13:56         -4.16  -140.621335    2      1      

Converged after 17 iterations.

Dipole moment: (-0.316774, 0.209736, 0.137383) |e|*Ang

Energy contributions relative to reference atoms: (reference = -24663.074771)

Kinetic:       +129.386361
Potential:     -122.588403
External:        +0.000000
XC:            -149.909223
Entropy (-ST):   -0.365617
Local:           +2.672740
--------------------------
Free energy:   -140.804143
Extrapolated:  -140.621335

Fermi level: -4.87563

 Band  Eigenvalues  Occupancy
    0    -25.13840    2.00000
    1    -24.63639    2.00000
    2    -22.83023    2.00000
    3    -22.69210    2.00000
    4    -21.56454    2.00000
    5    -20.39379    2.00000
    6    -19.77355    2.00000
    7    -19.45205    2.00000
    8    -18.83634    2.00000
    9    -17.96701    2.00000
   10    -15.97638    2.00000
   11    -15.76945    2.00000
   12    -15.05030    2.00000
   13    -14.62678    2.00000
   14    -14.57721    2.00000
   15    -13.54639    2.00000
   16    -13.35763    2.00000
   17    -13.13979    2.00000
   18    -12.85732    2.00000
   19    -12.02051    2.00000
   20    -11.85999    2.00000
   21    -11.10645    2.00000
   22    -10.97254    2.00000
   23    -10.70737    2.00000
   24    -10.24987    2.00000
   25    -10.02038    2.00000
   26     -9.58706    2.00000
   27     -9.44551    2.00000
   28     -9.25067    2.00000
   29     -8.74532    2.00000
   30     -8.58951    2.00000
   31     -8.39238    2.00000
   32     -8.22011    2.00000
   33     -8.05989    2.00000
   34     -7.57347    2.00000
   35     -7.28834    2.00000
   36     -7.04218    2.00000
   37     -6.90911    2.00000
   38     -6.81851    2.00000
   39     -6.47221    2.00000
   40     -6.32654    2.00000
   41     -6.14095    1.99999
   42     -5.96677    1.99996
   43     -5.62352    1.99887
   44     -5.43869    1.99285
   45     -5.28816    1.96820
   46     -5.14869    1.87762
   47     -4.92067    1.22148
   48     -4.85389    0.89171
   49     -4.47938    0.03732
   50     -4.35369    0.01076
   51     -4.11145    0.00096
   52     -3.98398    0.00027
   53     -3.57062    0.00000
   54     -3.26849    0.00000
   55     -3.18235    0.00000
   56     -3.03077    0.00000
   57     -2.25831    0.00000
   58     -2.10153    0.00000
   59     -1.91561    0.00000
   60     -1.56658    0.00000
   61     -1.45225    0.00000
   62     -1.09635    0.00000
   63     -0.95760    0.00000
   64     -0.89266    0.00000
   65     -0.38819    0.00000
   66     -0.34811    0.00000
   67     -0.10081    0.00000
   68      0.06125    0.00000
   69      0.65304    0.00000
   70      0.79487    0.00000
   71      1.01364    0.00000
   72      1.25207    0.00000
   73      1.73742    0.00000
   74      2.25250    0.00000
   75      2.67909    0.00000
   76      2.87003    0.00000
   77      3.57243    0.00000
   78      4.79534    0.00000
   79      4.82394    0.00000
   80      5.23231    0.00000
   81      6.53668    0.00000
   82      6.62977    0.00000
   83      6.96731    0.00000
   84      7.59866    0.00000
   85      7.84645    0.00000
   86      7.99450    0.00000
   87      8.09881    0.00000
   88      8.42123    0.00000
   89      8.64304    0.00000
   90      8.81753    0.00000
   91      8.93641    0.00000
   92      9.12751    0.00000
   93      9.18471    0.00000
   94      9.33541    0.00000
   95      9.48814    0.00000
   96      9.57580    0.00000
   97      9.58560    0.00000


Forces in eV/Ang:
  0 C    -0.76123    1.43284    0.24628
  1 C    -3.01802    1.51817    1.28447
  2 C    -0.25798   -0.59066    0.53402
  3 C    -3.38389   -0.02853   -2.20156
  4 C    -3.75971   -1.46199   -6.49344
  5 C    -1.54620   -8.81490   -2.09637
  6 C     5.42916   -3.23856    2.18577
  7 C    -0.92052   -2.62671   -8.45723
  8 C    -2.09468   -1.10172    0.43054
  9 C     0.98620    0.81204   -0.68201
 10 C    -5.63456   -4.12180    2.28441
 11 C     4.22866   -4.00430    0.62384
 12 C     1.31822    6.57921   -2.19454
 13 C     3.49854    3.52652    0.43288
 14 C    -1.63230   -0.23835    1.19340
 15 C     2.32180    1.90303    8.58806
 16 C     2.64459   -1.58533    0.15127
 17 C     0.41097    0.43310   -3.53084
 18 C    -1.80606    8.82665    5.13181
 19 C     2.92530   -9.56014   -0.28825
 20 C     3.59799    0.53211   -2.15690
 21 C    -0.92115   11.72025    5.26895
 22 C    -2.42717    0.75687   -0.00319
 23 C     0.77619   -0.65222   -0.23191

System changes: positions 

Initializing position-dependent things.

Density initialized from wave functions
           .--------------------------------------.  
          /|                                      |  
         / |                                      |  
        /  |                                      |  
       /   |                                      |  
      /    |                                      |  
     /     |                                      |  
    /      |                                      |  
   /       |            C                         |  
  /        |       C  C  C        C               |  
 *         |    CC         C  C                   |  
 |         |   C    C         C  C C              |  
 |         .----C-C---C-------C--C----------------.  
 |        /    C C  CC     C                     /   
 |       /                                      /    
 |      /                                      /     
 |     /                                      /      
 |    /                                      /       
 |   /                                      /        
 |  /                                      /         
 | /                                      /          
 |/                                      /           
 *--------------------------------------*            

Positions:
   0 C      5.552880   11.370198    4.768995
   1 C     11.592258    6.471296    4.696425
   2 C      6.906098    6.479250    4.611386
   3 C     10.470076    5.584062    5.520798
   4 C      3.422310    9.194615    4.236593
   5 C      4.203022    5.390371    4.795065
   6 C      6.816235    4.132185    5.649533
   7 C     10.730419    9.577259    4.538830
   8 C     11.785763    8.354438    4.639681
   9 C      6.675273   11.118961    5.559688
  10 C      5.626334    3.734455    5.728359
  11 C      7.255664    9.983317    5.320435
  12 C      6.846026    5.136115    4.774808
  13 C      9.423940    4.243098    5.418726
  14 C      4.545672   10.780839    5.269603
  15 C     11.035128    9.784554    5.731527
  16 C      9.942715    6.918320    5.320027
  17 C      5.533267    5.860323    5.298543
  18 C      3.887070    9.517753    5.374714
  19 C      4.293562    8.208157    5.363583
  20 C      5.483963    8.264315    4.695412
  21 C      4.337947    6.615943    5.049763
  22 C      8.619149    8.610710    5.426460
  23 C      9.381359    9.714569    5.230312

Unit cell:
           periodic     x           y           z      points  spacing
  1. axis:    yes   16.000000    0.000000    0.000000    80     0.2000
  2. axis:    yes    0.000000   16.000000    0.000000    80     0.2000
  3. axis:    yes    0.000000    0.000000   10.000000    48     0.2083

Effective grid spacing dv^(1/3) = 0.2027

                     log10-error:    total        iterations:
           time      wfs    density  energy       fermi  poisson
iter:   1  14:13:57          +inf  -142.822351    3      5      
iter:   2  14:13:58         -1.72  -142.668674    3      2      
iter:   3  14:13:58         -1.97  -142.632607    3      2      
iter:   4  14:13:59         -2.09  -142.605108    3      2      
iter:   5  14:13:59         -2.27  -142.595518    3      2      
iter:   6  14:14:00         -2.44  -142.599006    3      2      
iter:   7  14:14:00         -2.53  -142.594896    3      2      
iter:   8  14:14:01         -2.76  -142.594580    2      2      
iter:   9  14:14:01         -2.89  -142.594613    2      2      
iter:  10  14:14:02         -3.12  -142.594487    2      1      
iter:  11  14:14:02         -3.30  -142.594457    2      1      
iter:  12  14:14:03         -3.39  -142.594462    2      1      
iter:  13  14:14:03         -3.53  -142.594450    2      1      
iter:  14  14:14:04         -3.78  -142.594386    2      1      
iter:  15  14:14:04         -4.00  -142.594331    2      1      
iter:  16  14:14:05         -4.07  -142.594150    2      1      

Converged after 16 iterations.

Dipole moment: (-0.327588, 0.263803, 0.117543) |e|*Ang

Energy contributions relative to reference atoms: (reference = -24663.074771)

Kinetic:       +120.234661
Potential:     -116.165978
External:        +0.000000
XC:            -149.150718
Entropy (-ST):   -0.347974
Local:           +2.661873
--------------------------
Free energy:   -142.768137
Extrapolated:  -142.594150

Fermi level: -4.87886

 Band  Eigenvalues  Occupancy
    0    -25.04513    2.00000
    1    -24.50222    2.00000
    2    -22.79453    2.00000
    3    -22.60607    2.00000
    4    -21.47416    2.00000
    5    -20.60871    2.00000
    6    -19.80244    2.00000
    7    -19.45837    2.00000
    8    -18.89016    2.00000
    9    -17.91632    2.00000
   10    -16.06765    2.00000
   11    -15.78618    2.00000
   12    -15.12009    2.00000
   13    -14.64870    2.00000
   14    -14.54037    2.00000
   15    -13.58101    2.00000
   16    -13.35583    2.00000
   17    -13.10115    2.00000
   18    -12.89620    2.00000
   19    -12.05279    2.00000
   20    -11.87136    2.00000
   21    -11.09371    2.00000
   22    -11.00644    2.00000
   23    -10.69194    2.00000
   24    -10.28218    2.00000
   25    -10.01888    2.00000
   26     -9.59647    2.00000
   27     -9.41629    2.00000
   28     -9.21407    2.00000
   29     -8.69196    2.00000
   30     -8.59734    2.00000
   31     -8.40662    2.00000
   32     -8.26021    2.00000
   33     -8.10376    2.00000
   34     -7.63199    2.00000
   35     -7.33113    2.00000
   36     -7.02365    2.00000
   37     -6.93197    2.00000
   38     -6.83519    2.00000
   39     -6.49210    2.00000
   40     -6.33193    2.00000
   41     -6.13981    1.99999
   42     -5.94862    1.99995
   43     -5.65466    1.99915
   44     -5.46459    1.99430
   45     -5.37328    1.98585
   46     -5.14731    1.87221
   47     -4.91934    1.19967
   48     -4.86381    0.92487
   49     -4.40923    0.01809
   50     -4.27885    0.00494
   51     -4.10406    0.00086
   52     -3.88850    0.00010
   53     -3.55003    0.00000
   54     -3.24620    0.00000
   55     -3.15288    0.00000
   56     -3.06135    0.00000
   57     -2.23068    0.00000
   58     -2.08744    0.00000
   59     -1.91532    0.00000
   60     -1.46182    0.00000
   61     -1.43509    0.00000
   62     -1.12518    0.00000
   63     -0.96839    0.00000
   64     -0.72966    0.00000
   65     -0.41763    0.00000
   66     -0.36504    0.00000
   67     -0.10327    0.00000
   68      0.19108    0.00000
   69      0.58091    0.00000
   70      0.74680    0.00000
   71      1.16415    0.00000
   72      1.25649    0.00000
   73      1.73960    0.00000
   74      2.39548    0.00000
   75      2.72148    0.00000
   76      2.97747    0.00000
   77      3.70725    0.00000
   78      4.77117    0.00000
   79      5.08533    0.00000
   80      5.25696    0.00000
   81      6.46896    0.00000
   82      6.58357    0.00000
   83      7.02216    0.00000
   84      7.69004    0.00000
   85      7.84125    0.00000
   86      7.98951    0.00000
   87      8.10164    0.00000
   88      8.30037    0.00000
   89      8.63231    0.00000
   90      8.81080    0.00000
   91      8.93147    0.00000
   92      9.13661    0.00000
   93      9.16439    0.00000
   94      9.34155    0.00000
   95      9.48888    0.00000
   96      9.57135    0.00000
   97      9.59497    0.00000


Forces in eV/Ang:
  0 C    -0.71391    1.19261    0.44050
  1 C    -2.90070    1.65755    1.16916
  2 C    -0.32994    0.02820    0.50268
  3 C    -3.24569   -0.61439   -1.99651
  4 C    -3.47708   -1.39494   -5.90607
  5 C    -1.23871   -7.03084   -1.72162
  6 C     4.52330   -2.85284    1.34330
  7 C    -0.61137   -2.59294   -7.11186
  8 C    -2.08992   -1.25387    0.40512
  9 C     1.12758    0.22539   -0.90701
 10 C    -4.61732   -3.73589    2.14144
 11 C     3.89435   -3.50052    0.72776
 12 C     1.12566    5.16353   -1.10275
 13 C     3.59007    3.58748    0.41157
 14 C    -1.43674   -0.28618    1.15613
 15 C     1.82788    1.85454    7.29093
 16 C     2.46223   -1.24899    0.06998
 17 C     0.02788    0.69528   -3.81299
 18 C    -1.52755    7.35649    4.59237
 19 C     2.90090   -8.28732   -0.58088
 20 C     3.31855    0.72482   -1.93055
 21 C    -0.98402    9.78718    5.12979
 22 C    -2.53147    1.17547   -0.04330
 23 C     0.87920   -0.67933   -0.19917

System changes: positions 

Initializing position-dependent things.

Density initialized from wave functions
           .--------------------------------------.  
          /|                                      |  
         / |                                      |  
        /  |                                      |  
       /   |                                      |  
      /    |                                      |  
     /     |                                      |  
    /      |                                      |  
   /       |            C                         |  
  /        |       C  C  C        C               |  
 *         |    CC         C  C                   |  
 |         |   C    C         C  C C              |  
 |         .----C-C---C-------C--C----------------.  
 |        /    C C  CC     C                     /   
 |       /                                      /    
 |      /                                      /     
 |     /                                      /      
 |    /                                      /       
 |   /                                      /        
 |  /                                      /         
 | /                                      /          
 |/                                      /           
 *--------------------------------------*            

Positions:
   0 C      5.548495   11.375590    4.775234
   1 C     11.573163    6.483776    4.703260
   2 C      6.904748    6.487591    4.613612
   3 C     10.449165    5.574794    5.509174
   4 C      3.412304    9.189998    4.225304
   5 C      4.205192    5.392868    4.790260
   6 C      6.822092    4.118459    5.643064
   7 C     10.737387    9.563189    4.531831
   8 C     11.770653    8.345384    4.642295
   9 C      6.685222   11.110258    5.549450
  10 C      5.622685    3.721466    5.740183
  11 C      7.275969    9.969261    5.327450
  12 C      6.849141    5.148033    4.787650
  13 C      9.448785    4.267936    5.421296
  14 C      4.541570   10.781597    5.275961
  15 C     11.034633    9.793208    5.740396
  16 C      9.958126    6.912783    5.319823
  17 C      5.525933    5.865252    5.267462
  18 C      3.876358    9.518275    5.379577
  19 C      4.305125    8.186578    5.353640
  20 C      5.502850    8.273678    4.684633
  21 C      4.325986    6.633163    5.083828
  22 C      8.601413    8.622890    5.425690
  23 C      9.388860    9.708700    5.228972

Unit cell:
           periodic     x           y           z      points  spacing
  1. axis:    yes   16.000000    0.000000    0.000000    80     0.2000
  2. axis:    yes    0.000000   16.000000    0.000000    80     0.2000
  3. axis:    yes    0.000000    0.000000   10.000000    48     0.2083

Effective grid spacing dv^(1/3) = 0.2027

                     log10-error:    total        iterations:
           time      wfs    density  energy       fermi  poisson
iter:   1  14:14:06          +inf  -144.745521    3      5      
iter:   2  14:14:07         -1.72  -144.594222    3      2      
iter:   3  14:14:07         -1.97  -144.559245    3      2      
iter:   4  14:14:08         -2.10  -144.532391    3      2      
iter:   5  14:14:08         -2.28  -144.525089    3      2      
iter:   6  14:14:09         -2.40  -144.524745    3      2      
iter:   7  14:14:09         -2.55  -144.522473    2      2      
iter:   8  14:14:10         -2.69  -144.521683    2      2      
iter:   9  14:14:10         -2.89  -144.521687    2      2      
iter:  10  14:14:11         -3.07  -144.521425    2      1      
iter:  11  14:14:11         -3.21  -144.521467    2      1      
iter:  12  14:14:12         -3.42  -144.521711    2      1      
iter:  13  14:14:12         -3.52  -144.521720    2      1      
iter:  14  14:14:13         -3.72  -144.521674    2      1      
iter:  15  14:14:13         -3.85  -144.521626    2      1      
iter:  16  14:14:14         -3.91  -144.521583    2      1      
iter:  17  14:14:14         -3.97  -144.521489    2      1      
iter:  18  14:14:15         -4.11  -144.521589    2      1      

Converged after 18 iterations.

Dipole moment: (-0.346451, 0.327239, 0.096949) |e|*Ang

Energy contributions relative to reference atoms: (reference = -24663.074771)

Kinetic:       +112.116014
Potential:     -110.560465
External:        +0.000000
XC:            -148.566510
Entropy (-ST):   -0.341278
Local:           +2.660011
--------------------------
Free energy:   -144.692228
Extrapolated:  -144.521589

Fermi level: -4.88293

 Band  Eigenvalues  Occupancy
    0    -24.97203    2.00000
    1    -24.32225    2.00000
    2    -22.76832    2.00000
    3    -22.54505    2.00000
    4    -21.38022    2.00000
    5    -20.79466    2.00000
    6    -19.81661    2.00000
    7    -19.43739    2.00000
    8    -18.95567    2.00000
    9    -17.86837    2.00000
   10    -16.24870    2.00000
   11    -15.77767    2.00000
   12    -15.23837    2.00000
   13    -14.72827    2.00000
   14    -14.48885    2.00000
   15    -13.61701    2.00000
   16    -13.31425    2.00000
   17    -13.07536    2.00000
   18    -12.91928    2.00000
   19    -12.08432    2.00000
   20    -11.88075    2.00000
   21    -11.10770    2.00000
   22    -11.02144    2.00000
   23    -10.65323    2.00000
   24    -10.32497    2.00000
   25    -10.01519    2.00000
   26     -9.60341    2.00000
   27     -9.38810    2.00000
   28     -9.17289    2.00000
   29     -8.62883    2.00000
   30     -8.60782    2.00000
   31     -8.44581    2.00000
   32     -8.26899    2.00000
   33     -8.15066    2.00000
   34     -7.70490    2.00000
   35     -7.37177    2.00000
   36     -7.04284    2.00000
   37     -6.95328    2.00000
   38     -6.86562    2.00000
   39     -6.49652    2.00000
   40     -6.33190    2.00000
   41     -6.13931    1.99999
   42     -5.92783    1.99994
   43     -5.69353    1.99940
   44     -5.49929    1.99580
   45     -5.43997    1.99241
   46     -5.14450    1.86374
   47     -4.91876    1.17728
   48     -4.87449    0.95783
   49     -4.36244    0.01092
   50     -4.19774    0.00211
   51     -4.06274    0.00055
   52     -3.75639    0.00003
   53     -3.52575    0.00000
   54     -3.24858    0.00000
   55     -3.15196    0.00000
   56     -3.02115    0.00000
   57     -2.23080    0.00000
   58     -2.08426    0.00000
   59     -1.92845    0.00000
   60     -1.46969    0.00000
   61     -1.30156    0.00000
   62     -1.20020    0.00000
   63     -0.99066    0.00000
   64     -0.57552    0.00000
   65     -0.45187    0.00000
   66     -0.36041    0.00000
   67     -0.12440    0.00000
   68      0.33486    0.00000
   69      0.54582    0.00000
   70      0.69953    0.00000
   71      1.18814    0.00000
   72      1.53595    0.00000
   73      1.78374    0.00000
   74      2.47712    0.00000
   75      2.77435    0.00000
   76      3.15302    0.00000
   77      3.88804    0.00000
   78      4.65250    0.00000
   79      5.43108    0.00000
   80      5.49916    0.00000
   81      6.40164    0.00000
   82      6.53425    0.00000
   83      7.07623    0.00000
   84      7.72233    0.00000
   85      7.82404    0.00000
   86      7.97643    0.00000
   87      8.15533    0.00000
   88      8.18805    0.00000
   89      8.59120    0.00000
   90      8.81344    0.00000
   91      8.92861    0.00000
   92      9.14290    0.00000
   93      9.17148    0.00000
   94      9.35712    0.00000
   95      9.50110    0.00000
   96      9.56060    0.00000
   97      9.61255    0.00000


Forces in eV/Ang:
  0 C    -0.59852    0.91665    0.64248
  1 C    -2.82088    1.81759    1.10065
  2 C    -0.50800    0.29759    0.53977
  3 C    -3.06817   -1.10533   -1.83217
  4 C    -2.95299   -1.20024   -4.77459
  5 C    -1.11521   -5.73624   -1.37658
  6 C     3.65241   -2.75323    0.85799
  7 C    -0.36381   -2.45730   -5.77987
  8 C    -2.04902   -1.46215    0.38223
  9 C     1.10404   -0.14630   -1.09387
 10 C    -3.65291   -3.37289    1.97226
 11 C     3.66679   -3.21055    0.74750
 12 C     0.98113    4.39311   -0.41781
 13 C     3.65093    3.63701    0.38785
 14 C    -1.20216   -0.27826    1.09989
 15 C     1.34672    1.76278    6.03029
 16 C     2.32572   -0.98359   -0.03976
 17 C    -0.07402    1.00841   -3.94980
 18 C    -1.47364    5.77456    3.54388
 19 C     2.77056   -6.83859   -0.81671
 20 C     3.02656    0.83646   -1.73999
 21 C    -1.04626    8.07975    4.77924
 22 C    -2.66822    1.64079   -0.08501
 23 C     1.04646   -0.72740   -0.18028

System changes: positions 

Initializing position-dependent things.

Density initialized from wave functions
           .--------------------------------------.  
          /|                                      |  
         / |                                      |  
        /  |                                      |  
       /   |                                      |  
      /    |                                      |  
     /     |                                      |  
    /      |                                      |  
   /       |            C                         |  
  /        |       C  C  C        C               |  
 *         |    CC         C  C                   |  
 |         |   C    C         C  C C              |  
 |         .----C-C---C-------C--C----------------.  
 |        /    C C  CC     C                     /   
 |       /                                      /    
 |      /                                      /     
 |     /                                      /      
 |    /                                      /       
 |   /                                      /        
 |  /                                      /         
 | /                                      /          
 |/                                      /           
 *--------------------------------------*            

Positions:
   0 C      5.544596   11.379665    4.783124
   1 C     11.552359    6.499034    4.710714
   2 C      6.900867    6.496011    4.617087
   3 C     10.427177    5.561457    5.497017
   4 C      3.402521    9.185351    4.216036
   5 C      4.205163    5.393930    4.786606
   6 C      6.827442    4.102161    5.636170
   7 C     10.744439    9.548154    4.525775
   8 C     11.754459    8.333067    4.645042
   9 C      6.695434   11.100186    5.537569
  10 C      5.619994    3.706825    5.752327
  11 C      7.298566    9.953056    5.334732
  12 C      6.852537    5.161823    4.802218
  13 C      9.477087    4.296072    5.424006
  14 C      4.537513   10.781685    5.282960
  15 C     11.032913    9.802925    5.749074
  16 C      9.974605    6.908005    5.318655
  17 C      5.519794    5.874143    5.233444
  18 C      3.864809    9.518230    5.381797
  19 C      4.318674    8.167247    5.342430
  20 C      5.522372    8.283514    4.673558
  21 C      4.313526    6.648750    5.117416
  22 C      8.580165    8.640033    5.424579
  23 C      9.398708    9.702013    5.227617

Unit cell:
           periodic     x           y           z      points  spacing
  1. axis:    yes   16.000000    0.000000    0.000000    80     0.2000
  2. axis:    yes    0.000000   16.000000    0.000000    80     0.2000
  3. axis:    yes    0.000000    0.000000   10.000000    48     0.2083

Effective grid spacing dv^(1/3) = 0.2027

                     log10-error:    total        iterations:
           time      wfs    density  energy       fermi  poisson
iter:   1  14:14:16          +inf  -146.642442    3      5      
iter:   2  14:14:17         -1.71  -146.474020    3      2      
iter:   3  14:14:17         -1.96  -146.438609    3      2      
iter:   4  14:14:18         -2.08  -146.411541    3      2      
iter:   5  14:14:18         -2.27  -146.406105    3      2      
iter:   6  14:14:19         -2.31  -146.402588    3      2      
iter:   7  14:14:19         -2.52  -146.401301    2      2      
iter:   8  14:14:20         -2.67  -146.400284    2      2      
iter:   9  14:14:20         -2.91  -146.400492    2      2      
iter:  10  14:14:21         -3.06  -146.399666    2      1      
iter:  11  14:14:21         -3.21  -146.399900    2      1      
iter:  12  14:14:22         -3.39  -146.400660    2      1      
iter:  13  14:14:22         -3.49  -146.400393    2      1      
iter:  14  14:14:23         -3.69  -146.400392    2      1      
iter:  15  14:14:23         -3.90  -146.400457    2      1      
iter:  16  14:14:24         -4.00  -146.400333    2      1      

Converged after 16 iterations.

Dipole moment: (-0.362739, 0.412053, 0.076502) |e|*Ang

Energy contributions relative to reference atoms: (reference = -24663.074771)

Kinetic:       +105.429009
Potential:     -106.012267
External:        +0.000000
XC:            -148.316649
Entropy (-ST):   -0.339774
Local:           +2.669461
--------------------------
Free energy:   -146.570220
Extrapolated:  -146.400333

Fermi level: -4.89294

 Band  Eigenvalues  Occupancy
    0    -24.91044    2.00000
    1    -24.13884    2.00000
    2    -22.76899    2.00000
    3    -22.48594    2.00000
    4    -21.30592    2.00000
    5    -20.97040    2.00000
    6    -19.83384    2.00000
    7    -19.41752    2.00000
    8    -19.04921    2.00000
    9    -17.83126    2.00000
   10    -16.51713    2.00000
   11    -15.78420    2.00000
   12    -15.38403    2.00000
   13    -14.84423    2.00000
   14    -14.42804    2.00000
   15    -13.62893    2.00000
   16    -13.26766    2.00000
   17    -13.09125    2.00000
   18    -12.93144    2.00000
   19    -12.09845    2.00000
   20    -11.89690    2.00000
   21    -11.15900    2.00000
   22    -11.00224    2.00000
   23    -10.60986    2.00000
   24    -10.39478    2.00000
   25    -10.01986    2.00000
   26     -9.62343    2.00000
   27     -9.36748    2.00000
   28     -9.13593    2.00000
   29     -8.63402    2.00000
   30     -8.57967    2.00000
   31     -8.47773    2.00000
   32     -8.28175    2.00000
   33     -8.18568    2.00000
   34     -7.79222    2.00000
   35     -7.41350    2.00000
   36     -7.11118    2.00000
   37     -6.96335    2.00000
   38     -6.88494    2.00000
   39     -6.50224    2.00000
   40     -6.31675    2.00000
   41     -6.14386    1.99999
   42     -5.90490    1.99992
   43     -5.74291    1.99959
   44     -5.56829    1.99767
   45     -5.49135    1.99498
   46     -5.14448    1.85043
   47     -4.92414    1.15473
   48     -4.89179    0.99425
   49     -4.32343    0.00670
   50     -4.17734    0.00156
   51     -3.95745    0.00017
   52     -3.59444    0.00000
   53     -3.49212    0.00000
   54     -3.25679    0.00000
   55     -3.19475    0.00000
   56     -2.91339    0.00000
   57     -2.25484    0.00000
   58     -2.10757    0.00000
   59     -1.93594    0.00000
   60     -1.46921    0.00000
   61     -1.27935    0.00000
   62     -1.16020    0.00000
   63     -0.99687    0.00000
   64     -0.56377    0.00000
   65     -0.42046    0.00000
   66     -0.35023    0.00000
   67     -0.12468    0.00000
   68      0.36837    0.00000
   69      0.63414    0.00000
   70      0.71689    0.00000
   71      1.30720    0.00000
   72      1.71935    0.00000
   73      2.01043    0.00000
   74      2.50757    0.00000
   75      2.84092    0.00000
   76      3.36782    0.00000
   77      4.09109    0.00000
   78      4.54997    0.00000
   79      5.64142    0.00000
   80      6.11619    0.00000
   81      6.30114    0.00000
   82      6.53828    0.00000
   83      7.13732    0.00000
   84      7.68972    0.00000
   85      7.74671    0.00000
   86      7.97836    0.00000
   87      8.15425    0.00000
   88      8.24371    0.00000
   89      8.53529    0.00000
   90      8.81230    0.00000
   91      8.93319    0.00000
   92      9.13484    0.00000
   93      9.20456    0.00000
   94      9.37720    0.00000
   95      9.50917    0.00000
   96      9.55689    0.00000
   97      9.61781    0.00000


Forces in eV/Ang:
  0 C    -0.49722    0.65328    0.82678
  1 C    -2.69900    1.98930    1.01568
  2 C    -0.70007    0.62580    0.54204
  3 C    -2.79922   -1.37424   -1.63274
  4 C    -2.58986   -1.11561   -4.00223
  5 C    -1.04312   -4.46109   -0.97114
  6 C     2.92094   -2.38709    0.25071
  7 C    -0.12081   -2.32505   -4.66981
  8 C    -2.00042   -1.71684    0.34757
  9 C     1.17803   -0.58474   -1.24516
 10 C    -2.85564   -3.02130    1.77187
 11 C     3.33395   -2.84087    0.76601
 12 C     0.89213    3.32452    0.31258
 13 C     3.58107    3.55829    0.33123
 14 C    -1.02178   -0.26452    1.03882
 15 C     0.89805    1.69718    4.96485
 16 C     2.16981   -0.74905   -0.13971
 17 C    -0.21251    1.21774   -3.86975
 18 C    -1.31534    4.55067    2.83897
 19 C     2.64187   -5.32781   -0.95202
 20 C     2.77670    0.90007   -1.56376
 21 C    -1.00082    6.21984    4.19560
 22 C    -2.74595    2.11697   -0.08582
 23 C     1.23719   -0.78625   -0.13721

System changes: positions 

Initializing position-dependent things.

Density initialized from wave functions
           .--------------------------------------.  
          /|                                      |  
         / |                                      |  
        /  |                                      |  
       /   |                                      |  
      /    |                                      |  
     /     |                                      |  
    /      |                                      |  
   /       |            C                         |  
  /        |       C  C  C        C               |  
 *         |    C          C  C                   |  
 |         |   C C  C         C  C C              |  
 |         .----C-C---C-------C--C----------------.  
 |        /    C C  CC     C                     /   
 |       /                                      /    
 |      /                                      /     
 |     /                                      /      
 |    /                                      /       
 |   /                                      /        
 |  /                                      /         
 | /                                      /          
 |/                                      /           
 *--------------------------------------*            

Positions:
   0 C      5.541154   11.382449    4.791993
   1 C     11.531554    6.516170    4.718121
   2 C      6.894803    6.505060    4.621016
   3 C     10.406500    5.547689    5.485498
   4 C      3.392230    9.179926    4.206279
   5 C      4.202915    5.394538    4.784956
   6 C      6.832969    4.087432    5.627587
   7 C     10.751476    9.533051    4.519339
   8 C     11.738170    8.317935    4.647626
   9 C      6.706482   11.088475    5.525148
  10 C      5.617097    3.691684    5.763740
  11 C      7.320684    9.936873    5.341897
  12 C      6.856603    5.172656    4.818432
  13 C      9.505442    4.324193    5.426286
  14 C      4.533293   10.781428    5.290059
  15 C     11.030223    9.813310    5.758372
  16 C      9.990922    6.903903    5.316786
  17 C      5.514362    5.884794    5.200904
  18 C      3.854072    9.519814    5.384245
  19 C      4.332811    8.152903    5.331657
  20 C      5.542048    8.292913    4.662546
  21 C      4.302360    6.659314    5.146319
  22 C      8.557575    8.660921    5.423706
  23 C      9.410477    9.694791    5.226605

Unit cell:
           periodic     x           y           z      points  spacing
  1. axis:    yes   16.000000    0.000000    0.000000    80     0.2000
  2. axis:    yes    0.000000   16.000000    0.000000    80     0.2000
  3. axis:    yes    0.000000    0.000000   10.000000    48     0.2083

Effective grid spacing dv^(1/3) = 0.2027

                     log10-error:    total        iterations:
           time      wfs    density  energy       fermi  poisson
iter:   1  14:14:25          +inf  -148.347798    3      5      
iter:   2  14:14:26         -1.69  -148.157803    4      2      
iter:   3  14:14:26         -1.98  -148.124125    3      2      
iter:   4  14:14:27         -2.09  -148.099927    3      2      
iter:   5  14:14:27         -2.26  -148.094917    3      2      
iter:   6  14:14:28         -2.33  -148.090695    2      2      
iter:   7  14:14:28         -2.48  -148.088804    2      2      
iter:   8  14:14:29         -2.68  -148.088048    2      2      
iter:   9  14:14:29         -2.87  -148.088098    2      2      
iter:  10  14:14:30         -3.05  -148.087669    2      1      
iter:  11  14:14:30         -3.14  -148.088197    2      2      
iter:  12  14:14:31         -3.44  -148.088249    2      1      
iter:  13  14:14:31         -3.49  -148.087658    2      1      
iter:  14  14:14:32         -3.87  -148.088313    2      1      
iter:  15  14:14:32         -3.96  -148.088356    2      1      
iter:  16  14:14:32         -4.04  -148.088060    2      1      

Converged after 16 iterations.

Dipole moment: (-0.374814, 0.496800, 0.059290) |e|*Ang

Energy contributions relative to reference atoms: (reference = -24663.074771)

Kinetic:        +99.972388
Potential:     -102.317001
External:        +0.000000
XC:            -148.251495
Entropy (-ST):   -0.342057
Local:           +2.679075
--------------------------
Free energy:   -148.259089
Extrapolated:  -148.088060

Fermi level: -4.90484

 Band  Eigenvalues  Occupancy
    0    -24.85303    2.00000
    1    -23.95187    2.00000
    2    -22.77610    2.00000
    3    -22.44228    2.00000
    4    -21.23857    2.00000
    5    -21.13052    2.00000
    6    -19.83394    2.00000
    7    -19.39762    2.00000
    8    -19.13582    2.00000
    9    -17.80084    2.00000
   10    -16.82493    2.00000
   11    -15.81415    2.00000
   12    -15.51326    2.00000
   13    -14.94263    2.00000
   14    -14.39323    2.00000
   15    -13.60790    2.00000
   16    -13.26844    2.00000
   17    -13.10282    2.00000
   18    -12.93257    2.00000
   19    -12.09842    2.00000
   20    -11.90856    2.00000
   21    -11.21969    2.00000
   22    -10.98244    2.00000
   23    -10.58737    2.00000
   24    -10.45860    2.00000
   25    -10.02656    2.00000
   26     -9.64278    2.00000
   27     -9.34930    2.00000
   28     -9.10457    2.00000
   29     -8.66971    2.00000
   30     -8.61569    2.00000
   31     -8.45659    2.00000
   32     -8.29464    2.00000
   33     -8.18543    2.00000
   34     -7.87108    2.00000
   35     -7.44601    2.00000
   36     -7.19140    2.00000
   37     -6.97681    2.00000
   38     -6.89738    2.00000
   39     -6.50815    2.00000
   40     -6.29213    2.00000
   41     -6.15117    1.99999
   42     -5.88420    1.99989
   43     -5.79201    1.99972
   44     -5.63610    1.99867
   45     -5.52976    1.99614
   46     -5.14183    1.82900
   47     -4.93369    1.14324
   48     -4.91039    1.02773
   49     -4.28827    0.00419
   50     -4.17518    0.00135
   51     -3.88813    0.00008
   52     -3.46629    0.00000
   53     -3.42081    0.00000
   54     -3.26179    0.00000
   55     -3.22384    0.00000
   56     -2.79049    0.00000
   57     -2.27400    0.00000
   58     -2.15027    0.00000
   59     -1.94535    0.00000
   60     -1.44715    0.00000
   61     -1.36685    0.00000
   62     -1.10820    0.00000
   63     -0.94339    0.00000
   64     -0.60492    0.00000
   65     -0.36936    0.00000
   66     -0.33780    0.00000
   67     -0.11268    0.00000
   68      0.34361    0.00000
   69      0.60340    0.00000
   70      1.03958    0.00000
   71      1.44451    0.00000
   72      1.78945    0.00000
   73      2.35544    0.00000
   74      2.52997    0.00000
   75      2.94471    0.00000
   76      3.57485    0.00000
   77      4.27735    0.00000
   78      4.48312    0.00000
   79      5.83517    0.00000
   80      6.19463    0.00000
   81      6.55638    0.00000
   82      6.81597    0.00000
   83      7.19538    0.00000
   84      7.59443    0.00000
   85      7.66066    0.00000
   86      8.00408    0.00000
   87      8.21044    0.00000
   88      8.35812    0.00000
   89      8.47840    0.00000
   90      8.80601    0.00000
   91      8.94569    0.00000
   92      9.12472    0.00000
   93      9.24724    0.00000
   94      9.38892    0.00000
   95      9.48300    0.00000
   96      9.59155    0.00000
   97      9.61859    0.00000


Forces in eV/Ang:
  0 C    -0.33349    0.42238    1.03043
  1 C    -2.57171    2.14776    0.90257
  2 C    -0.91188    0.77265    0.55524
  3 C    -2.33676   -1.31750   -1.49387
  4 C    -2.21631   -0.99450   -3.18235
  5 C    -1.00310   -3.54762   -0.64182
  6 C     2.16313   -2.14807   -0.08748
  7 C     0.04657   -2.14699   -3.55130
  8 C    -1.91788   -1.99654    0.27713
  9 C     1.17227   -0.91671   -1.34801
 10 C    -2.05778   -2.66663    1.55707
 11 C     3.02253   -2.59763    0.71834
 12 C     0.80855    2.61823    0.75663
 13 C     3.28756    3.18790    0.29636
 14 C    -0.86697   -0.23966    0.95503
 15 C     0.46235    1.58502    3.88958
 16 C     2.01645   -0.51015   -0.20696
 17 C    -0.19546    1.32670   -3.69451
[...]

Kinetic:       +111.851078
Potential:     -119.157059
External:        +0.000000
XC:            -175.924289
Entropy (-ST):   -0.116698
Local:           +2.946344
--------------------------
Free energy:   -180.400625
Extrapolated:  -180.342276

Fermi level: -4.45086

 Band  Eigenvalues  Occupancy
    0    -23.19779    2.00000
    1    -22.82241    2.00000
    2    -22.32537    2.00000
    3    -21.80447    2.00000
    4    -21.11987    2.00000
    5    -20.74055    2.00000
    6    -20.09917    2.00000
    7    -19.32145    2.00000
    8    -18.46532    2.00000
    9    -18.18936    2.00000
   10    -17.80696    2.00000
   11    -17.59821    2.00000
   12    -17.02478    2.00000
   13    -16.41871    2.00000
   14    -15.84333    2.00000
   15    -15.13180    2.00000
   16    -14.25792    2.00000
   17    -13.51314    2.00000
   18    -13.35222    2.00000
   19    -12.95878    2.00000
   20    -12.19461    2.00000
   21    -11.92121    2.00000
   22    -11.13177    2.00000
   23    -10.89983    2.00000
   24    -10.79087    2.00000
   25    -10.78442    2.00000
   26    -10.62424    2.00000
   27    -10.34165    2.00000
   28    -10.07005    2.00000
   29     -9.88889    2.00000
   30     -9.64909    2.00000
   31     -9.32572    2.00000
   32     -9.18619    2.00000
   33     -9.13486    2.00000
   34     -8.74021    2.00000
   35     -8.64982    2.00000
   36     -8.16974    2.00000
   37     -7.76953    2.00000
   38     -7.25545    2.00000
   39     -6.69464    2.00000
   40     -6.47733    2.00000
   41     -6.21557    2.00000
   42     -6.02002    2.00000
   43     -5.66804    1.99999
   44     -5.50656    1.99995
   45     -5.32181    1.99967
   46     -5.23149    1.99919
   47     -4.69700    1.84279
   48     -4.19463    0.14320
   49     -3.96351    0.01518
   50     -3.35186    0.00003
   51     -3.08186    0.00000
   52     -2.85749    0.00000
   53     -2.79040    0.00000
   54     -2.25936    0.00000
   55     -1.86906    0.00000
   56     -1.54643    0.00000
   57     -0.37125    0.00000
   58      0.27284    0.00000
   59      0.75785    0.00000
   60      0.91202    0.00000
   61      1.50892    0.00000
   62      2.10034    0.00000
   63      2.24563    0.00000
   64      2.37642    0.00000
   65      2.66710    0.00000
   66      3.23446    0.00000
   67      3.29447    0.00000
   68      3.78394    0.00000
   69      4.35936    0.00000
   70      4.52363    0.00000
   71      4.90314    0.00000
   72      5.29702    0.00000
   73      5.40484    0.00000
   74      5.61269    0.00000
   75      5.98098    0.00000
   76      6.11691    0.00000
   77      6.31460    0.00000
   78      6.88498    0.00000
   79      7.44396    0.00000
   80      7.51197    0.00000
   81      7.72913    0.00000
   82      8.57718    0.00000
   83      8.59690    0.00000
   84      8.77434    0.00000
   85      8.93577    0.00000
   86      9.03211    0.00000
   87      9.13801    0.00000
   88      9.19095    0.00000
   89      9.30316    0.00000
   90      9.40762    0.00000
   91      9.54910    0.00000
   92      9.67008    0.00000
   93      9.77838    0.00000
   94      9.84743    0.00000
   95      9.98830    0.00000
   96     10.05164    0.00000
   97     10.17441    0.00000


Forces in eV/Ang:
  0 C     0.00107   -0.00508   -0.02810
  1 C    -0.03749   -0.04051    0.01228
  2 C     0.04414    0.01405    0.05099
  3 C     0.03838    0.05479   -0.04993
  4 C     0.03750    0.01919    0.01819
  5 C     0.01706    0.07149    0.03186
  6 C     0.06562   -0.04562   -0.03068
  7 C    -0.00119   -0.01149    0.03163
  8 C     0.02281    0.04104    0.06619
  9 C    -0.01314   -0.00776   -0.01703
 10 C     0.04484   -0.05794   -0.09323
 11 C    -0.08734   -0.04150   -0.02756
 12 C    -0.04161    0.03581   -0.00306
 13 C    -0.07753   -0.04999    0.04051
 14 C     0.00017    0.00847   -0.02889
 15 C     0.06827   -0.04042    0.01164
 16 C     0.03286   -0.02301    0.02162
 17 C    -0.01559    0.03768   -0.02184
 18 C     0.00972    0.03482    0.00558
 19 C    -0.07724    0.01148    0.04122
 20 C    -0.02879   -0.00582   -0.03878
 21 C     0.03749   -0.02761    0.10132
 22 C     0.02436   -0.04162   -0.05909
 23 C    -0.02304    0.01001    0.03018

System changes: positions 

Initializing position-dependent things.

Density initialized from wave functions
           .--------------------------------------.  
          /|                                      |  
         / |                                      |  
        /  |                                      |  
       /   |                                      |  
      /    |                                      |  
     /     |                                      |  
    /      |                                      |  
   /       |      C  C                            |  
  /        |     C     C                          |  
 *         |           C   C  C   C               |  
 |         |    CC   C         CC                 |  
 |         .---C-----C--C--C----C-----------------.  
 |        /     C  C  CC  C  C                   /   
 |       /                                      /    
 |      /                                      /     
 |     /                                      /      
 |    /                                      /       
 |   /                                      /        
 |  /                                      /         
 | /                                      /          
 |/                                      /           
 *--------------------------------------*            

Positions:
   0 C      5.188484   11.327317    5.595433
   1 C     11.311954    5.776003    5.072825
   2 C      6.580597    6.951846    5.124550
   3 C     10.055596    5.001362    5.265559
   4 C      3.611604    9.309948    4.607483
   5 C      4.595065    5.716126    4.541105
   6 C      7.176452    4.925810    5.177383
   7 C     10.649086    8.379619    5.151306
   8 C     10.501193    7.004078    5.221250
   9 C      6.311833   10.704554    5.639577
  10 C      7.945296    3.766410    5.197138
  11 C      6.808117    9.428931    5.289955
  12 C      7.881252    6.258443    5.324212
  13 C      9.239389    3.910370    5.236485
  14 C      3.905356   11.832757    5.424090
  15 C     10.902683    9.719044    5.197388
  16 C      9.240981    6.274347    5.363518
  17 C      5.928948    5.633604    4.938897
  18 C      3.662147   10.543751    4.961058
  19 C      4.460447    8.191878    4.650813
  20 C      5.963067    8.200219    5.035242
  21 C      4.060210    6.863867    4.411973
  22 C      8.195005    9.384901    5.215337
  23 C      9.478175    9.462890    5.163681

Unit cell:
           periodic     x           y           z      points  spacing
  1. axis:    yes   16.000000    0.000000    0.000000    80     0.2000
  2. axis:    yes    0.000000   16.000000    0.000000    80     0.2000
  3. axis:    yes    0.000000    0.000000   10.000000    48     0.2083

Effective grid spacing dv^(1/3) = 0.2027

                     log10-error:    total        iterations:
           time      wfs    density  energy       fermi  poisson
iter:   1  14:38:30          +inf  -180.342330    2      5      
iter:   2  14:38:30         -2.88  -180.343492    2      1      
iter:   3  14:38:31         -2.95  -180.344883    2      1      
iter:   4  14:38:31         -3.10  -180.343380    2      2      
iter:   5  14:38:32         -3.35  -180.344720    2      1      
iter:   6  14:38:32         -3.53  -180.343544    2      1      
iter:   7  14:38:32         -3.69  -180.343536    2      1      
iter:   8  14:38:33         -3.81  -180.343799    2      1      
iter:   9  14:38:33         -4.01  -180.343741    2      1      

Converged after 9 iterations.

Dipole moment: (-0.216991, -0.475744, -0.027536) |e|*Ang

Energy contributions relative to reference atoms: (reference = -24663.074771)

Kinetic:       +111.852782
Potential:     -119.159474
External:        +0.000000
XC:            -175.928716
Entropy (-ST):   -0.117420
Local:           +2.950377
--------------------------
Free energy:   -180.402451
Extrapolated:  -180.343741

Fermi level: -4.45061

 Band  Eigenvalues  Occupancy
    0    -23.20047    2.00000
    1    -22.82543    2.00000
    2    -22.33116    2.00000
    3    -21.80176    2.00000
    4    -21.11796    2.00000
    5    -20.74010    2.00000
    6    -20.10217    2.00000
    7    -19.31700    2.00000
    8    -18.46664    2.00000
    9    -18.18778    2.00000
   10    -17.80918    2.00000
   11    -17.60011    2.00000
   12    -17.02340    2.00000
   13    -16.41858    2.00000
   14    -15.84568    2.00000
   15    -15.12845    2.00000
   16    -14.25934    2.00000
   17    -13.50835    2.00000
   18    -13.35278    2.00000
   19    -12.94825    2.00000
   20    -12.19297    2.00000
   21    -11.91591    2.00000
   22    -11.13144    2.00000
   23    -10.90399    2.00000
   24    -10.79405    2.00000
   25    -10.78247    2.00000
   26    -10.62384    2.00000
   27    -10.34365    2.00000
   28    -10.06963    2.00000
   29     -9.88856    2.00000
   30     -9.64456    2.00000
   31     -9.34870    2.00000
   32     -9.18627    2.00000
   33     -9.13333    2.00000
   34     -8.74930    2.00000
   35     -8.64695    2.00000
   36     -8.16761    2.00000
   37     -7.77011    2.00000
   38     -7.25220    2.00000
   39     -6.69297    2.00000
   40     -6.47514    2.00000
   41     -6.21556    2.00000
   42     -6.01951    2.00000
   43     -5.67183    1.99999
   44     -5.50698    1.99995
   45     -5.31896    1.99966
   46     -5.23298    1.99920
   47     -4.69576    1.84134
   48     -4.19545    0.14463
   49     -3.96343    0.01520
   50     -3.33438    0.00003
   51     -3.08700    0.00000
   52     -2.85720    0.00000
   53     -2.79266    0.00000
   54     -2.25433    0.00000
   55     -1.86702    0.00000
   56     -1.55299    0.00000
   57     -0.37631    0.00000
   58      0.27805    0.00000
   59      0.76118    0.00000
   60      0.90115    0.00000
   61      1.49600    0.00000
   62      2.10622    0.00000
   63      2.25574    0.00000
   64      2.37456    0.00000
   65      2.67614    0.00000
   66      3.24094    0.00000
   67      3.29105    0.00000
   68      3.76650    0.00000
   69      4.34867    0.00000
   70      4.53621    0.00000
   71      4.90400    0.00000
   72      5.29356    0.00000
   73      5.40417    0.00000
   74      5.61466    0.00000
   75      5.97276    0.00000
   76      6.11544    0.00000
   77      6.31700    0.00000
   78      6.89861    0.00000
   79      7.46589    0.00000
   80      7.49759    0.00000
   81      7.74315    0.00000
   82      8.57441    0.00000
   83      8.58992    0.00000
   84      8.75967    0.00000
   85      8.93169    0.00000
   86      9.02788    0.00000
   87      9.14114    0.00000
   88      9.19193    0.00000
   89      9.31138    0.00000
   90      9.40977    0.00000
   91      9.54909    0.00000
   92      9.67221    0.00000
   93      9.77590    0.00000
   94      9.84861    0.00000
   95      9.98851    0.00000
   96     10.05050    0.00000
   97     10.17177    0.00000


Forces in eV/Ang:
  0 C    -0.01423    0.00587   -0.02935
  1 C     0.01069   -0.09865   -0.01609
  2 C     0.05173    0.00180    0.00501
  3 C     0.03447    0.07053   -0.00373
  4 C     0.03258    0.02628    0.02810
  5 C     0.01097    0.01653    0.01222
  6 C     0.00919   -0.04857   -0.03109
  7 C     0.03263    0.00671    0.03699
  8 C    -0.02173    0.01847    0.06729
  9 C     0.00187   -0.00213   -0.02229
 10 C     0.08499    0.01400   -0.06160
 11 C    -0.11294   -0.03633   -0.02439
 12 C    -0.03054    0.01548    0.02518
 13 C    -0.06349   -0.03462    0.01144
 14 C     0.01380    0.01418   -0.00532
 15 C     0.07015   -0.05926    0.00866
 16 C    -0.02594    0.03505   -0.01502
 17 C    -0.02663    0.03214    0.02025
 18 C     0.00907    0.00802   -0.02081
 19 C    -0.01189   -0.00777    0.04381
 20 C    -0.03477    0.00147   -0.02202
 21 C    -0.00205   -0.00293    0.09099
 22 C    -0.01181   -0.04309   -0.03969
 23 C    -0.01487    0.00952    0.01797

System changes: positions 

Initializing position-dependent things.

Density initialized from wave functions
           .--------------------------------------.  
          /|                                      |  
         / |                                      |  
        /  |                                      |  
       /   |                                      |  
      /    |                                      |  
     /     |                                      |  
    /      |                                      |  
   /       |      C  C                            |  
  /        |     C     C                          |  
 *         |           C   C  C   C               |  
 |         |    CC   C         CC                 |  
 |         .---C-----C--C--C----C-----------------.  
 |        /     C  C  CC  C  C                   /   
 |       /                                      /    
 |      /                                      /     
 |     /                                      /      
 |    /                                      /       
 |   /                                      /        
 |  /                                      /         
 | /                                      /          
 |/                                      /           
 *--------------------------------------*            

Positions:
   0 C      5.188180   11.327063    5.594650
   1 C     11.313607    5.774373    5.072100
   2 C      6.580736    6.952233    5.125670
   3 C     10.056407    5.001855    5.263634
   4 C      3.612157    9.312026    4.607643
   5 C      4.595847    5.718686    4.542000
   6 C      7.177607    4.925782    5.176048
   7 C     10.649089    8.379017    5.152954
   8 C     10.502130    7.003269    5.223303
   9 C      6.310891   10.703046    5.639657
  10 C      7.946914    3.766529    5.195508
  11 C      6.805398    9.427122    5.289149
  12 C      7.881631    6.259424    5.325370
  13 C      9.240496    3.908575    5.237569
  14 C      3.905498   11.834828    5.423931
  15 C     10.902976    9.718310    5.197789
  16 C      9.241639    6.274004    5.365018
  17 C      5.929668    5.633895    4.937803
  18 C      3.662129   10.546018    4.960730
  19 C      4.457848    8.192534    4.651800
  20 C      5.961055    8.199529    5.034877
  21 C      4.058217    6.864453    4.413628
  22 C      8.193533    9.382358    5.212705
  23 C      9.476877    9.461116    5.164852

Unit cell:
           periodic     x           y           z      points  spacing
  1. axis:    yes   16.000000    0.000000    0.000000    80     0.2000
  2. axis:    yes    0.000000   16.000000    0.000000    80     0.2000
  3. axis:    yes    0.000000    0.000000   10.000000    48     0.2083

Effective grid spacing dv^(1/3) = 0.2027

                     log10-error:    total        iterations:
           time      wfs    density  energy       fermi  poisson
iter:   1  14:38:35          +inf  -180.348179    2      4      
iter:   2  14:38:35         -3.09  -180.346456    2      1      
iter:   3  14:38:36         -3.26  -180.345122    2      1      
iter:   4  14:38:36         -3.44  -180.345875    2      1      
iter:   5  14:38:37         -3.64  -180.344135    2      1      
iter:   6  14:38:37         -3.45  -180.345200    2      1      
iter:   7  14:38:38         -3.95  -180.346869    2      1      
iter:   8  14:38:38         -3.60  -180.345531    2      1      
iter:   9  14:38:39         -4.57  -180.345312    2      1      

Converged after 9 iterations.

Dipole moment: (-0.221413, -0.478832, -0.027120) |e|*Ang

Energy contributions relative to reference atoms: (reference = -24663.074771)

Kinetic:       +111.714078
Potential:     -119.050900
External:        +0.000000
XC:            -175.896414
Entropy (-ST):   -0.117036
Local:           +2.946441
--------------------------
Free energy:   -180.403830
Extrapolated:  -180.345312

Fermi level: -4.45250

 Band  Eigenvalues  Occupancy
    0    -23.19752    2.00000
    1    -22.81854    2.00000
    2    -22.32854    2.00000
    3    -21.80559    2.00000
    4    -21.11968    2.00000
    5    -20.73892    2.00000
    6    -20.10220    2.00000
    7    -19.31708    2.00000
    8    -18.46419    2.00000
    9    -18.18822    2.00000
   10    -17.80826    2.00000
   11    -17.59902    2.00000
   12    -17.02169    2.00000
   13    -16.41758    2.00000
   14    -15.84034    2.00000
   15    -15.13394    2.00000
   16    -14.26204    2.00000
   17    -13.51118    2.00000
   18    -13.35321    2.00000
   19    -12.95097    2.00000
   20    -12.19664    2.00000
   21    -11.91598    2.00000
   22    -11.13166    2.00000
   23    -10.89829    2.00000
   24    -10.79001    2.00000
   25    -10.78035    2.00000
   26    -10.62093    2.00000
   27    -10.34649    2.00000
   28    -10.06775    2.00000
   29     -9.88605    2.00000
   30     -9.64220    2.00000
   31     -9.33958    2.00000
   32     -9.18654    2.00000
   33     -9.13714    2.00000
   34     -8.74800    2.00000
   35     -8.64644    2.00000
   36     -8.16701    2.00000
   37     -7.77072    2.00000
   38     -7.25327    2.00000
   39     -6.69556    2.00000
   40     -6.47885    2.00000
   41     -6.21537    2.00000
   42     -6.01978    2.00000
   43     -5.67311    1.99999
   44     -5.50545    1.99995
   45     -5.31875    1.99965
   46     -5.23206    1.99918
   47     -4.69813    1.84204
   48     -4.19705    0.14425
   49     -3.96338    0.01491
   50     -3.32532    0.00003
   51     -3.08927    0.00000
   52     -2.86176    0.00000
   53     -2.79102    0.00000
   54     -2.25688    0.00000
   55     -1.86702    0.00000
   56     -1.54885    0.00000
   57     -0.37672    0.00000
   58      0.27858    0.00000
   59      0.76378    0.00000
   60      0.90273    0.00000
   61      1.49603    0.00000
   62      2.10378    0.00000
   63      2.25501    0.00000
   64      2.37305    0.00000
   65      2.67566    0.00000
   66      3.23497    0.00000
   67      3.28770    0.00000
   68      3.75832    0.00000
   69      4.35456    0.00000
   70      4.53282    0.00000
   71      4.89574    0.00000
   72      5.28877    0.00000
   73      5.39613    0.00000
   74      5.61441    0.00000
   75      5.96262    0.00000
   76      6.11163    0.00000
   77      6.31026    0.00000
   78      6.90139    0.00000
   79      7.46756    0.00000
   80      7.49754    0.00000
   81      7.74749    0.00000
   82      8.57657    0.00000
   83      8.59089    0.00000
   84      8.76017    0.00000
   85      8.92818    0.00000
   86      9.02849    0.00000
   87      9.14229    0.00000
   88      9.19218    0.00000
   89      9.31788    0.00000
   90      9.40992    0.00000
   91      9.54764    0.00000
   92      9.67164    0.00000
   93      9.77631    0.00000
   94      9.84843    0.00000
   95      9.98843    0.00000
   96     10.05048    0.00000
   97     10.17167    0.00000


Forces in eV/Ang:
  0 C    -0.02673    0.02079   -0.02365
  1 C     0.00018   -0.06052    0.02020
  2 C     0.02895   -0.00490   -0.01064
  3 C    -0.00004    0.00976    0.00271
  4 C     0.01652    0.03744    0.02978
  5 C     0.02564   -0.02725    0.01148
  6 C    -0.00668   -0.03255   -0.02826
  7 C     0.03234    0.00480    0.03458
  8 C    -0.00419    0.01110    0.04168
  9 C     0.00779    0.00093   -0.02610
 10 C     0.04712    0.02752   -0.05753
 11 C    -0.04570   -0.01330   -0.02709
 12 C    -0.02010   -0.01019    0.02094
 13 C    -0.02615    0.01384    0.00127
 14 C     0.02979    0.02069    0.00366
 15 C     0.03010   -0.05739    0.01569
 16 C    -0.02410    0.03671   -0.03181
 17 C    -0.00184    0.01376    0.03154
 18 C     0.00914   -0.01964   -0.02539
 19 C     0.02625   -0.01675    0.04263
 20 C    -0.03240    0.00548   -0.00811
 21 C    -0.02685    0.02526    0.07249
 22 C    -0.03393   -0.03488   -0.02774
 23 C     0.01658    0.01768    0.00713

