
  ___ ___ ___ _ _ _  
 |   |   |_  | | | | 
 | | | | | . | | | | 
 |__ |  _|___|_____|  1.3.0b1
 |___|_|             

User:   esb@s65n12.grendel.cscaa.dk
Date:   Thu Nov  9 11:23:14 2017
Arch:   x86_64
Pid:    20845
Python: 2.7.13
gpaw:   /home/esb/DFT/gpaw_git/gpaw
_gpaw:  /home/esb/DFT/gpaw_git/build/bin.linux-x86_64-2.7/gpaw-python
ase:    /home/esb/DFT/ase_git/ase (version 3.15.0b1)
numpy:  /comm/swstack/core/python/2.7.13/lib/python2.7/site-packages/numpy (version 1.13.3)
scipy:  /comm/swstack/core/python/2.7.13/lib/python2.7/site-packages/scipy (version 0.19.1)
units:  Angstrom and eV
cores:  16
Extra parameters: {'blacs': True}

Input parameters:
  basis: dzp
  gpts: [80 80 48]
  kpts: [1 1 1]
  maxiter: 99
  mixer: {backend: pulay,
          beta: 0.05,
          method: separate,
          nmaxold: 5,
          weight: 75}
  mode: lcao
  nbands: -50
  occupations: {name: fermi-dirac,
                width: 0.1}
  poissonsolver: {eps: 1e-07,
                  name: fd,
                  nn: 3,
                  relax: GS}
  xc: PBE

System changes: positions, numbers, cell, pbc, initial_charges, initial_magmoms 

Initialize ...

C-setup:
  name: Carbon
  id: 4aa54d4b901d75f77cc0ea3eec22967b
  Z: 6
  valence: 4
  core: 2
  charge: 0.0
  file: /home/esb/DFT/gpaw-setups-0.8.7929/C.PBE.gz
  cutoffs: 0.64(comp), 1.14(filt), 1.14(core), lmax=2
  valence states:
                energy  radius
    2s(2.00)   -13.751   0.635
    2p(2.00)    -5.284   0.635
    *s          13.461   0.635
    *p          21.927   0.635
    *d           0.000   0.635

  LCAO basis set for C:
    Name: dzp
    File: /home/esb/DFT/gpaw-setups-0.8.7929/C.dzp.basis.gz
    Number of radial functions: 5
    Number of spherical harmonics: 13
      l=0, rc=5.5469 Bohr: 2s-sz confined orbital
      l=1, rc=6.6719 Bohr: 2p-sz confined orbital
      l=0, rc=3.0312 Bohr: 2s-dz split-valence wave
      l=1, rc=3.7500 Bohr: 2p-dz split-valence wave
      l=2, rc=6.6719 Bohr: d-type Gaussian polarization

Reference energy: -24663.074771

Spin-paired calculation

Occupation numbers:
  Fermi-Dirac: width=0.1000 eV

Convergence criteria:
  Maximum total energy change: 0.0005 eV / electron
  Maximum integral of absolute density change: 0.0001 electrons
  Maximum integral of absolute eigenstate change: 4e-08 eV^2
  Maximum number of iterations: 99

Symmetries present (total): 1

  ( 1  0  0)
  ( 0  1  0)
  ( 0  0  1)

1 k-point (Gamma)
1 k-point in the irreducible part of the Brillouin zone
       k-points in crystal coordinates                weights
   0:     0.00000000    0.00000000    0.00000000          1/1

Wave functions: LCAO
  Diagonalizer: Serial LAPACK
  Atomic Correction: dense with blas
  Datatype: float
  Eigensolver: None 

LCAO using direct dense diagonalizer 

Densities:
  Coarse grid: 80*80*48 grid
  Fine grid: 160*160*96 grid
  Total Charge: 0.000000 

Density mixing:
  Method: separate
  Backend: pulay
  Linear mixing parameter: 0.05
  Mixing with 5 old densities
  Damping of long wave oscillations: 75 

Hamiltonian:
  XC and Coulomb potentials evaluated on a 160*160*96 grid
  Using the PBE Exchange-Correlation functional
  Interpolation: tri-quintic (5. degree polynomial)
  Poisson solver: Gauss-Seidel solver with 6 multi-grid levels
    Coarsest grid: 5 x 5 x 3 points
    Stencil: 6*3+1=19 point O(h^6) finite-difference Laplacian
    Max iterations: 1000
    Tolerance: 1.000000e-07 

Memory estimate:
  Process memory now: 77.55 MiB
  Calculator: 15.59 MiB
    Density: 6.13 MiB
      Arrays: 3.81 MiB
      Localized functions: 0.86 MiB
      Mixer: 1.46 MiB
    Hamiltonian: 5.40 MiB
      Arrays: 2.49 MiB
      XC: 0.00 MiB
      Poisson: 2.85 MiB
      vbar: 0.07 MiB
    Wavefunctions: 4.05 MiB
      C [qnM]: 0.23 MiB
      S, T [2 x qmm]: 1.49 MiB
      P [aqMi]: 0.01 MiB
      TCI: 0.00 MiB
      BasisFunctions: 2.33 MiB
      Eigensolver: 0.00 MiB

Total number of cores used: 16
Domain decomposition: 2 x 4 x 2

Number of atoms: 24
Number of atomic orbitals: 312
Number of bands in calculation: 98
Bands to converge: occupied states only
Number of valence electrons: 96

... initialized

Initializing position-dependent things.

Density initialized from atomic densities
           .--------------------------------------.  
          /|                                      |  
         / |                                      |  
        /  |                                      |  
       /   |                                      |  
      /    |                                      |  
     /     |                                      |  
    /      |                                      |  
   /       |       C                              |  
  /        |           C  CC  C                   |  
 *         |   CC   CC  C      C                  |  
 |         |             C  C  C                  |  
 |         .-C-C---C-C------C---------------------.  
 |        /    C    C     C                      /   
 |       /       C     C                        /    
 |      /                                      /     
 |     /                                      /      
 |    /                                      /       
 |   /                                      /        
 |  /                                      /         
 | /                                      /          
 |/                                      /           
 *--------------------------------------*            

Positions:
   0 C      4.765502    9.527786    6.367555
   1 C      5.392185    8.824464    5.777172
   2 C      7.547506    9.927920    6.079185
   3 C      6.292227    9.906462    5.955954
   4 C      9.804456    8.588518    6.205694
   5 C      5.821230    6.144205    5.530180
   6 C      7.623718    7.619452    5.783774
   7 C      9.566873    6.171946    5.751354
   8 C      8.187501    6.278243    5.673598
   9 C      6.199631    7.574717    5.690599
  10 C     10.382163    7.408801    6.006993
  11 C      8.422937    8.818233    6.022144
  12 C      7.030295    5.348430    5.504043
  13 C      3.452536    6.449881    5.329125
  14 C      4.619165    4.113232    5.209542
  15 C      4.509466    5.510854    5.398143
  16 C      5.593066    3.310726    5.231442
  17 C      3.598071    7.694019    5.817577
  18 C      6.943887    3.679491    5.402635
  19 C      8.198734    3.050796    5.482088
  20 C      9.644548    4.963294    5.710608
  21 C      9.325852    3.600795    5.620624
  22 C     10.861554    5.678438    5.808082
  23 C      3.695002    9.171620    5.480076

Unit cell:
           periodic     x           y           z      points  spacing
  1. axis:    yes   16.000000    0.000000    0.000000    80     0.2000
  2. axis:    yes    0.000000   16.000000    0.000000    80     0.2000
  3. axis:    yes    0.000000    0.000000   10.000000    48     0.2083

Effective grid spacing dv^(1/3) = 0.2027

                     log10-error:    total        iterations:
           time      wfs    density  energy       fermi  poisson
iter:   1  11:23:16          +inf  -173.403757    2      6      
iter:   2  11:23:16         -0.91  -172.410776    4      3      
iter:   3  11:23:17         -0.95  -170.197912    33     3      
iter:   4  11:23:18         -1.10  -169.453534    4      3      
iter:   5  11:23:18         -1.24  -169.278019    33     3      
iter:   6  11:23:19         -1.49  -169.141394    4      3      
iter:   7  11:23:20         -1.71  -169.123640    3      2      
iter:   8  11:23:20         -1.78  -169.088756    4      3      
iter:   9  11:23:21         -2.05  -169.078042    3      2      
iter:  10  11:23:22         -2.15  -169.077095    4      2      
iter:  11  11:23:22         -2.46  -169.065438    3      2      
iter:  12  11:23:23         -2.53  -169.060838    2      2      
iter:  13  11:23:23         -2.68  -169.059365    2      2      
iter:  14  11:23:24         -3.10  -169.058073    2      1      
iter:  15  11:23:25         -3.16  -169.055852    3      1      
iter:  16  11:23:25         -3.37  -169.067853    2      1      
iter:  17  11:23:26         -3.52  -169.068403    2      1      
iter:  18  11:23:26         -3.72  -169.062300    2      1      
iter:  19  11:23:27         -3.86  -169.062339    2      1      
iter:  20  11:23:28         -4.05  -169.063374    2      1      

Converged after 20 iterations.

Dipole moment: (0.297701, -0.323918, 0.030555) |e|*Ang

Energy contributions relative to reference atoms: (reference = -24663.074771)

Kinetic:       +156.225835
Potential:     -143.476406
External:        +0.000000
XC:            -184.775916
Entropy (-ST):   -0.187364
Local:           +3.056793
--------------------------
Free energy:   -169.157056
Extrapolated:  -169.063374

Fermi level: -4.02229

 Band  Eigenvalues  Occupancy
    0    -26.81282    2.00000
    1    -25.66936    2.00000
    2    -22.19533    2.00000
    3    -21.49888    2.00000
    4    -20.77136    2.00000
    5    -20.39474    2.00000
    6    -20.21474    2.00000
    7    -19.54569    2.00000
    8    -18.91873    2.00000
    9    -18.57899    2.00000
   10    -17.76631    2.00000
   11    -17.37719    2.00000
   12    -16.72269    2.00000
   13    -16.41446    2.00000
   14    -15.97334    2.00000
   15    -14.56032    2.00000
   16    -14.41654    2.00000
   17    -14.16809    2.00000
   18    -13.42155    2.00000
   19    -12.76850    2.00000
   20    -12.50614    2.00000
   21    -12.38877    2.00000
   22    -12.31724    2.00000
   23    -11.90696    2.00000
   24    -11.54657    2.00000
   25    -11.08498    2.00000
   26    -10.43285    2.00000
   27    -10.22734    2.00000
   28    -10.07235    2.00000
   29     -9.77547    2.00000
   30     -9.58860    2.00000
   31     -9.23714    2.00000
   32     -8.88356    2.00000
   33     -8.60087    2.00000
   34     -8.51465    2.00000
   35     -7.94268    2.00000
   36     -7.77776    2.00000
   37     -7.32268    2.00000
   38     -7.17242    2.00000
   39     -6.80536    2.00000
   40     -6.47898    2.00000
   41     -6.39566    2.00000
   42     -6.12679    2.00000
   43     -5.71953    2.00000
   44     -5.28733    1.99999
   45     -5.09665    1.99996
   46     -5.00559    1.99989
   47     -4.20109    1.71339
   48     -3.78540    0.17115
   49     -3.73781    0.10991
   50     -3.43370    0.00554
   51     -3.07435    0.00015
   52     -2.84284    0.00002
   53     -2.40488    0.00000
   54     -2.29414    0.00000
   55     -1.77848    0.00000
   56     -1.43011    0.00000
   57     -0.83817    0.00000
   58     -0.75351    0.00000
   59     -0.32994    0.00000
   60      0.37632    0.00000
   61      0.48710    0.00000
   62      0.92596    0.00000
   63      1.37216    0.00000
   64      2.89399    0.00000
   65      3.16749    0.00000
   66      3.86643    0.00000
   67      4.04378    0.00000
   68      4.17834    0.00000
   69      4.68711    0.00000
   70      5.00063    0.00000
   71      5.29086    0.00000
   72      5.41360    0.00000
   73      6.37636    0.00000
   74      6.58276    0.00000
   75      6.79683    0.00000
   76      6.96926    0.00000
   77      7.08088    0.00000
   78      7.43259    0.00000
   79      7.78638    0.00000
   80      8.11697    0.00000
   81      8.22459    0.00000
   82      8.53812    0.00000
   83      8.71350    0.00000
   84      8.80182    0.00000
   85      8.83827    0.00000
   86      9.02913    0.00000
   87      9.18346    0.00000
   88      9.34956    0.00000
   89      9.45020    0.00000
   90      9.52788    0.00000
   91      9.67779    0.00000
   92      9.81789    0.00000
   93      9.93046    0.00000
   94     10.06147    0.00000
   95     10.24628    0.00000
   96     10.37146    0.00000
   97     10.39506    0.00000


Forces in eV/Ang:
  0 C   -12.06048   20.17702   14.51966
  1 C    17.48818  -22.74602  -13.96232
  2 C     2.59082    0.35114    0.61648
  3 C    -3.43158    3.63209    0.55979
  4 C     1.49014   -0.88279   -0.45934
  5 C     1.64073   -0.79179   -0.07212
  6 C    -0.75318   -0.27017    0.33656
  7 C   -10.34409   14.57042   -0.36298
  8 C    -4.81332    3.00915   -0.08471
  9 C    -0.13798   -1.28616   -0.52072
 10 C    -0.31379   -3.29496   -0.40122
 11 C    -0.21765   -0.03290   -0.09248
 12 C    -0.11712   -1.90973    0.01047
 13 C     0.11439    2.76660    1.97518
 14 C    -0.54195    1.01402    0.04744
 15 C    -0.37071   -0.04888   -0.42501
 16 C     1.33315    0.15635    0.25500
 17 C    -2.14713   -0.08965   -3.61455
 18 C    -0.83399    2.48943   -0.21141
 19 C    -0.93656    0.04216    0.01263
 20 C     6.87344  -17.69857   -0.04276
 21 C     0.37185    2.30264    0.03045
 22 C     7.73795    1.74787    1.14774
 23 C    -2.60215   -3.27575    0.76171

System changes: positions 

Initializing position-dependent things.

Density initialized from wave functions
           .--------------------------------------.  
          /|                                      |  
         / |                                      |  
        /  |                                      |  
       /   |                                      |  
      /    |                                      |  
     /     |                                      |  
    /      |                                      |  
   /       |       C      C                       |  
  /        |           C   C  C                   |  
 *         |   CC   CC  C      C                  |  
 |         |             C  C  C                  |  
 |         .-C-C---C-C------C---------------------.  
 |        /    C    C     C                      /   
 |       /       C     C                        /    
 |      /                                      /     
 |     /                                      /      
 |    /                                      /       
 |   /                                      /        
 |  /                                      /         
 | /                                      /          
 |/                                      /           
 *--------------------------------------*            

Positions:
   0 C      4.750383    9.553080    6.385757
   1 C      5.414108    8.795950    5.759669
   2 C      7.550753    9.928360    6.079958
   3 C      6.287925    9.911015    5.956656
   4 C      9.806324    8.587411    6.205118
   5 C      5.823287    6.143213    5.530090
   6 C      7.622774    7.619113    5.784196
   7 C      9.553906    6.190211    5.750899
   8 C      8.181468    6.282015    5.673492
   9 C      6.199458    7.573105    5.689947
  10 C     10.381769    7.404670    6.006490
  11 C      8.422664    8.818191    6.022028
  12 C      7.030148    5.346036    5.504056
  13 C      3.452679    6.453349    5.331601
  14 C      4.618486    4.114503    5.209602
  15 C      4.509002    5.510793    5.397611
  16 C      5.594738    3.310922    5.231761
  17 C      3.595380    7.693906    5.813046
  18 C      6.942842    3.682612    5.402370
  19 C      8.197560    3.050849    5.482104
  20 C      9.653165    4.941107    5.710555
  21 C      9.326318    3.603682    5.620662
  22 C     10.871254    5.680630    5.809521
  23 C      3.691740    9.167513    5.481031

Unit cell:
           periodic     x           y           z      points  spacing
  1. axis:    yes   16.000000    0.000000    0.000000    80     0.2000
  2. axis:    yes    0.000000   16.000000    0.000000    80     0.2000
  3. axis:    yes    0.000000    0.000000   10.000000    48     0.2083

Effective grid spacing dv^(1/3) = 0.2027

                     log10-error:    total        iterations:
           time      wfs    density  energy       fermi  poisson
iter:   1  11:23:30          +inf  -171.912883    3      5      
iter:   2  11:23:31         -2.04  -171.886101    3      2      
iter:   3  11:23:31         -2.13  -171.859469    3      2      
iter:   4  11:23:32         -2.33  -171.859499    3      2      
iter:   5  11:23:33         -2.48  -171.852382    2      2      
iter:   6  11:23:33         -2.64  -171.852123    3      2      
iter:   7  11:23:34         -2.83  -171.849946    2      2      
iter:   8  11:23:34         -3.22  -171.849821    2      1      
iter:   9  11:23:35         -3.27  -171.850214    2      1      
iter:  10  11:23:36         -3.55  -171.849696    2      1      
iter:  11  11:23:36         -3.61  -171.849109    2      1      
iter:  12  11:23:37         -3.82  -171.849473    2      1      
iter:  13  11:23:38         -3.92  -171.849468    2      1      
iter:  14  11:23:38         -3.99  -171.849410    2      1      
iter:  15  11:23:39         -4.07  -171.850012    2      1      

Converged after 15 iterations.

Dipole moment: (0.299820, -0.342238, 0.017805) |e|*Ang

Energy contributions relative to reference atoms: (reference = -24663.074771)

Kinetic:       +142.277189
Potential:     -134.272448
External:        +0.000000
XC:            -182.741532
Entropy (-ST):   -0.186087
Local:           +2.979824
--------------------------
Free energy:   -171.943055
Extrapolated:  -171.850012

Fermi level: -4.02664

 Band  Eigenvalues  Occupancy
    0    -26.37531    2.00000
    1    -25.13752    2.00000
    2    -22.19353    2.00000
    3    -21.49473    2.00000
    4    -20.76541    2.00000
    5    -20.34931    2.00000
    6    -20.15343    2.00000
    7    -19.53829    2.00000
    8    -18.86279    2.00000
    9    -18.43755    2.00000
   10    -17.78245    2.00000
   11    -17.42394    2.00000
   12    -16.63452    2.00000
   13    -16.40849    2.00000
   14    -15.95775    2.00000
   15    -14.56185    2.00000
   16    -14.39371    2.00000
   17    -14.19360    2.00000
   18    -13.38744    2.00000
   19    -12.74456    2.00000
   20    -12.45604    2.00000
   21    -12.15474    2.00000
   22    -11.99060    2.00000
   23    -11.88989    2.00000
   24    -11.52816    2.00000
   25    -11.01306    2.00000
   26    -10.44632    2.00000
   27    -10.21455    2.00000
   28    -10.09580    2.00000
   29     -9.77459    2.00000
   30     -9.58031    2.00000
   31     -9.23851    2.00000
   32     -8.91096    2.00000
   33     -8.63666    2.00000
   34     -8.52172    2.00000
   35     -7.96939    2.00000
   36     -7.83186    2.00000
   37     -7.29304    2.00000
   38     -7.17441    2.00000
   39     -6.82766    2.00000
   40     -6.46063    2.00000
   41     -6.39280    2.00000
   42     -6.13206    2.00000
   43     -5.73999    2.00000
   44     -5.29374    1.99999
   45     -5.10299    1.99996
   46     -4.98672    1.99986
   47     -4.20671    1.71646
   48     -3.78935    0.17053
   49     -3.73950    0.10717
   50     -3.44394    0.00588
   51     -3.06522    0.00013
   52     -2.85650    0.00002
   53     -2.44916    0.00000
   54     -2.26055    0.00000
   55     -1.78093    0.00000
   56     -1.48209    0.00000
   57     -0.83981    0.00000
   58     -0.71910    0.00000
   59     -0.38287    0.00000
   60      0.35576    0.00000
   61      0.48847    0.00000
   62      0.91455    0.00000
   63      1.38585    0.00000
   64      2.89798    0.00000
   65      3.19389    0.00000
   66      3.88627    0.00000
   67      4.07142    0.00000
   68      4.24004    0.00000
   69      4.75469    0.00000
   70      5.06024    0.00000
   71      5.25345    0.00000
   72      5.39446    0.00000
   73      6.42014    0.00000
   74      6.60212    0.00000
   75      6.78651    0.00000
   76      6.84897    0.00000
   77      7.09251    0.00000
   78      7.58633    0.00000
   79      7.79417    0.00000
   80      8.12629    0.00000
   81      8.28620    0.00000
   82      8.49018    0.00000
   83      8.74414    0.00000
   84      8.80222    0.00000
   85      8.85701    0.00000
   86      9.04490    0.00000
   87      9.20324    0.00000
   88      9.35273    0.00000
   89      9.44978    0.00000
   90      9.55280    0.00000
   91      9.68979    0.00000
   92      9.81765    0.00000
   93      9.89975    0.00000
   94     10.04245    0.00000
   95     10.28421    0.00000
   96     10.36038    0.00000
   97     10.37530    0.00000


Forces in eV/Ang:
  0 C    -6.00492   13.28333    8.54371
  1 C    10.82544  -14.61543   -8.14606
  2 C     2.41470    0.51163    0.65841
  3 C    -3.68714    2.93913    0.53510
  4 C     1.56144   -0.87251   -0.45935
  5 C     1.60312   -0.96802   -0.09646
  6 C    -0.56357   -0.24140    0.27535
  7 C    -8.79482   10.27987   -0.38156
  8 C    -4.69965    2.75532   -0.06824
  9 C     0.00229   -1.66123   -0.60251
 10 C    -0.41519   -3.17923   -0.37924
 11 C    -0.42931   -0.08653   -0.12321
 12 C    -0.26115   -1.79566    0.02325
 13 C     0.14398    2.47644    1.89969
 14 C    -0.39366    0.83361    0.04755
 15 C    -0.39080    0.08429   -0.42499
 16 C     1.06085    0.26214    0.22396
 17 C    -2.13272    0.00407   -3.48390
 18 C    -0.60067    2.44247   -0.19058
 19 C    -0.95075   -0.00766    0.03150
 20 C     7.07260  -12.66354    0.16276
 21 C     0.11023    1.69517   -0.04368
 22 C     6.40341    1.64860    1.02635
 23 C    -1.85166   -3.21604    0.99836

System changes: positions 

Initializing position-dependent things.

Density initialized from wave functions
           .--------------------------------------.  
          /|                                      |  
         / |                                      |  
        /  |                                      |  
       /   |                                      |  
      /    |                                      |  
     /     |                                      |  
    /      |                                      |  
   /       |       C      C                       |  
  /        |          C    C  C                   |  
 *         |   CC   CC  C      C                  |  
 |         |             C  C  C                  |  
 |         .-C-C---C-C------C---------------------.  
 |        /    C    C     C                      /   
 |       /       C     C                        /    
 |      /                                      /     
 |     /                                      /      
 |    /                                      /       
 |   /                                      /        
 |  /                                      /         
 | /                                      /          
 |/                                      /           
 *--------------------------------------*            

Positions:
   0 C      4.760170    9.569519    6.387297
   1 C      5.421386    8.781058    5.758895
   2 C      7.560052    9.931489    6.083020
   3 C      6.270654    9.919529    5.958801
   4 C      9.813422    8.583739    6.203153
   5 C      5.829925    6.138039    5.529535
   6 C      7.621474    7.618249    5.785015
   7 C      9.525358    6.209052    5.749158
   8 C      8.162028    6.292315    5.673296
   9 C      6.200290    7.563801    5.686890
  10 C     10.379399    7.391747    6.004996
  11 C      8.419587    8.817507    6.021320
  12 C      7.028187    5.339022    5.504230
  13 C      3.453469    6.462243    5.339286
  14 C      4.617671    4.117012    5.209806
  15 C      4.507212    5.511934    5.395793
  16 C      5.597681    3.312663    5.232538
  17 C      3.586340    7.694473    5.798908
  18 C      6.941639    3.692786    5.401676
  19 C      8.193410    3.050525    5.482349
  20 C      9.684588    4.916430    5.712455
  21 C      9.325257    3.607375    5.620041
  22 C     10.890829    5.687101    5.813200
  23 C      3.688216    9.154105    5.486688

Unit cell:
           periodic     x           y           z      points  spacing
  1. axis:    yes   16.000000    0.000000    0.000000    80     0.2000
  2. axis:    yes    0.000000   16.000000    0.000000    80     0.2000
  3. axis:    yes    0.000000    0.000000   10.000000    48     0.2083

Effective grid spacing dv^(1/3) = 0.2027

                     log10-error:    total        iterations:
           time      wfs    density  energy       fermi  poisson
iter:   1  11:23:41          +inf  -173.879266    3      5      
iter:   2  11:23:42         -1.95  -173.830386    3      2      
iter:   3  11:23:42         -2.08  -173.797549    3      2      
iter:   4  11:23:43         -2.31  -173.793329    2      2      
iter:   5  11:23:44         -2.53  -173.791190    2      2      
iter:   6  11:23:44         -2.65  -173.789533    2      2      
iter:   7  11:23:45         -2.83  -173.789244    2      2      
iter:   8  11:23:46         -3.16  -173.789382    2      1      
iter:   9  11:23:46         -3.29  -173.789151    2      1      
iter:  10  11:23:47         -3.42  -173.788864    2      1      
iter:  11  11:23:47         -3.53  -173.789690    2      1      
iter:  12  11:23:48         -3.79  -173.788956    2      1      
iter:  13  11:23:49         -3.85  -173.788702    2      1      
iter:  14  11:23:49         -3.99  -173.789334    2      1      
iter:  15  11:23:50         -4.16  -173.788450    2      1      

Converged after 15 iterations.

Dipole moment: (0.299202, -0.336691, 0.015232) |e|*Ang

Energy contributions relative to reference atoms: (reference = -24663.074771)

Kinetic:       +134.588095
Potential:     -129.489778
External:        +0.000000
XC:            -181.789844
Entropy (-ST):   -0.154169
Local:           +2.980163
--------------------------
Free energy:   -173.865534
Extrapolated:  -173.788450

Fermi level: -4.02747

 Band  Eigenvalues  Occupancy
    0    -25.77330    2.00000
    1    -25.06231    2.00000
    2    -22.21711    2.00000
    3    -21.47581    2.00000
    4    -20.73058    2.00000
    5    -20.32210    2.00000
    6    -20.05282    2.00000
    7    -19.56664    2.00000
    8    -18.73294    2.00000
    9    -18.40127    2.00000
   10    -17.78613    2.00000
   11    -17.43707    2.00000
   12    -16.51036    2.00000
   13    -16.38251    2.00000
   14    -15.94662    2.00000
   15    -14.56025    2.00000
   16    -14.32855    2.00000
   17    -14.18347    2.00000
   18    -13.40980    2.00000
   19    -12.67590    2.00000
   20    -12.43290    2.00000
   21    -11.94704    2.00000
   22    -11.87407    2.00000
   23    -11.79476    2.00000
   24    -11.51002    2.00000
   25    -11.08374    2.00000
   26    -10.46773    2.00000
   27    -10.23012    2.00000
   28    -10.13722    2.00000
   29     -9.84597    2.00000
   30     -9.57920    2.00000
   31     -9.22897    2.00000
   32     -8.99080    2.00000
   33     -8.71647    2.00000
   34     -8.50688    2.00000
   35     -7.98476    2.00000
   36     -7.88455    2.00000
   37     -7.29283    2.00000
   38     -7.14553    2.00000
   39     -6.84678    2.00000
   40     -6.44293    2.00000
   41     -6.37734    2.00000
   42     -6.15180    2.00000
   43     -5.74258    2.00000
   44     -5.30061    1.99999
   45     -5.09814    1.99996
   46     -4.98887    1.99987
   47     -4.23872    1.78422
   48     -3.75727    0.12572
   49     -3.71704    0.08587
   50     -3.41322    0.00429
   51     -3.00560    0.00007
   52     -2.85742    0.00002
   53     -2.50234    0.00000
   54     -2.23827    0.00000
   55     -1.73059    0.00000
   56     -1.44449    0.00000
   57     -0.75052    0.00000
   58     -0.61631    0.00000
   59     -0.40255    0.00000
   60      0.36375    0.00000
   61      0.53020    0.00000
   62      0.95240    0.00000
   63      1.41951    0.00000
   64      2.91006    0.00000
   65      3.30798    0.00000
   66      3.91670    0.00000
   67      4.11473    0.00000
   68      4.34845    0.00000
   69      4.88447    0.00000
   70      5.14093    0.00000
   71      5.16724    0.00000
   72      5.45703    0.00000
   73      6.44740    0.00000
   74      6.65479    0.00000
   75      6.73083    0.00000
   76      6.78268    0.00000
   77      7.14773    0.00000
   78      7.71976    0.00000
   79      7.88753    0.00000
   80      8.10771    0.00000
   81      8.31980    0.00000
   82      8.42707    0.00000
   83      8.78730    0.00000
   84      8.83481    0.00000
   85      8.89391    0.00000
   86      9.06232    0.00000
   87      9.24711    0.00000
   88      9.35386    0.00000
   89      9.44671    0.00000
   90      9.57333    0.00000
   91      9.71441    0.00000
   92      9.81395    0.00000
   93      9.89410    0.00000
   94     10.04300    0.00000
   95     10.31353    0.00000
   96     10.33447    0.00000
   97     10.36992    0.00000


Forces in eV/Ang:
  0 C    -4.90531   11.97956    6.83818
  1 C     9.28689  -13.18945   -7.01910
  2 C     0.97606    0.69172    0.55226
  3 C    -2.34330    2.61891    0.79820
  4 C     1.39407   -0.94744   -0.53601
  5 C     1.18393   -1.11604   -0.18500
  6 C    -0.75632   -0.02480    0.24043
  7 C    -6.81385    6.05969   -0.32691
  8 C    -4.00049    2.07482   -0.06752
  9 C    -0.10304   -1.34001   -0.54621
 10 C    -0.64689   -2.95413   -0.35558
 11 C    -0.25312   -0.14456   -0.09098
 12 C    -0.39628   -1.63446    0.02775
 13 C     0.16686    1.69527    1.62210
 14 C    -0.23478    0.67676    0.05753
 15 C    -0.37616    0.18976   -0.40616
 16 C     0.73064    0.40319    0.19532
 17 C    -1.96543    0.42422   -3.08174
 18 C    -0.41057    2.32732   -0.15705
 19 C    -0.65162    0.10132    0.07862
 20 C     7.16184   -7.72419    0.31350
 21 C    -0.34919    0.93905   -0.13847
 22 C     4.61545    1.71023    0.89648
 23 C    -1.31127   -2.87692    1.27788

System changes: positions 

Initializing position-dependent things.

Density initialized from wave functions
           .--------------------------------------.  
          /|                                      |  
         / |                                      |  
        /  |                                      |  
       /   |                                      |  
      /    |                                      |  
     /     |                                      |  
    /      |                                      |  
   /       |       C      C                       |  
  /        |          C    C  C                   |  
 *         |   CC   CC  C      C                  |  
 |         |             C  C  C                  |  
 |         .-C-C---C-C------C---------------------.  
 |        /    C    C     C                      /   
 |       /       C     C                        /    
 |      /                                      /     
 |     /                                      /      
 |    /                                      /       
 |   /                                      /        
 |  /                                      /         
 | /                                      /          
 |/                                      /           
 *--------------------------------------*            

Positions:
   0 C      4.768651    9.594149    6.387928
   1 C      5.432067    8.756753    5.754817
   2 C      7.560316    9.936564    6.085913
   3 C      6.260495    9.929086    5.963712
   4 C      9.820828    8.578480    6.200050
   5 C      5.834917    6.130687    5.528161
   6 C      7.617852    7.618879    5.785890
   7 C      9.502404    6.207231    5.747455
   8 C      8.143064    6.300230    5.673021
   9 C      6.200174    7.555526    5.683679
  10 C     10.374729    7.377087    6.003264
  11 C      8.417611    8.816283    6.020760
  12 C      7.024916    5.331277    5.504460
  13 C      3.454587    6.467640    5.346838
  14 C      4.617634    4.119266    5.210144
  15 C      4.505123    5.513952    5.393659
  16 C      5.599252    3.315787    5.233345
  17 C      3.576307    7.698436    5.784139
  18 C      6.941190    3.704744    5.401035
  19 C      8.190672    3.051117    5.483005
  20 C      9.724443    4.915230    5.715648
  21 C      9.320705    3.607105    5.618639
  22 C     10.903620    5.695961    5.817023
  23 C      3.686622    9.139888    5.495600

Unit cell:
           periodic     x           y           z      points  spacing
  1. axis:    yes   16.000000    0.000000    0.000000    80     0.2000
  2. axis:    yes    0.000000   16.000000    0.000000    80     0.2000
  3. axis:    yes    0.000000    0.000000   10.000000    48     0.2083

Effective grid spacing dv^(1/3) = 0.2027

                     log10-error:    total        iterations:
           time      wfs    density  energy       fermi  poisson
iter:   1  11:23:52          +inf  -175.422966    3      5      
iter:   2  11:23:53         -1.99  -175.382193    2      2      
iter:   3  11:23:53         -2.12  -175.355547    3      2      
iter:   4  11:23:54         -2.34  -175.353585    2      2      
iter:   5  11:23:55         -2.55  -175.351532    2      2      
iter:   6  11:23:55         -2.70  -175.350316    2      2      
iter:   7  11:23:56         -2.85  -175.349370    2      2      
iter:   8  11:23:57         -3.22  -175.349736    2      1      
iter:   9  11:23:57         -3.31  -175.350356    2      1      
iter:  10  11:23:58         -3.47  -175.349878    2      1      
iter:  11  11:23:59         -3.59  -175.350350    2      1      
iter:  12  11:23:59         -3.84  -175.349872    2      1      
iter:  13  11:24:00         -3.90  -175.349849    2      1      
iter:  14  11:24:00         -4.07  -175.349763    2      1      

Converged after 14 iterations.

Dipole moment: (0.311296, -0.342083, 0.010936) |e|*Ang

Energy contributions relative to reference atoms: (reference = -24663.074771)

Kinetic:       +129.712906
Potential:     -126.582587
External:        +0.000000
XC:            -181.394603
Entropy (-ST):   -0.131100
Local:           +2.980072
--------------------------
Free energy:   -175.415313
Extrapolated:  -175.349763

Fermi level: -4.00775

 Band  Eigenvalues  Occupancy
    0    -25.58924    2.00000
    1    -24.85255    2.00000
    2    -22.25812    2.00000
    3    -21.44652    2.00000
    4    -20.67564    2.00000
    5    -20.29960    2.00000
    6    -19.98167    2.00000
    7    -19.55379    2.00000
    8    -18.67002    2.00000
    9    -18.36208    2.00000
   10    -17.75488    2.00000
   11    -17.47761    2.00000
   12    -16.43992    2.00000
   13    -16.35487    2.00000
   14    -15.94371    2.00000
   15    -14.52806    2.00000
   16    -14.28521    2.00000
   17    -14.18932    2.00000
   18    -13.41767    2.00000
   19    -12.65198    2.00000
   20    -12.41608    2.00000
   21    -11.85754    2.00000
   22    -11.81252    2.00000
   23    -11.69466    2.00000
   24    -11.45489    2.00000
   25    -11.15564    2.00000
   26    -10.50424    2.00000
   27    -10.26909    2.00000
   28    -10.16641    2.00000
   29     -9.92300    2.00000
   30     -9.59296    2.00000
   31     -9.19995    2.00000
   32     -9.07226    2.00000
   33     -8.80272    2.00000
   34     -8.49495    2.00000
   35     -8.02915    2.00000
   36     -7.92478    2.00000
   37     -7.28036    2.00000
   38     -7.10992    2.00000
   39     -6.86277    2.00000
   40     -6.42572    2.00000
   41     -6.36115    2.00000
   42     -6.16085    2.00000
   43     -5.76514    2.00000
   44     -5.29744    1.99999
   45     -5.11364    1.99997
   46     -4.99945    1.99990
   47     -4.24394    1.82776
   48     -3.71338    0.10007
   49     -3.67443    0.06890
   50     -3.36810    0.00333
   51     -2.96525    0.00006
   52     -2.83816    0.00002
   53     -2.50359    0.00000
   54     -2.25042    0.00000
   55     -1.67333    0.00000
   56     -1.39080    0.00000
   57     -0.63296    0.00000
   58     -0.48454    0.00000
   59     -0.39861    0.00000
   60      0.39192    0.00000
   61      0.57516    0.00000
   62      0.99556    0.00000
   63      1.46414    0.00000
   64      2.92911    0.00000
   65      3.45163    0.00000
   66      3.94476    0.00000
   67      4.15751    0.00000
   68      4.40022    0.00000
   69      5.04470    0.00000
   70      5.10917    0.00000
   71      5.23452    0.00000
   72      5.50965    0.00000
   73      6.46253    0.00000
   74      6.58484    0.00000
   75      6.69755    0.00000
   76      6.81714    0.00000
   77      7.21982    0.00000
   78      7.78329    0.00000
   79      7.93374    0.00000
   80      8.05543    0.00000
   81      8.34746    0.00000
   82      8.42855    0.00000
   83      8.80343    0.00000
   84      8.86863    0.00000
   85      8.91055    0.00000
   86      9.09196    0.00000
   87      9.27298    0.00000
   88      9.36232    0.00000
   89      9.45612    0.00000
   90      9.58903    0.00000
   91      9.73287    0.00000
   92      9.81940    0.00000
   93      9.91020    0.00000
   94     10.06244    0.00000
   95     10.31174    0.00000
   96     10.36390    0.00000
   97     10.37943    0.00000


Forces in eV/Ang:
  0 C    -3.12141    9.69319    4.58746
  1 C     6.91055  -10.28997   -5.10044
  2 C     0.80302    0.64920    0.52604
  3 C    -2.24819    2.05296    0.81941
  4 C     1.26786   -1.16761   -0.62631
  5 C     0.78158   -1.18185   -0.25622
  6 C    -0.67938    0.07372    0.21314
  7 C    -6.26361    5.10137   -0.23395
  8 C    -3.21095    1.54911   -0.04862
  9 C    -0.11766   -1.27241   -0.51049
 10 C    -0.84727   -2.61954   -0.35649
 11 C    -0.31656   -0.03148   -0.05210
 12 C    -0.46269   -1.51046    0.02889
 13 C     0.08739    1.26895    1.39899
 14 C    -0.23218    0.67064    0.06630
 15 C    -0.28419    0.18081   -0.38632
 16 C     0.66944    0.42370    0.18440
 17 C    -1.79284    0.48553   -2.68759
 18 C    -0.44883    2.19441   -0.14445
 19 C    -0.47138    0.26898    0.08233
 20 C     6.71625   -7.32553    0.21893
 21 C    -0.15794    1.21010   -0.09374
 22 C     4.09508    1.90849    0.88115
 23 C    -0.70308   -2.43965    1.46017

System changes: positions 

Initializing position-dependent things.

Density initialized from wave functions
           .--------------------------------------.  
          /|                                      |  
         / |                                      |  
        /  |                                      |  
       /   |                                      |  
      /    |                                      |  
     /     |                                      |  
    /      |                                      |  
   /       |       C      C                       |  
  /        |          C    C  C                   |  
 *         |   CC   CC  C      C                  |  
 |         |             C  C  C                  |  
 |         .-C-C---C-C------C---------------------.  
 |        /    C    C     C                      /   
 |       /       C     C                        /    
 |      /                                      /     
 |     /                                      /      
 |    /                                      /       
 |   /                                      /        
 |  /                                      /         
 | /                                      /          
 |/                                      /           
 *--------------------------------------*            

Positions:
   0 C      4.780739    9.615335    6.380949
   1 C      5.436522    8.739009    5.755114
   2 C      7.559406    9.941277    6.088718
   3 C      6.250875    9.935591    5.969343
   4 C      9.827496    8.570485    6.195750
   5 C      5.836447    6.122428    5.526006
   6 C      7.614206    7.620474    5.786727
   7 C      9.478822    6.206583    5.746571
   8 C      8.129935    6.304274    5.672870
   9 C      6.199557    7.548063    5.680725
  10 C     10.367868    7.364111    6.001303
  11 C      8.415324    8.816222    6.020614
  12 C      7.021035    5.323754    5.504690
  13 C      3.454934    6.470027    5.353062
  14 C      4.617239    4.122131    5.210602
  15 C      4.503813    5.515731    5.391523
  16 C      5.601058    3.319140    5.234199
  17 C      3.567019    7.703127    5.771595
  18 C      6.939718    3.716616    5.400406
  19 C      8.189508    3.053572    5.483709
  20 C      9.763064    4.905018    5.717664
  21 C      9.318339    3.611114    5.617747
  22 C     10.915831    5.707901    5.821363
  23 C      3.689100    9.128565    5.506581

Unit cell:
           periodic     x           y           z      points  spacing
  1. axis:    yes   16.000000    0.000000    0.000000    80     0.2000
  2. axis:    yes    0.000000   16.000000    0.000000    80     0.2000
  3. axis:    yes    0.000000    0.000000   10.000000    48     0.2083

Effective grid spacing dv^(1/3) = 0.2027

                     log10-error:    total        iterations:
           time      wfs    density  energy       fermi  poisson
iter:   1  11:24:03          +inf  -176.588786    3      5      
iter:   2  11:24:03         -2.07  -176.560317    2      2      
iter:   3  11:24:04         -2.19  -176.540996    3      2      
iter:   4  11:24:05         -2.43  -176.538338    2      2      
iter:   5  11:24:05         -2.65  -176.537359    2      2      
iter:   6  11:24:06         -2.80  -176.536698    2      2      
iter:   7  11:24:07         -2.98  -176.536615    2      2      
iter:   8  11:24:07         -3.34  -176.536796    2      1      
iter:   9  11:24:08         -3.44  -176.537206    2      1      
iter:  10  11:24:08         -3.59  -176.537498    2      1      
iter:  11  11:24:09         -3.75  -176.537384    2      1      
iter:  12  11:24:10         -3.99  -176.536938    2      1      
iter:  13  11:24:10         -4.13  -176.536825    2      1      

Converged after 13 iterations.

Dipole moment: (0.308792, -0.328042, 0.009701) |e|*Ang

Energy contributions relative to reference atoms: (reference = -24663.074771)

Kinetic:       +126.864219
Potential:     -124.999705
External:        +0.000000
XC:            -181.335177
Entropy (-ST):   -0.107911
Local:           +2.987793
--------------------------
Free energy:   -176.590780
Extrapolated:  -176.536825

Fermi level: -3.98629

 Band  Eigenvalues  Occupancy
    0    -25.32991    2.00000
    1    -24.80767    2.00000
    2    -22.29067    2.00000
    3    -21.43574    2.00000
    4    -20.64281    2.00000
    5    -20.27937    2.00000
    6    -19.94390    2.00000
    7    -19.55763    2.00000
    8    -18.62186    2.00000
    9    -18.36714    2.00000
   10    -17.74585    2.00000
   11    -17.50797    2.00000
   12    -16.39074    2.00000
   13    -16.33852    2.00000
   14    -15.94213    2.00000
   15    -14.50954    2.00000
   16    -14.27486    2.00000
   17    -14.17046    2.00000
   18    -13.44656    2.00000
   19    -12.62392    2.00000
   20    -12.40667    2.00000
   21    -11.84168    2.00000
   22    -11.74721    2.00000
   23    -11.61643    2.00000
   24    -11.39776    2.00000
   25    -11.24564    2.00000
   26    -10.56406    2.00000
   27    -10.32081    2.00000
   28    -10.21220    2.00000
   29     -9.98714    2.00000
   30     -9.60420    2.00000
   31     -9.18277    2.00000
   32     -9.14867    2.00000
   33     -8.86806    2.00000
   34     -8.48747    2.00000
   35     -8.09356    2.00000
   36     -7.92999    2.00000
   37     -7.27599    2.00000
   38     -7.09266    2.00000
   39     -6.87206    2.00000
   40     -6.41111    2.00000
   41     -6.34105    2.00000
   42     -6.16880    2.00000
   43     -5.79106    2.00000
   44     -5.28856    2.00000
   45     -5.11187    1.99997
   46     -5.00853    1.99993
   47     -4.25101    1.86768
   48     -3.66278    0.07573
   49     -3.62822    0.05420
   50     -3.31519    0.00243
   51     -2.91025    0.00004
   52     -2.81747    0.00002
   53     -2.49950    0.00000
   54     -2.23300    0.00000
   55     -1.62355    0.00000
   56     -1.33457    0.00000
   57     -0.57310    0.00000
   58     -0.37431    0.00000
   59     -0.30822    0.00000
   60      0.43234    0.00000
   61      0.61480    0.00000
   62      1.04071    0.00000
   63      1.51681    0.00000
   64      2.95520    0.00000
   65      3.59013    0.00000
   66      3.97301    0.00000
   67      4.20126    0.00000
   68      4.42539    0.00000
   69      5.02889    0.00000
   70      5.15730    0.00000
   71      5.26576    0.00000
   72      5.52773    0.00000
   73      6.45051    0.00000
   74      6.49973    0.00000
   75      6.69629    0.00000
   76      6.82471    0.00000
   77      7.32680    0.00000
   78      7.87872    0.00000
   79      7.95236    0.00000
   80      8.06669    0.00000
   81      8.35989    0.00000
   82      8.47350    0.00000
   83      8.82726    0.00000
   84      8.89427    0.00000
   85      8.92938    0.00000
   86      9.11579    0.00000
   87      9.29412    0.00000
   88      9.35487    0.00000
   89      9.47719    0.00000
   90      9.59036    0.00000
   91      9.75029    0.00000
   92      9.82255    0.00000
   93      9.91950    0.00000
   94     10.08111    0.00000
   95     10.29242    0.00000
   96     10.37358    0.00000
   97     10.39499    0.00000


Forces in eV/Ang:
  0 C    -2.45530    8.60770    3.54664
  1 C     5.76723   -8.94265   -4.24419
  2 C     0.61934    0.63189    0.49733
  3 C    -1.92702    1.72196    0.82059
  4 C     0.98147   -1.09282   -0.64940
  5 C     0.59631   -1.13101   -0.27588
  6 C    -0.62263    0.08772    0.19226
  7 C    -5.15511    3.63289   -0.12589
  8 C    -2.92689    1.14977   -0.04462
  9 C    -0.17169   -1.16215   -0.46653
 10 C    -0.88208   -2.55522   -0.37619
 11 C    -0.30763    0.00211   -0.02833
 12 C    -0.49535   -1.33708    0.01587
 13 C     0.00605    1.12223    1.25261
 14 C    -0.17722    0.55948    0.06794
 15 C    -0.27727    0.15959   -0.36874
 16 C     0.51385    0.46926    0.16809
 17 C    -1.64417    0.32140   -2.38435
 18 C    -0.31650    2.00927   -0.13776
 19 C    -0.38093    0.39498    0.08619
 20 C     6.20243   -5.76418    0.21422
 21 C    -0.13076    1.07569   -0.09877
 22 C     3.51214    1.98506    0.83635
 23 C    -0.33480   -2.02477    1.47384

System changes: positions 

Initializing position-dependent things.

Density initialized from wave functions
           .--------------------------------------.  
          /|                                      |  
         / |                                      |  
        /  |                                      |  
       /   |                                      |  
      /    |                                      |  
     /     |                                      |  
    /      |                                      |  
   /       |       C      C                       |  
  /        |          C    C  C                   |  
 *         |  C C   CC  C      C                  |  
 |         |             C  C  C                  |  
 |         .-C-C---C-C------C---------------------.  
 |        /    C    C     C                      /   
 |       /       C     C                        /    
 |      /                                      /     
 |     /                                      /      
 |    /                                      /       
 |   /                                      /        
 |  /                                      /         
 | /                                      /          
 |/                                      /           
 *--------------------------------------*            

Positions:
   0 C      4.792829    9.639293    6.371597
   1 C      5.440043    8.720270    5.755747
   2 C      7.559104    9.946183    6.091875
   3 C      6.241243    9.941024    5.975561
   4 C      9.831993    8.562370    6.190571
   5 C      5.837155    6.113835    5.523462
   6 C      7.610689    7.621980    5.787617
   7 C      9.459275    6.200413    5.746771
   8 C      8.115584    6.306007    5.672699
   9 C      6.198157    7.540351    5.677730
  10 C     10.360037    7.348487    5.998624
  11 C      8.412688    8.816636    6.020682
  12 C      7.016477    5.316512    5.504763
  13 C      3.454270    6.473314    5.359432
  14 C      4.617023    4.124573    5.211140
  15 C      4.502219    5.517219    5.389149
  16 C      5.602151    3.323331    5.235103
  17 C      3.557375    7.705491    5.759274
  18 C      6.939156    3.728735    5.399639
  19 C      8.188535    3.057833    5.484482
  20 C      9.802383    4.897923    5.719596
  21 C      9.316845    3.615924    5.616829
  22 C     10.928247    5.722927    5.826354
  23 C      3.694338    9.119362    5.518818

Unit cell:
           periodic     x           y           z      points  spacing
  1. axis:    yes   16.000000    0.000000    0.000000    80     0.2000
  2. axis:    yes    0.000000   16.000000    0.000000    80     0.2000
  3. axis:    yes    0.000000    0.000000   10.000000    48     0.2083

Effective grid spacing dv^(1/3) = 0.2027

                     log10-error:    total        iterations:
           time      wfs    density  energy       fermi  poisson
iter:   1  11:24:13          +inf  -177.626370    3      5      
iter:   2  11:24:13         -2.07  -177.595605    3      2      
iter:   3  11:24:14         -2.20  -177.575320    3      2      
iter:   4  11:24:15         -2.45  -177.572892    2      2      
iter:   5  11:24:15         -2.66  -177.571895    2      2      
iter:   6  11:24:16         -2.80  -177.571465    2      2      
iter:   7  11:24:16         -2.98  -177.571328    2      2      
iter:   8  11:24:17         -3.36  -177.571531    2      1      
iter:   9  11:24:18         -3.46  -177.572131    2      1      
iter:  10  11:24:18         -3.63  -177.572021    2      1      
iter:  11  11:24:19         -3.73  -177.572279    2      1      
iter:  12  11:24:20         -3.91  -177.571786    2      1      
iter:  13  11:24:20         -4.00  -177.571533    2      1      
iter:  14  11:24:21         -4.13  -177.571375    2      1      

Converged after 14 iterations.

Dipole moment: (0.299710, -0.314802, 0.008201) |e|*Ang

Energy contributions relative to reference atoms: (reference = -24663.074771)

Kinetic:       +124.648849
Potential:     -123.791071
External:        +0.000000
XC:            -181.375412
Entropy (-ST):   -0.087519
Local:           +2.990018
--------------------------
Free energy:   -177.615135
Extrapolated:  -177.571375

Fermi level: -3.96128

 Band  Eigenvalues  Occupancy
    0    -25.15571    2.00000
    1    -24.76999    2.00000
    2    -22.33117    2.00000
    3    -21.42647    2.00000
    4    -20.61429    2.00000
    5    -20.26109    2.00000
    6    -19.90735    2.00000
    7    -19.56160    2.00000
    8    -18.59319    2.00000
    9    -18.36432    2.00000
   10    -17.74555    2.00000
   11    -17.53800    2.00000
   12    -16.37059    2.00000
   13    -16.30796    2.00000
   14    -15.95274    2.00000
   15    -14.48949    2.00000
   16    -14.28116    2.00000
   17    -14.14044    2.00000
   18    -13.47882    2.00000
   19    -12.60683    2.00000
   20    -12.40125    2.00000
   21    -11.82802    2.00000
   22    -11.71229    2.00000
   23    -11.56623    2.00000
   24    -11.35463    2.00000
   25    -11.30705    2.00000
   26    -10.64453    2.00000
   27    -10.36316    2.00000
   28    -10.28339    2.00000
   29    -10.03727    2.00000
   30     -9.62340    2.00000
   31     -9.23578    2.00000
   32     -9.15919    2.00000
   33     -8.93680    2.00000
   34     -8.48565    2.00000
   35     -8.15901    2.00000
   36     -7.92399    2.00000
   37     -7.27314    2.00000
   38     -7.07185    2.00000
   39     -6.87275    2.00000
   40     -6.39209    2.00000
   41     -6.32445    2.00000
   42     -6.17345    2.00000
   43     -5.81970    2.00000
   44     -5.27742    2.00000
   45     -5.11001    1.99998
   46     -5.00942    1.99994
   47     -4.25551    1.89981
   48     -3.60288    0.05403
   49     -3.58256    0.04432
   50     -3.26422    0.00188
   51     -2.85842    0.00003
   52     -2.78377    0.00002
   53     -2.49689    0.00000
   54     -2.22152    0.00000
   55     -1.58279    0.00000
   56     -1.25715    0.00000
   57     -0.57443    0.00000
   58     -0.29586    0.00000
   59     -0.11514    0.00000
   60      0.47525    0.00000
   61      0.65123    0.00000
   62      1.08722    0.00000
   63      1.57066    0.00000
   64      2.97778    0.00000
   65      3.71460    0.00000
   66      4.00335    0.00000
   67      4.24959    0.00000
   68      4.44883    0.00000
   69      5.00638    0.00000
   70      5.18665    0.00000
   71      5.28328    0.00000
   72      5.49506    0.00000
   73      6.39443    0.00000
   74      6.42687    0.00000
   75      6.68188    0.00000
   76      6.82779    0.00000
   77      7.45001    0.00000
   78      7.84721    0.00000
   79      8.02118    0.00000
   80      8.17217    0.00000
   81      8.38963    0.00000
   82      8.52331    0.00000
   83      8.84645    0.00000
   84      8.91679    0.00000
   85      8.94866    0.00000
   86      9.13562    0.00000
   87      9.30215    0.00000
   88      9.35572    0.00000
   89      9.50479    0.00000
   90      9.60317    0.00000
   91      9.76666    0.00000
   92      9.82892    0.00000
   93      9.92948    0.00000
   94     10.10312    0.00000
   95     10.27734    0.00000
   96     10.37078    0.00000
   97     10.40799    0.00000


Forces in eV/Ang:
  0 C    -1.94099    7.44984    2.64526
  1 C     4.66937   -7.55196   -3.47888
  2 C     0.38107    0.64769    0.49288
  3 C    -1.46487    1.38460    0.75965
  4 C     0.79429   -1.10879   -0.67888
  5 C     0.37529   -1.05580   -0.30972
  6 C    -0.57239    0.05371    0.16511
  7 C    -4.40413    2.69042   -0.06476
  8 C    -2.47007    0.83164   -0.02556
  9 C    -0.19021   -1.08212   -0.41319
 10 C    -0.90782   -2.34132   -0.30581
 11 C    -0.32841   -0.01601   -0.02907
 12 C    -0.51298   -1.19415    0.01517
 13 C    -0.04135    0.82369    1.08507
 14 C    -0.20083    0.50667    0.06592
 15 C    -0.28819    0.15357   -0.35364
 16 C     0.47498    0.45464    0.15543
 17 C    -1.48468    0.38724   -2.01906
 18 C    -0.26299    1.80202   -0.11523
 19 C    -0.26800    0.50721    0.08851
 20 C     5.49037   -4.90153    0.11971
 21 C    -0.00332    1.05028   -0.08702
 22 C     3.18924    2.08963    0.80274
 23 C     0.01918   -1.67190    1.45589

System changes: positions 

Initializing position-dependent things.

Density initialized from wave functions
           .--------------------------------------.  
          /|                                      |  
         / |                                      |  
        /  |                                      |  
       /   |                                      |  
      /    |                                      |  
     /     |                                      |  
    /      |                                      |  
   /       |       C      C                       |  
  /        |          C    C  C                   |  
 *         |  C C   CC  C      C                  |  
 |         |             C  C  C                  |  
 |         .-C-C---C-C------C---------------------.  
 |        /    C    C     C                      /   
 |       /       C     C                        /    
 |      /                                      /     
 |     /                                      /      
 |    /                                      /       
 |   /                                      /        
 |  /                                      /         
 | /                                      /          
 |/                                      /           
 *--------------------------------------*            

Positions:
   0 C      4.804433    9.664783    6.359743
   1 C      5.441848    8.701740    5.756618
   2 C      7.557327    9.952208    6.095814
   3 C      6.234502    9.945267    5.981986
   4 C      9.835659    8.552538    6.184114
   5 C      5.836278    6.104762    5.520135
   6 C      7.606891    7.622898    5.788477
   7 C      9.440090    6.191241    5.747477
   8 C      8.102124    6.306053    5.672714
   9 C      6.196301    7.531821    5.674729
  10 C     10.350845    7.331603    5.996407
  11 C      8.409296    8.816692    6.020631
  12 C      7.011100    5.308964    5.504855
  13 C      3.453044    6.474913    5.365739
  14 C      4.616026    4.127312    5.211737
  15 C      4.499947    5.518802    5.386391
  16 C      5.603876    3.327868    5.236123
  17 C      3.547196    7.709156    5.747830
  18 C      6.938672    3.741217    5.398954
  19 C      8.188248    3.064038    5.485386
  20 C      9.841438    4.889321    5.720432
  21 C      9.317116    3.622383    5.615961
  22 C     10.943473    5.742253    5.832271
  23 C      3.702926    9.111315    5.532652

Unit cell:
           periodic     x           y           z      points  spacing
  1. axis:    yes   16.000000    0.000000    0.000000    80     0.2000
  2. axis:    yes    0.000000   16.000000    0.000000    80     0.2000
  3. axis:    yes    0.000000    0.000000   10.000000    48     0.2083

Effective grid spacing dv^(1/3) = 0.2027

                     log10-error:    total        iterations:
           time      wfs    density  energy       fermi  poisson
iter:   1  11:24:23          +inf  -178.546576    3      5      
iter:   2  11:24:24         -2.08  -178.520141    3      2      
iter:   3  11:24:24         -2.21  -178.501409    3      2      
iter:   4  11:24:25         -2.46  -178.498446    2      2      
iter:   5  11:24:26         -2.68  -178.497654    2      2      
iter:   6  11:24:26         -2.82  -178.497363    2      2      
iter:   7  11:24:27         -3.02  -178.497321    2      2      
iter:   8  11:24:28         -3.40  -178.497550    2      1      
iter:   9  11:24:28         -3.50  -178.498080    2      1      
iter:  10  11:24:29         -3.66  -178.498015    2      1      
iter:  11  11:24:29         -3.78  -178.498079    2      1      
iter:  12  11:24:30         -3.96  -178.497614    2      1      
iter:  13  11:24:31         -4.06  -178.497457    2      1      

Converged after 13 iterations.

Dipole moment: (0.284122, -0.297127, 0.005707) |e|*Ang

Energy contributions relative to reference atoms: (reference = -24663.074771)

Kinetic:       +122.657088
Potential:     -122.686944
External:        +0.000000
XC:            -181.424323
Entropy (-ST):   -0.070874
Local:           +2.992159
--------------------------
Free energy:   -178.532894
Extrapolated:  -178.497457

Fermi level: -3.93625

 Band  Eigenvalues  Occupancy
    0    -24.96859    2.00000
    1    -24.73939    2.00000
    2    -22.37230    2.00000
    3    -21.42286    2.00000
    4    -20.59423    2.00000
    5    -20.24447    2.00000
    6    -19.88025    2.00000
    7    -19.56432    2.00000
    8    -18.58441    2.00000
    9    -18.35515    2.00000
   10    -17.75998    2.00000
   11    -17.55735    2.00000
   12    -16.36298    2.00000
   13    -16.28560    2.00000
   14    -15.96189    2.00000
   15    -14.47261    2.00000
   16    -14.29936    2.00000
   17    -14.10100    2.00000
   18    -13.52310    2.00000
   19    -12.59469    2.00000
   20    -12.39717    2.00000
   21    -11.81975    2.00000
   22    -11.69413    2.00000
   23    -11.51582    2.00000
   24    -11.42491    2.00000
   25    -11.24368    2.00000
   26    -10.73901    2.00000
   27    -10.40384    2.00000
   28    -10.36846    2.00000
   29    -10.07302    2.00000
   30     -9.64438    2.00000
   31     -9.32624    2.00000
   32     -9.14064    2.00000
   33     -8.99845    2.00000
   34     -8.49214    2.00000
   35     -8.21509    2.00000
   36     -7.91264    2.00000
   37     -7.26703    2.00000
   38     -7.05932    2.00000
   39     -6.86874    2.00000
   40     -6.37497    2.00000
   41     -6.30437    2.00000
   42     -6.17531    2.00000
   43     -5.84904    2.00000
   44     -5.25863    2.00000
   45     -5.11014    1.99998
   46     -4.99938    1.99995
   47     -4.25910    1.92379
   48     -3.54554    0.03941
   49     -3.53442    0.03533
   50     -3.21665    0.00150
   51     -2.82077    0.00003
   52     -2.73121    0.00001
   53     -2.49125    0.00000
   54     -2.21019    0.00000
   55     -1.54974    0.00000
   56     -1.18474    0.00000
   57     -0.59960    0.00000
   58     -0.20850    0.00000
   59      0.10817    0.00000
   60      0.52263    0.00000
   61      0.67843    0.00000
   62      1.13431    0.00000
   63      1.63528    0.00000
   64      2.99785    0.00000
   65      3.82212    0.00000
   66      4.04111    0.00000
   67      4.29144    0.00000
   68      4.45824    0.00000
   69      4.98915    0.00000
   70      5.16204    0.00000
   71      5.29291    0.00000
   72      5.40468    0.00000
   73      6.24691    0.00000
   74      6.37573    0.00000
   75      6.67167    0.00000
   76      6.84708    0.00000
   77      7.53259    0.00000
   78      7.79640    0.00000
   79      8.14988    0.00000
   80      8.32273    0.00000
   81      8.43640    0.00000
   82      8.57040    0.00000
   83      8.87126    0.00000
   84      8.93491    0.00000
   85      8.96991    0.00000
   86      9.14934    0.00000
   87      9.29616    0.00000
   88      9.36048    0.00000
   89      9.52509    0.00000
   90      9.63163    0.00000
   91      9.77329    0.00000
   92      9.84175    0.00000
   93      9.94431    0.00000
   94     10.11882    0.00000
   95     10.26216    0.00000
   96     10.36360    0.00000
   97     10.41113    0.00000


Forces in eV/Ang:
  0 C    -1.56279    6.34348    1.96332
  1 C     3.66033   -6.23047   -2.80199
  2 C     0.35708    0.59201    0.51212
  3 C    -1.14746    1.06076    0.62454
  4 C     0.58665   -1.09064   -0.69659
  5 C     0.22010   -0.93055   -0.31793
  6 C    -0.51089    0.02716    0.14250
  7 C    -3.58916    1.80154   -0.00462
  8 C    -2.11061    0.53720   -0.02120
  9 C    -0.22242   -0.97454   -0.35105
 10 C    -0.85055   -2.16197   -0.28692
 11 C    -0.33497   -0.02779   -0.03304
 12 C    -0.52327   -1.00393    0.02616
 13 C    -0.12395    0.72204    0.97814
 14 C    -0.15286    0.36453    0.06081
 15 C    -0.29917    0.13448   -0.33313
 16 C     0.34035    0.47779    0.13245
 17 C    -1.34534    0.28114   -1.73632
 18 C    -0.19331    1.57240   -0.08786
 19 C    -0.16182    0.60658    0.09394
 20 C     4.85751   -3.88659    0.10945
 21 C     0.09068    0.95528   -0.08204
 22 C     2.71114    2.11049    0.75728
 23 C     0.30815   -1.33112    1.35922

System changes: positions 

Initializing position-dependent things.

Density initialized from wave functions
           .--------------------------------------.  
          /|                                      |  
         / |                                      |  
        /  |                                      |  
       /   |                                      |  
      /    |                                      |  
     /     |                                      |  
    /      |                                      |  
   /       |       C      C                       |  
  /        |          C    C  C                   |  
 *         |  C C   CC  C      C                  |  
 |         |             C  C  C                  |  
 |         .-C-C---C-C------C---------------------.  
 |        /    C    C  C  C                      /   
 |       /       C                              /    
 |      /                                      /     
 |     /                                      /      
 |    /                                      /       
 |   /                                      /        
 |  /                                      /         
 | /                                      /          
 |/                                      /           
 *--------------------------------------*            

Positions:
   0 C      4.814272    9.691150    6.347492
   1 C      5.441892    8.684156    5.757412
   2 C      7.557122    9.958264    6.100885
   3 C      6.228799    9.948104    5.987445
   4 C      9.838044    8.541382    6.176505
   5 C      5.834503    6.096007    5.516361
   6 C      7.603051    7.623334    5.789348
   7 C      9.422686    6.179410    5.748737
   8 C      8.088746    6.304406    5.672720
   9 C      6.193778    7.522960    5.671910
  10 C     10.341456    7.313260    5.993952
  11 C      8.405310    8.816517    6.020421
  12 C      7.004995    5.301943    5.505142
  13 C      3.450673    6.477404    5.372693
  14 C      4.615266    4.129009    5.212347
  15 C      4.497026    5.520267    5.383351
  16 C      5.604813    3.333281    5.237095
  17 C      3.536359    7.711655    5.736431
  18 C      6.938484    3.753532    5.398444
  19 C      8.188686    3.072126    5.486464
  20 C      9.880666    4.881547    5.721287
  21 C      9.318880    3.629645    5.615083
  22 C     10.958976    5.764774    5.838921
  23 C      3.714311    9.104626    5.546929

Unit cell:
           periodic     x           y           z      points  spacing
  1. axis:    yes   16.000000    0.000000    0.000000    80     0.2000
  2. axis:    yes    0.000000   16.000000    0.000000    80     0.2000
  3. axis:    yes    0.000000    0.000000   10.000000    48     0.2083

Effective grid spacing dv^(1/3) = 0.2027

                     log10-error:    total        iterations:
           time      wfs    density  energy       fermi  poisson
iter:   1  11:24:33          +inf  -179.347403    3      5      
iter:   2  11:24:34         -2.10  -179.321807    3      2      
iter:   3  11:24:34         -2.22  -179.303082    3      2      
iter:   4  11:24:35         -2.48  -179.300023    2      2      
iter:   5  11:24:36         -2.69  -179.299206    2      2      
iter:   6  11:24:36         -2.84  -179.299132    2      2      
iter:   7  11:24:37         -3.01  -179.298984    2      2      
iter:   8  11:24:38         -3.41  -179.299212    1      1      
iter:   9  11:24:38         -3.51  -179.299736    2      1      
iter:  10  11:24:39         -3.68  -179.299683    2      1      
iter:  11  11:24:39         -3.82  -179.299572    2      1      
iter:  12  11:24:40         -3.99  -179.299201    2      1      
iter:  13  11:24:41         -4.10  -179.299124    2      1      

Converged after 13 iterations.

Dipole moment: (0.261779, -0.281098, 0.002377) |e|*Ang

Energy contributions relative to reference atoms: (reference = -24663.074771)

Kinetic:       +120.989032
Potential:     -121.751491
External:        +0.000000
XC:            -181.505179
Entropy (-ST):   -0.057819
Local:           +2.997424
--------------------------
Free energy:   -179.328033
Extrapolated:  -179.299124

Fermi level: -3.91302

 Band  Eigenvalues  Occupancy
    0    -24.81507    2.00000
    1    -24.70508    2.00000
    2    -22.41493    2.00000
    3    -21.42116    2.00000
    4    -20.57883    2.00000
    5    -20.22956    2.00000
    6    -19.85299    2.00000
    7    -19.56852    2.00000
    8    -18.58723    2.00000
    9    -18.33438    2.00000
   10    -17.78410    2.00000
   11    -17.57020    2.00000
   12    -16.36121    2.00000
   13    -16.26349    2.00000
   14    -15.97454    2.00000
   15    -14.45978    2.00000
   16    -14.31658    2.00000
   17    -14.05661    2.00000
   18    -13.57454    2.00000
   19    -12.58668    2.00000
   20    -12.39277    2.00000
   21    -11.81971    2.00000
   22    -11.68407    2.00000
   23    -11.50461    2.00000
   24    -11.46545    2.00000
   25    -11.17407    2.00000
   26    -10.83664    2.00000
   27    -10.46798    2.00000
   28    -10.42712    2.00000
   29    -10.09981    2.00000
   30     -9.66886    2.00000
   31     -9.41336    2.00000
   32     -9.12239    2.00000
   33     -9.05452    2.00000
   34     -8.50570    2.00000
   35     -8.25742    2.00000
   36     -7.89820    2.00000
   37     -7.26386    2.00000
   38     -7.04727    2.00000
   39     -6.85936    2.00000
   40     -6.35981    2.00000
   41     -6.29207    2.00000
   42     -6.17689    2.00000
   43     -5.87619    2.00000
   44     -5.23513    2.00000
   45     -5.11201    1.99999
   46     -4.97965    1.99995
   47     -4.26244    1.94104
   48     -3.51035    0.03504
   49     -3.46633    0.02270
   50     -3.17487    0.00124
   51     -2.78888    0.00003
   52     -2.66547    0.00001
   53     -2.49117    0.00000
   54     -2.19698    0.00000
   55     -1.52272    0.00000
   56     -1.11052    0.00000
   57     -0.62807    0.00000
   58     -0.12544    0.00000
   59      0.33538    0.00000
   60      0.59339    0.00000
   61      0.70321    0.00000
   62      1.18330    0.00000
   63      1.71220    0.00000
   64      3.01197    0.00000
   65      3.90119    0.00000
   66      4.08526    0.00000
   67      4.31654    0.00000
   68      4.45876    0.00000
   69      4.98715    0.00000
   70      5.10193    0.00000
   71      5.26112    0.00000
   72      5.34015    0.00000
   73      6.06993    0.00000
   74      6.33110    0.00000
   75      6.66823    0.00000
   76      6.88857    0.00000
   77      7.54988    0.00000
   78      7.76248    0.00000
   79      8.24337    0.00000
   80      8.43134    0.00000
   81      8.56748    0.00000
   82      8.60873    0.00000
   83      8.90003    0.00000
   84      8.96647    0.00000
   85      8.99292    0.00000
   86      9.15869    0.00000
   87      9.28550    0.00000
   88      9.36194    0.00000
   89      9.53572    0.00000
   90      9.67833    0.00000
   91      9.77453    0.00000
   92      9.85791    0.00000
   93      9.96829    0.00000
   94     10.12477    0.00000
   95     10.24800    0.00000
   96     10.35234    0.00000
   97     10.40902    0.00000


Forces in eV/Ang:
  0 C    -1.32974    5.30455    1.46685
  1 C     2.79817   -4.96949   -2.28315
  2 C     0.27805    0.54419    0.51145
  3 C    -0.75055    0.76855    0.51491
  4 C     0.39651   -1.04673   -0.66295
  5 C     0.03426   -0.79748   -0.30993
  6 C    -0.45634   -0.02233    0.11364
  7 C    -2.89446    1.10471    0.04631
  8 C    -1.72581    0.28605    0.01298
  9 C    -0.24903   -0.85631   -0.28107
 10 C    -0.77454   -1.86663   -0.27046
 11 C    -0.31479   -0.07313   -0.04355
 12 C    -0.49409   -0.80825    0.01447
 13 C    -0.17290    0.47993    0.84112
 14 C    -0.21933    0.33551    0.05512
 15 C    -0.31639    0.10452   -0.30910
 16 C     0.33355    0.41830    0.11590
 17 C    -1.20572    0.31375   -1.42316
 18 C    -0.14133    1.30172   -0.07469
 19 C    -0.07408    0.69230    0.09255
 20 C     4.20281   -3.04048    0.07537
 21 C     0.20451    0.87546   -0.06988
 22 C     2.26356    2.01526    0.70170
 23 C     0.59031   -1.06633    1.23890

System changes: positions 

Initializing position-dependent things.

Density initialized from wave functions
           .--------------------------------------.  
          /|                                      |  
         / |                                      |  
        /  |                                      |  
       /   |                                      |  
      /    |                                      |  
     /     |                                      |  
    /      |                                      |  
   /       |       C      C                       |  
  /        |          C    C  C                   |  
 *         |  C C   C   C      C                  |  
 |         | C       C   C  C  C                  |  
 |         .---C---C-C------C---------------------.  
 |        /    C    C  C  C                      /   
 |       /       C                              /    
 |      /                                      /     
 |     /                                      /      
 |    /                                      /       
 |   /                                      /        
 |  /                                      /         
 | /                                      /          
 |/                                      /           
 *--------------------------------------*            

Positions:
   0 C      4.821552    9.717936    6.335823
   1 C      5.440443    8.668661    5.757226
   2 C      7.557472    9.964572    6.106901
   3 C      6.225642    9.949621    5.992337
   4 C      9.839211    8.529087    6.168337
   5 C      5.831117    6.087595    5.512287
   6 C      7.599052    7.622950    5.790119
   7 C      9.406164    6.165655    5.750517
   8 C      8.075977    6.301262    5.673177
   9 C      6.190582    7.513848    5.669390
  10 C     10.331977    7.295027    5.991174
  11 C      8.401046    8.815579    6.019949
  12 C      6.998590    5.295620    5.505295
  13 C      3.447529    6.478507    5.379837
  14 C      4.613076    4.131230    5.212971
  15 C      4.493288    5.521483    5.380040
  16 C      5.606707    3.338487    5.238107
  17 C      3.524799    7.715049    5.725644
  18 C      6.938453    3.765059    5.397914
  19 C      8.189713    3.082181    5.487650
  20 C      9.919964    4.874110    5.721857
  21 C      9.322490    3.637837    5.614269
  22 C     10.974681    5.789223    5.846215
  23 C      3.729088    9.098414    5.561555

Unit cell:
           periodic     x           y           z      points  spacing
  1. axis:    yes   16.000000    0.000000    0.000000    80     0.2000
  2. axis:    yes    0.000000   16.000000    0.000000    80     0.2000
  3. axis:    yes    0.000000    0.000000   10.000000    48     0.2083

Effective grid spacing dv^(1/3) = 0.2027

                     log10-error:    total        iterations:
           time      wfs    density  energy       fermi  poisson
iter:   1  11:24:43          +inf  -180.022755    3      5      
iter:   2  11:24:44         -2.12  -180.001298    2      2      
iter:   3  11:24:44         -2.25  -179.984177    3      2      
iter:   4  11:24:45         -2.49  -179.981136    2      2      
iter:   5  11:24:46         -2.71  -179.980363    2      2      
iter:   6  11:24:46         -2.86  -179.980440    2      2      
iter:   7  11:24:47         -3.02  -179.980209    2      2      
iter:   8  11:24:47         -3.44  -179.980394    1      1      
iter:   9  11:24:48         -3.53  -179.980771    2      1      
iter:  10  11:24:49         -3.72  -179.980748    2      1      
iter:  11  11:24:49         -3.87  -179.980649    2      1      
iter:  12  11:24:50         -4.08  -179.980290    2      1      

Converged after 12 iterations.

Dipole moment: (0.233427, -0.263864, -0.002300) |e|*Ang

Energy contributions relative to reference atoms: (reference = -24663.074771)

Kinetic:       +119.292148
Potential:     -120.711092
External:        +0.000000
XC:            -181.536353
Entropy (-ST):   -0.048437
Local:           +2.999226
--------------------------
Free energy:   -180.004508
Extrapolated:  -179.980290

Fermi level: -3.89549

 Band  Eigenvalues  Occupancy
    0    -24.71048    2.00000
    1    -24.62931    2.00000
    2    -22.45404    2.00000
    3    -21.42135    2.00000
    4    -20.56820    2.00000
    5    -20.21511    2.00000
    6    -19.83099    2.00000
    7    -19.56759    2.00000
    8    -18.59769    2.00000
    9    -18.30473    2.00000
   10    -17.80956    2.00000
   11    -17.57564    2.00000
   12    -16.36166    2.00000
   13    -16.24769    2.00000
   14    -15.98030    2.00000
   15    -14.45324    2.00000
   16    -14.33172    2.00000
   17    -14.00827    2.00000
   18    -13.63779    2.00000
   19    -12.58110    2.00000
   20    -12.39071    2.00000
   21    -11.83312    2.00000
   22    -11.67879    2.00000
   23    -11.55718    2.00000
   24    -11.42810    2.00000
   25    -11.11388    2.00000
   26    -10.92391    2.00000
   27    -10.54541    2.00000
   28    -10.46160    2.00000
   29    -10.12064    2.00000
   30     -9.69317    2.00000
   31     -9.48755    2.00000
   32     -9.10729    2.00000
   33     -9.09797    2.00000
   34     -8.52844    2.00000
   35     -8.28818    2.00000
   36     -7.88084    2.00000
   37     -7.25581    2.00000
   38     -7.04375    2.00000
   39     -6.84315    2.00000
   40     -6.34855    2.00000
   41     -6.27504    2.00000
   42     -6.17458    2.00000
   43     -5.89413    2.00000
   44     -5.20701    2.00000
   45     -5.11513    1.99999
   46     -4.95342    1.99995
   47     -4.26697    1.95244
   48     -3.48628    0.03286
   49     -3.39801    0.01372
   50     -3.13660    0.00101
   51     -2.77512    0.00003
   52     -2.60173    0.00000
   53     -2.48835    0.00000
   54     -2.18478    0.00000
   55     -1.50388    0.00000
   56     -1.05165    0.00000
   57     -0.65233    0.00000
   58     -0.04773    0.00000
   59      0.48388    0.00000
   60      0.71657    0.00000
   61      0.74031    0.00000
   62      1.23458    0.00000
   63      1.80217    0.00000
   64      3.02132    0.00000
   65      3.94469    0.00000
   66      4.13323    0.00000
   67      4.29339    0.00000
   68      4.45701    0.00000
   69      4.98913    0.00000
   70      5.01672    0.00000
   71      5.17655    0.00000
   72      5.33288    0.00000
   73      5.92079    0.00000
   74      6.29472    0.00000
   75      6.66940    0.00000
   76      6.94745    0.00000
   77      7.52302    0.00000
   78      7.74623    0.00000
   79      8.30959    0.00000
   80      8.47843    0.00000
   81      8.63800    0.00000
   82      8.72204    0.00000
   83      8.92240    0.00000
   84      8.99334    0.00000
   85      9.08229    0.00000
   86      9.16501    0.00000
   87      9.26833    0.00000
   88      9.36444    0.00000
   89      9.53785    0.00000
   90      9.72285    0.00000
   91      9.79134    0.00000
   92      9.86834    0.00000
   93     10.00575    0.00000
   94     10.11556    0.00000
   95     10.23771    0.00000
   96     10.34339    0.00000
   97     10.40916    0.00000


Forces in eV/Ang:
  0 C    -1.13193    4.35084    1.09650
  1 C     2.09545   -3.81094   -1.84340
  2 C     0.25847    0.47015    0.47773
  3 C    -0.44139    0.49891    0.38269
  4 C     0.21262   -1.00886   -0.66245
  5 C    -0.08209   -0.65806   -0.31632
  6 C    -0.41564   -0.06490    0.08414
  7 C    -2.21288    0.52277    0.07315
  8 C    -1.35971    0.08439    0.05390
  9 C    -0.28919   -0.68403   -0.21260
 10 C    -0.71037   -1.59141   -0.23006
 11 C    -0.28172   -0.11156   -0.05623
 12 C    -0.48074   -0.60141    0.00411
 13 C    -0.22475    0.41486    0.73811
 14 C    -0.14160    0.16165    0.04614
 15 C    -0.33525    0.07984   -0.27314
 16 C     0.17047    0.44846    0.09406
 17 C    -1.08330    0.23144   -1.16403
 18 C    -0.05582    1.04608   -0.05103
 19 C     0.05991    0.75755    0.07886
 20 C     3.55527   -2.25487    0.05546
 21 C     0.27160    0.75609   -0.06615
 22 C     1.83506    1.82616    0.63940
 23 C     0.80719   -0.88431    1.07394

System changes: positions 

Initializing position-dependent things.

Density initialized from wave functions
           .--------------------------------------.  
          /|                                      |  
         / |                                      |  
        /  |                                      |  
       /   |                                      |  
      /    |                                      |  
     /     |                                      |  
    /      |                                      |  
   /       |       C      C                       |  
  /        |          C    C  C                   |  
 *         |  C C   C   C      C                  |  
 |         | C       C   C  C  C                  |  
 |         .---C---C-C------C---------------------.  
 |        /    C    C  C  C                      /   
 |       /       C                              /    
 |      /                                      /     
 |     /                                      /      
 |    /                                      /       
 |   /                                      /        
 |  /                                      /         
 | /                                      /          
 |/                                      /           
 *--------------------------------------*            

Positions:
   0 C      4.826550    9.745232    6.325285
   1 C      5.438302    8.655579    5.755898
   2 C      7.559074    9.970816    6.113477
   3 C      6.224252    9.949688    5.996294
   4 C      9.839001    8.515273    6.158925
   5 C      5.826762    6.079589    5.507582
   6 C      7.594656    7.621801    5.790752
   7 C      9.391046    6.150149    5.752571
   8 C      8.063959    6.296846    5.674254
   9 C      6.186381    7.505306    5.667196
[...]

Kinetic:       +114.527940
Potential:     -119.989326
External:        +0.000000
XC:            -180.991492
Entropy (-ST):   -0.029978
Local:           +3.010611
--------------------------
Free energy:   -183.472245
Extrapolated:  -183.457256

Fermi level: -4.20475

 Band  Eigenvalues  Occupancy
    0    -23.51497    2.00000
    1    -23.20831    2.00000
    2    -22.30792    2.00000
    3    -21.39418    2.00000
    4    -20.42222    2.00000
    5    -20.13735    2.00000
    6    -19.48093    2.00000
    7    -19.38325    2.00000
    8    -18.26585    2.00000
    9    -18.01911    2.00000
   10    -17.78966    2.00000
   11    -17.15831    2.00000
   12    -16.19560    2.00000
   13    -15.86436    2.00000
   14    -15.68187    2.00000
   15    -14.52945    2.00000
   16    -14.15498    2.00000
   17    -13.65361    2.00000
   18    -13.31586    2.00000
   19    -12.99462    2.00000
   20    -12.05807    2.00000
   21    -11.91934    2.00000
   22    -11.74343    2.00000
   23    -11.36466    2.00000
   24    -11.21236    2.00000
   25    -10.82536    2.00000
   26    -10.55718    2.00000
   27    -10.47428    2.00000
   28    -10.33157    2.00000
   29    -10.25080    2.00000
   30     -9.73666    2.00000
   31     -9.52116    2.00000
   32     -9.17964    2.00000
   33     -8.90023    2.00000
   34     -8.76355    2.00000
   35     -8.25132    2.00000
   36     -7.77208    2.00000
   37     -7.07363    2.00000
   38     -6.97414    2.00000
   39     -6.66634    2.00000
   40     -6.48428    2.00000
   41     -6.27473    2.00000
   42     -6.11513    2.00000
   43     -5.82397    2.00000
   44     -5.24723    1.99994
   45     -4.96990    1.99905
   46     -4.78889    1.99421
   47     -4.66779    1.98069
   48     -3.76960    0.02545
   49     -3.40343    0.00066
   50     -2.89709    0.00000
   51     -2.82255    0.00000
   52     -2.43983    0.00000
   53     -2.35541    0.00000
   54     -2.00778    0.00000
   55     -1.91968    0.00000
   56     -1.58435    0.00000
   57     -0.19892    0.00000
   58      0.16680    0.00000
   59      0.60599    0.00000
   60      0.66646    0.00000
   61      1.55188    0.00000
   62      2.19820    0.00000
   63      2.90550    0.00000
   64      3.46810    0.00000
   65      3.74872    0.00000
   66      4.20712    0.00000
   67      4.50944    0.00000
   68      4.61579    0.00000
   69      4.74943    0.00000
   70      5.36908    0.00000
   71      5.58167    0.00000
   72      5.76081    0.00000
   73      6.02530    0.00000
   74      6.07425    0.00000
   75      6.72219    0.00000
   76      7.03411    0.00000
   77      7.69752    0.00000
   78      8.02664    0.00000
   79      8.42639    0.00000
   80      8.57207    0.00000
   81      8.89039    0.00000
   82      8.98571    0.00000
   83      9.07916    0.00000
   84      9.12964    0.00000
   85      9.19728    0.00000
   86      9.42028    0.00000
   87      9.46026    0.00000
   88      9.63428    0.00000
   89      9.79065    0.00000
   90      9.83570    0.00000
   91     10.02417    0.00000
   92     10.07709    0.00000
   93     10.13158    0.00000
   94     10.32776    0.00000
   95     10.42485    0.00000
   96     10.45961    0.00000
   97     10.56096    0.00000


Forces in eV/Ang:
  0 C     0.04659   -0.07345   -0.06072
  1 C    -0.04037    0.05427    0.07939
  2 C    -0.04343    0.01416    0.01294
  3 C    -0.01177   -0.01246    0.00206
  4 C     0.06150   -0.02150    0.02822
  5 C    -0.07299    0.05870    0.05939
  6 C    -0.08169   -0.03956   -0.01203
  7 C     0.03952   -0.07316   -0.03345
  8 C    -0.00565   -0.09553   -0.01961
  9 C    -0.06466    0.02266   -0.03235
 10 C     0.13955    0.01153   -0.00020
 11 C    -0.01858   -0.01047   -0.00853
 12 C    -0.10649    0.00925   -0.06661
 13 C     0.01964   -0.00373   -0.02281
 14 C     0.08766    0.01836    0.02577
 15 C    -0.00564    0.02100   -0.07237
 16 C     0.01910    0.04639    0.04247
 17 C    -0.06326   -0.02902    0.04055
 18 C     0.02902   -0.03671    0.02094
 19 C     0.04398    0.05076   -0.00284
 20 C     0.03708    0.04109    0.00458
 21 C    -0.02879    0.04426    0.01857
 22 C    -0.07456   -0.00572    0.02137
 23 C     0.05974   -0.01097    0.00862

System changes: positions 

Initializing position-dependent things.

Density initialized from wave functions
           .--------------------------------------.  
          /|                                      |  
         / |                                      |  
        /  |                                      |  
       /   |                                      |  
      /    |                                      |  
     /     |                                      |  
    /      |                                      |  
   /       |       C     C                        |  
  /        |          C    C  C                   |  
 *         |  C  C  C   C      C                  |  
 |         | C       C  C   C   C                 |  
 |         .---C---C-C-------C--------------------.  
 |        /    C    C  C  C                      /   
 |       /       C                              /    
 |      /                                      /     
 |     /                                      /      
 |    /                                      /       
 |   /                                      /        
 |  /                                      /         
 | /                                      /          
 |/                                      /           
 *--------------------------------------*            

Positions:
   0 C      4.701963   10.030113    6.421235
   1 C      5.477931    8.663646    5.466867
   2 C      7.475473    9.857193    6.157090
   3 C      6.154518    9.881264    5.919297
   4 C      9.742451    8.380008    6.052590
   5 C      5.737523    6.060957    5.475762
   6 C      7.537819    7.525276    5.864171
   7 C      9.368158    6.024917    5.717805
   8 C      8.024433    6.194548    5.753044
   9 C      6.144909    7.460552    5.647361
  10 C     10.266137    7.171006    5.932166
  11 C      8.332883    8.731219    6.028216
  12 C      6.915913    5.270760    5.517815
  13 C      3.396156    6.554617    5.472852
  14 C      4.542257    4.117672    5.249820
  15 C      4.392725    5.522252    5.378541
  16 C      5.606698    3.415587    5.247759
  17 C      3.305305    7.801559    5.645192
  18 C      6.956422    3.831004    5.385503
  19 C      8.302975    3.319194    5.459615
  20 C     10.257013    4.900699    5.691799
  21 C      9.497009    3.713746    5.579759
  22 C     11.194173    5.913569    6.053362
  23 C      4.068551    8.990392    5.679568

Unit cell:
           periodic     x           y           z      points  spacing
  1. axis:    yes   16.000000    0.000000    0.000000    80     0.2000
  2. axis:    yes    0.000000   16.000000    0.000000    80     0.2000
  3. axis:    yes    0.000000    0.000000   10.000000    48     0.2083

Effective grid spacing dv^(1/3) = 0.2027

                     log10-error:    total        iterations:
           time      wfs    density  energy       fermi  poisson
iter:   1  11:29:26          +inf  -183.460055    2      4      
iter:   2  11:29:27         -2.96  -183.459127    1      1      
iter:   3  11:29:27         -3.15  -183.458726    1      1      
iter:   4  11:29:28         -3.39  -183.458414    2      1      
iter:   5  11:29:28         -3.58  -183.458553    1      1      
iter:   6  11:29:29         -3.60  -183.458858    1      1      
iter:   7  11:29:30         -3.72  -183.458562    2      1      
iter:   8  11:29:30         -3.89  -183.458817    1      1      
iter:   9  11:29:31         -4.25  -183.458959    1      1      

Converged after 9 iterations.

Dipole moment: (-0.010735, -0.157774, -0.161331) |e|*Ang

Energy contributions relative to reference atoms: (reference = -24663.074771)

Kinetic:       +114.648254
Potential:     -120.075299
External:        +0.000000
XC:            -181.043829
Entropy (-ST):   -0.029963
Local:           +3.026896
--------------------------
Free energy:   -183.473940
Extrapolated:  -183.458959

Fermi level: -4.20119

 Band  Eigenvalues  Occupancy
    0    -23.51530    2.00000
    1    -23.21875    2.00000
    2    -22.31271    2.00000
    3    -21.39222    2.00000
    4    -20.42568    2.00000
    5    -20.13335    2.00000
    6    -19.48234    2.00000
    7    -19.38396    2.00000
    8    -18.27182    2.00000
    9    -18.01920    2.00000
   10    -17.79023    2.00000
   11    -17.15843    2.00000
   12    -16.19930    2.00000
   13    -15.86590    2.00000
   14    -15.68185    2.00000
   15    -14.53188    2.00000
   16    -14.15300    2.00000
   17    -13.65384    2.00000
   18    -13.31782    2.00000
   19    -12.99771    2.00000
   20    -12.05830    2.00000
   21    -11.91851    2.00000
   22    -11.74524    2.00000
   23    -11.36140    2.00000
   24    -11.22225    2.00000
   25    -10.82653    2.00000
   26    -10.55452    2.00000
   27    -10.47787    2.00000
   28    -10.33144    2.00000
   29    -10.25258    2.00000
   30     -9.74241    2.00000
   31     -9.52731    2.00000
   32     -9.18580    2.00000
   33     -8.89667    2.00000
   34     -8.76608    2.00000
   35     -8.25493    2.00000
   36     -7.77114    2.00000
   37     -7.07263    2.00000
   38     -6.97378    2.00000
   39     -6.66627    2.00000
   40     -6.48837    2.00000
   41     -6.27178    2.00000
   42     -6.11721    2.00000
   43     -5.82251    2.00000
   44     -5.24300    1.99994
   45     -4.97111    1.99909
   46     -4.78401    1.99413
   47     -4.66451    1.98074
   48     -3.76586    0.02540
   49     -3.40330    0.00069
   50     -2.88963    0.00000
   51     -2.82784    0.00000
   52     -2.43739    0.00000
   53     -2.35046    0.00000
   54     -2.00149    0.00000
   55     -1.91368    0.00000
   56     -1.58539    0.00000
   57     -0.18927    0.00000
   58      0.17533    0.00000
   59      0.61114    0.00000
   60      0.67188    0.00000
   61      1.54863    0.00000
   62      2.20812    0.00000
   63      2.91517    0.00000
   64      3.46981    0.00000
   65      3.73918    0.00000
   66      4.20781    0.00000
   67      4.50315    0.00000
   68      4.61849    0.00000
   69      4.75120    0.00000
   70      5.37371    0.00000
   71      5.58710    0.00000
   72      5.75395    0.00000
   73      6.01530    0.00000
   74      6.07319    0.00000
   75      6.72355    0.00000
   76      7.04110    0.00000
   77      7.70173    0.00000
   78      8.03283    0.00000
   79      8.42557    0.00000
   80      8.57078    0.00000
   81      8.89311    0.00000
   82      8.98603    0.00000
   83      9.07837    0.00000
   84      9.13203    0.00000
   85      9.19629    0.00000
   86      9.42242    0.00000
   87      9.46221    0.00000
   88      9.62911    0.00000
   89      9.79621    0.00000
   90      9.83672    0.00000
   91     10.02384    0.00000
   92     10.07581    0.00000
   93     10.14134    0.00000
   94     10.33194    0.00000
   95     10.42893    0.00000
   96     10.46343    0.00000
   97     10.55972    0.00000


Forces in eV/Ang:
  0 C     0.03101   -0.04090   -0.00948
  1 C    -0.05020    0.05252    0.02080
  2 C    -0.02935   -0.00439    0.00993
  3 C     0.00779    0.00904   -0.00134
  4 C     0.01594   -0.02919    0.03104
  5 C    -0.05567    0.04187    0.03206
  6 C    -0.05080   -0.01017   -0.01173
  7 C     0.05650   -0.07827   -0.03592
  8 C    -0.02558   -0.03942   -0.01804
  9 C    -0.03373   -0.00139   -0.01362
 10 C     0.06940    0.01501   -0.00106
 11 C    -0.00118   -0.02871   -0.01117
 12 C    -0.06410    0.01330   -0.04397
 13 C     0.00635   -0.00554   -0.02347
 14 C     0.05730    0.02985    0.02029
 15 C     0.00396    0.01028   -0.05098
 16 C     0.02025    0.01112    0.03576
 17 C    -0.05826   -0.01896    0.03096
 18 C     0.01212   -0.01898    0.01211
 19 C     0.03106    0.02154   -0.00384
 20 C     0.01576    0.04137   -0.00666
 21 C    -0.01830    0.04005    0.02186
 22 C    -0.02785    0.00123    0.02564
 23 C     0.03346   -0.02927   -0.00501

System changes: positions 

Initializing position-dependent things.

Density initialized from wave functions
           .--------------------------------------.  
          /|                                      |  
         / |                                      |  
        /  |                                      |  
       /   |                                      |  
      /    |                                      |  
     /     |                                      |  
    /      |                                      |  
   /       |       C     C                        |  
  /        |          C    C                      |  
 *         |  C  C  C   C     CC                  |  
 |         | C       C  C   C   C                 |  
 |         .---C---C-C-------C--------------------.  
 |        /    C    C  C  C                      /   
 |       /       C                              /    
 |      /                                      /     
 |     /                                      /      
 |    /                                      /       
 |   /                                      /        
 |  /                                      /         
 | /                                      /          
 |/                                      /           
 *--------------------------------------*            

Positions:
   0 C      4.701446   10.032858    6.419206
   1 C      5.476498    8.663424    5.469577
   2 C      7.474550    9.855573    6.157935
   3 C      6.154021    9.880418    5.919194
   4 C      9.743989    8.378239    6.052891
   5 C      5.734965    6.061961    5.476717
   6 C      7.536920    7.523351    5.862838
   7 C      9.369287    6.023665    5.717151
   8 C      8.023810    6.192012    5.751022
   9 C      6.143599    7.460102    5.647753
  10 C     10.269665    7.170217    5.932189
  11 C      8.333084    8.728866    6.027784
  12 C      6.913151    5.270855    5.515602
  13 C      3.395840    6.555813    5.470555
  14 C      4.543724    4.118332    5.250547
  15 C      4.391481    5.522692    5.375846
  16 C      5.607596    3.415962    5.249252
  17 C      3.303562    7.801998    5.647414
  18 C      6.956709    3.831346    5.385978
  19 C      8.304040    3.323138    5.459763
  20 C     10.259485    4.900505    5.692558
  21 C      9.498199    3.715117    5.581164
  22 C     11.196176    5.913831    6.053422
  23 C      4.068121    8.990518    5.680862

Unit cell:
           periodic     x           y           z      points  spacing
  1. axis:    yes   16.000000    0.000000    0.000000    80     0.2000
  2. axis:    yes    0.000000   16.000000    0.000000    80     0.2000
  3. axis:    yes    0.000000    0.000000   10.000000    48     0.2083

Effective grid spacing dv^(1/3) = 0.2027

                     log10-error:    total        iterations:
           time      wfs    density  energy       fermi  poisson
iter:   1  11:29:33          +inf  -183.460538    2      4      
iter:   2  11:29:34         -3.11  -183.460168    2      1      
iter:   3  11:29:34         -3.26  -183.459950    2      1      
iter:   4  11:29:35         -3.43  -183.459697    2      1      
iter:   5  11:29:36         -3.66  -183.459865    2      1      
iter:   6  11:29:36         -3.68  -183.460288    2      1      
iter:   7  11:29:37         -3.43  -183.459875    2      1      
iter:   8  11:29:38         -3.99  -183.460028    2      1      
iter:   9  11:29:38         -4.21  -183.460112    2      1      

Converged after 9 iterations.

Dipole moment: (-0.011392, -0.156868, -0.161110) |e|*Ang

Energy contributions relative to reference atoms: (reference = -24663.074771)

Kinetic:       +114.686724
Potential:     -120.092753
External:        +0.000000
XC:            -181.061888
Entropy (-ST):   -0.030267
Local:           +3.022938
--------------------------
Free energy:   -183.475246
Extrapolated:  -183.460112

Fermi level: -4.19948

 Band  Eigenvalues  Occupancy
    0    -23.51322    2.00000
    1    -23.22147    2.00000
    2    -22.31761    2.00000
    3    -21.39066    2.00000
    4    -20.43080    2.00000
    5    -20.13090    2.00000
    6    -19.48104    2.00000
    7    -19.38499    2.00000
    8    -18.27466    2.00000
    9    -18.01963    2.00000
   10    -17.79062    2.00000
   11    -17.15347    2.00000
   12    -16.20282    2.00000
   13    -15.86590    2.00000
   14    -15.68054    2.00000
   15    -14.53556    2.00000
   16    -14.15137    2.00000
   17    -13.65331    2.00000
   18    -13.31723    2.00000
   19    -13.00372    2.00000
   20    -12.05975    2.00000
   21    -11.91982    2.00000
   22    -11.74590    2.00000
   23    -11.35884    2.00000
   24    -11.22413    2.00000
   25    -10.82603    2.00000
   26    -10.55177    2.00000
   27    -10.47727    2.00000
   28    -10.33103    2.00000
   29    -10.25326    2.00000
   30     -9.74771    2.00000
   31     -9.53298    2.00000
   32     -9.19079    2.00000
   33     -8.89565    2.00000
   34     -8.76682    2.00000
   35     -8.25838    2.00000
   36     -7.76965    2.00000
   37     -7.07263    2.00000
   38     -6.97339    2.00000
   39     -6.66667    2.00000
   40     -6.49065    2.00000
   41     -6.26911    2.00000
   42     -6.11855    2.00000
   43     -5.82136    2.00000
   44     -5.24044    1.99994
   45     -4.97069    1.99911
   46     -4.78335    1.99419
   47     -4.66064    1.98032
   48     -3.76548    0.02574
   49     -3.40352    0.00070
   50     -2.88454    0.00000
   51     -2.83006    0.00000
   52     -2.43846    0.00000
   53     -2.34783    0.00000
   54     -1.99654    0.00000
   55     -1.90282    0.00000
   56     -1.58864    0.00000
   57     -0.18528    0.00000
   58      0.17901    0.00000
   59      0.61357    0.00000
   60      0.67257    0.00000
   61      1.54836    0.00000
   62      2.21491    0.00000
   63      2.91824    0.00000
   64      3.47070    0.00000
   65      3.73420    0.00000
   66      4.20840    0.00000
   67      4.49494    0.00000
   68      4.61199    0.00000
   69      4.75555    0.00000
   70      5.37468    0.00000
   71      5.59487    0.00000
   72      5.74795    0.00000
   73      6.00760    0.00000
   74      6.07000    0.00000
   75      6.71860    0.00000
   76      7.04345    0.00000
   77      7.70753    0.00000
   78      8.03484    0.00000
   79      8.42349    0.00000
   80      8.56727    0.00000
   81      8.89220    0.00000
   82      8.98768    0.00000
   83      9.07622    0.00000
   84      9.13366    0.00000
   85      9.19640    0.00000
   86      9.42584    0.00000
   87      9.46415    0.00000
   88      9.62758    0.00000
   89      9.80066    0.00000
   90      9.83673    0.00000
   91     10.02325    0.00000
   92     10.07362    0.00000
   93     10.14727    0.00000
   94     10.33448    0.00000
   95     10.43193    0.00000
   96     10.46591    0.00000
   97     10.55949    0.00000


Forces in eV/Ang:
  0 C     0.01830   -0.04957   -0.00272
  1 C    -0.02184    0.02090    0.00000
  2 C     0.01330   -0.03595    0.00170
  3 C     0.02605    0.03100    0.00401
  4 C    -0.03057   -0.01165    0.03084
  5 C    -0.01733    0.00389   -0.01254
  6 C    -0.01350   -0.00010   -0.01321
  7 C     0.01436   -0.04987   -0.03588
  8 C     0.02893    0.00946   -0.01937
  9 C    -0.02861    0.01502   -0.00400
 10 C     0.01213   -0.01475   -0.00481
 11 C    -0.01127   -0.01735   -0.00872
 12 C    -0.00867    0.01538   -0.01362
 13 C    -0.01162   -0.01785   -0.02025
 14 C     0.01085    0.02534    0.00653
 15 C    -0.00231    0.00867   -0.02209
 16 C     0.00306   -0.01510    0.02878
 17 C    -0.04546   -0.01428    0.01477
 18 C     0.01086   -0.00324    0.00397
 19 C    -0.00423   -0.01822   -0.00167
 20 C     0.00540    0.06520   -0.01032
 21 C     0.00321    0.01782    0.01603
 22 C    -0.00442   -0.00335    0.03578
 23 C     0.00590   -0.02434   -0.00289

