
  ___ ___ ___ _ _ _  
 |   |   |_  | | | | 
 | | | | | . | | | | 
 |__ |  _|___|_____|  1.3.0b1
 |___|_|             

User:   esb@s65n11.grendel.cscaa.dk
Date:   Thu Nov  9 11:02:48 2017
Arch:   x86_64
Pid:    76858
Python: 2.7.13
gpaw:   /home/esb/DFT/gpaw_git/gpaw
_gpaw:  /home/esb/DFT/gpaw_git/build/bin.linux-x86_64-2.7/gpaw-python
ase:    /home/esb/DFT/ase_git/ase (version 3.15.0b1)
numpy:  /comm/swstack/core/python/2.7.13/lib/python2.7/site-packages/numpy (version 1.13.3)
scipy:  /comm/swstack/core/python/2.7.13/lib/python2.7/site-packages/scipy (version 0.19.1)
units:  Angstrom and eV
cores:  16
Extra parameters: {'blacs': True}

Input parameters:
  basis: dzp
  gpts: [80 80 48]
  kpts: [1 1 1]
  maxiter: 99
  mixer: {backend: pulay,
          beta: 0.05,
          method: separate,
          nmaxold: 5,
          weight: 75}
  mode: lcao
  nbands: -50
  occupations: {name: fermi-dirac,
                width: 0.1}
  poissonsolver: {eps: 1e-07,
                  name: fd,
                  nn: 3,
                  relax: GS}
  xc: PBE

System changes: positions, numbers, cell, pbc, initial_charges, initial_magmoms 

Initialize ...

C-setup:
  name: Carbon
  id: 4aa54d4b901d75f77cc0ea3eec22967b
  Z: 6
  valence: 4
  core: 2
  charge: 0.0
  file: /home/esb/DFT/gpaw-setups-0.8.7929/C.PBE.gz
  cutoffs: 0.64(comp), 1.14(filt), 1.14(core), lmax=2
  valence states:
                energy  radius
    2s(2.00)   -13.751   0.635
    2p(2.00)    -5.284   0.635
    *s          13.461   0.635
    *p          21.927   0.635
    *d           0.000   0.635

  LCAO basis set for C:
    Name: dzp
    File: /home/esb/DFT/gpaw-setups-0.8.7929/C.dzp.basis.gz
    Number of radial functions: 5
    Number of spherical harmonics: 13
      l=0, rc=5.5469 Bohr: 2s-sz confined orbital
      l=1, rc=6.6719 Bohr: 2p-sz confined orbital
      l=0, rc=3.0312 Bohr: 2s-dz split-valence wave
      l=1, rc=3.7500 Bohr: 2p-dz split-valence wave
      l=2, rc=6.6719 Bohr: d-type Gaussian polarization

Reference energy: -24663.074771

Spin-paired calculation

Occupation numbers:
  Fermi-Dirac: width=0.1000 eV

Convergence criteria:
  Maximum total energy change: 0.0005 eV / electron
  Maximum integral of absolute density change: 0.0001 electrons
  Maximum integral of absolute eigenstate change: 4e-08 eV^2
  Maximum number of iterations: 99

Symmetries present (total): 1

  ( 1  0  0)
  ( 0  1  0)
  ( 0  0  1)

1 k-point (Gamma)
1 k-point in the irreducible part of the Brillouin zone
       k-points in crystal coordinates                weights
   0:     0.00000000    0.00000000    0.00000000          1/1

Wave functions: LCAO
  Diagonalizer: Serial LAPACK
  Atomic Correction: dense with blas
  Datatype: float
  Eigensolver: None 

LCAO using direct dense diagonalizer 

Densities:
  Coarse grid: 80*80*48 grid
  Fine grid: 160*160*96 grid
  Total Charge: 0.000000 

Density mixing:
  Method: separate
  Backend: pulay
  Linear mixing parameter: 0.05
  Mixing with 5 old densities
  Damping of long wave oscillations: 75 

Hamiltonian:
  XC and Coulomb potentials evaluated on a 160*160*96 grid
  Using the PBE Exchange-Correlation functional
  Interpolation: tri-quintic (5. degree polynomial)
  Poisson solver: Gauss-Seidel solver with 6 multi-grid levels
    Coarsest grid: 5 x 5 x 3 points
    Stencil: 6*3+1=19 point O(h^6) finite-difference Laplacian
    Max iterations: 1000
    Tolerance: 1.000000e-07 

Memory estimate:
  Process memory now: 77.56 MiB
  Calculator: 15.59 MiB
    Density: 6.13 MiB
      Arrays: 3.81 MiB
      Localized functions: 0.86 MiB
      Mixer: 1.46 MiB
    Hamiltonian: 5.40 MiB
      Arrays: 2.49 MiB
      XC: 0.00 MiB
      Poisson: 2.85 MiB
      vbar: 0.07 MiB
    Wavefunctions: 4.05 MiB
      C [qnM]: 0.23 MiB
      S, T [2 x qmm]: 1.49 MiB
      P [aqMi]: 0.01 MiB
      TCI: 0.00 MiB
      BasisFunctions: 2.33 MiB
      Eigensolver: 0.00 MiB

Total number of cores used: 16
Domain decomposition: 2 x 4 x 2

Number of atoms: 24
Number of atomic orbitals: 312
Number of bands in calculation: 98
Bands to converge: occupied states only
Number of valence electrons: 96

... initialized

Initializing position-dependent things.

Density initialized from atomic densities
           .--------------------------------------.  
          /|                                      |  
         / |                                      |  
        /  |                                      |  
       /   |                                      |  
      /    |                                      |  
     /     |                                      |  
    /      |             C  C C                   |  
   /       |           C                          |  
  /        |            C     C C                 |  
 *         |    C   C     C    C                  |  
 |         | C     C     C  C                     |  
 |         C----------C---------------------------.  
 |        /C         C C  C                      /   
 |       /   C   C                 C            /    
 |      /                                      /     
 |     /                                      /      
 |    /                                      /       
 |   /                                      /        
 |  /                                      /         
 | /                                      /          
 |/                                      /           
 *--------------------------------------*            

Positions:
   0 C      5.740551    3.387568    4.956784
   1 C      7.036786    3.769117    5.384702
   2 C      5.881275    6.011394    5.643247
   3 C      7.108986    5.212934    5.743139
   4 C      8.274157    3.142138    5.558936
   5 C      6.038032    7.372145    5.963123
   6 C      9.649535    9.300191    7.349884
   7 C     10.759126    6.972609    6.967925
   8 C      9.716283    7.935086    6.999952
   9 C     10.745136    5.749104    6.669709
  10 C      8.558352    9.994768    7.241098
  11 C      7.309711   10.459733    7.004496
  12 C      9.619129    4.987979    6.268930
  13 C      8.479059    7.237264    6.527302
  14 C      8.383408    5.815244    6.177413
  15 C      9.365741    3.655230    5.932901
  16 C      6.676280    9.281223    6.551234
  17 C      7.279238    7.958209    6.384313
  18 C      4.268014    7.935060    5.796246
  19 C      3.207281    7.264044    5.735558
  20 C      2.546639    6.112033    5.472372
  21 C     12.237015    6.343361    3.754586
  22 C      3.996697    4.330604    4.665500
  23 C      2.860389    4.956718    5.051592

Unit cell:
           periodic     x           y           z      points  spacing
  1. axis:    yes   16.000000    0.000000    0.000000    80     0.2000
  2. axis:    yes    0.000000   16.000000    0.000000    80     0.2000
  3. axis:    yes    0.000000    0.000000   10.000000    48     0.2083

Effective grid spacing dv^(1/3) = 0.2027

                     log10-error:    total        iterations:
           time      wfs    density  energy       fermi  poisson
iter:   1  11:02:50          +inf  -173.843735    3      6      
iter:   2  11:02:50         -0.85  -170.057028    33     3      
iter:   3  11:02:51         -0.92  -172.739735    30     3      
iter:   4  11:02:52         -0.80  -169.265689    33     2      
iter:   5  11:02:52         -0.89  -168.707412    4      2      
iter:   6  11:02:53         -0.96  -169.478047    4      4      
iter:   7  11:02:53         -0.93  -167.826009    34     3      
iter:   8  11:02:54         -1.12  -167.116960    3      2      
iter:   9  11:02:55         -1.18  -167.506614    3      3      
iter:  10  11:02:55         -1.29  -166.693502    34     2      
iter:  11  11:02:56         -1.54  -166.743031    4      3      
iter:  12  11:02:57         -1.55  -166.662927    3      2      
iter:  13  11:02:57         -1.76  -166.643568    2      3      
iter:  14  11:02:58         -1.83  -166.623680    3      2      
iter:  15  11:02:58         -1.94  -166.619393    3      2      
iter:  16  11:02:59         -2.09  -166.606696    3      2      
iter:  17  11:03:00         -2.20  -166.603494    3      2      
iter:  18  11:03:00         -2.33  -166.593988    3      2      
iter:  19  11:03:01         -2.61  -166.600551    2      2      
iter:  20  11:03:02         -2.73  -166.602001    3      2      
iter:  21  11:03:02         -2.95  -166.601370    2      1      
iter:  22  11:03:03         -2.99  -166.609772    2      1      
iter:  23  11:03:03         -3.08  -166.614457    3      1      
iter:  24  11:03:04         -3.25  -166.607878    2      1      
iter:  25  11:03:04         -3.39  -166.598626    2      1      
iter:  26  11:03:05         -3.59  -166.600931    1      1      
iter:  27  11:03:06         -3.71  -166.602629    2      1      
iter:  28  11:03:06         -3.91  -166.601493    2      1      
iter:  29  11:03:07         -3.96  -166.598854    2      1      
iter:  30  11:03:07         -3.90  -166.601772    2      1      
iter:  31  11:03:08         -4.18  -166.600184    2      1      

Converged after 31 iterations.

Dipole moment: (0.061814, -0.211367, -0.041554) |e|*Ang

Energy contributions relative to reference atoms: (reference = -24663.074771)

Kinetic:        +81.484039
Potential:      -92.513302
External:        +0.000000
XC:            -158.177197
Entropy (-ST):   -0.671296
Local:           +2.941923
--------------------------
Free energy:   -166.935832
Extrapolated:  -166.600184

Fermi level: -4.29031

 Band  Eigenvalues  Occupancy
    0    -22.55533    2.00000
    1    -21.60694    2.00000
    2    -21.07754    2.00000
    3    -20.62025    2.00000
    4    -20.31467    2.00000
    5    -19.72293    2.00000
    6    -18.88471    2.00000
    7    -18.78919    2.00000
    8    -18.57360    2.00000
    9    -17.95907    2.00000
   10    -16.92485    2.00000
   11    -16.51979    2.00000
   12    -15.94586    2.00000
   13    -15.65365    2.00000
   14    -14.90400    2.00000
   15    -14.20126    2.00000
   16    -13.85474    2.00000
   17    -13.33971    2.00000
   18    -12.82123    2.00000
   19    -12.70809    2.00000
   20    -12.39289    2.00000
   21    -11.77408    2.00000
   22    -11.27877    2.00000
   23    -10.91448    2.00000
   24    -10.62592    2.00000
   25    -10.43797    2.00000
   26    -10.18568    2.00000
   27    -10.00639    2.00000
   28     -9.43390    2.00000
   29     -9.05355    2.00000
   30     -8.95771    2.00000
   31     -8.90548    2.00000
   32     -8.73925    2.00000
   33     -8.16894    2.00000
   34     -7.57746    2.00000
   35     -7.52844    2.00000
   36     -6.93947    2.00000
   37     -6.69779    2.00000
   38     -6.64853    2.00000
   39     -6.58978    2.00000
   40     -6.58383    2.00000
   41     -6.53407    2.00000
   42     -5.76938    2.00000
   43     -5.44404    1.99998
   44     -5.06813    1.99916
   45     -4.67613    1.95866
   46     -4.35368    1.30664
   47     -4.25617    0.83093
   48     -4.22180    0.67024
   49     -4.21218    0.62806
   50     -4.20165    0.58363
   51     -3.83940    0.02178
   52     -3.51983    0.00090
   53     -3.11196    0.00002
   54     -2.90269    0.00000
   55     -2.80365    0.00000
   56     -2.57511    0.00000
   57     -2.54097    0.00000
   58     -2.18984    0.00000
   59     -1.52331    0.00000
   60     -0.96571    0.00000
   61     -0.82404    0.00000
   62     -0.51110    0.00000
   63      0.02050    0.00000
   64      0.41434    0.00000
   65      1.67215    0.00000
   66      1.83137    0.00000
   67      2.48987    0.00000
   68      3.11442    0.00000
   69      3.78931    0.00000
   70      4.02969    0.00000
   71      4.73654    0.00000
   72      4.88809    0.00000
   73      5.43849    0.00000
   74      6.06843    0.00000
   75      6.50006    0.00000
   76      6.94725    0.00000
   77      7.28527    0.00000
   78      7.58022    0.00000
   79      7.63001    0.00000
   80      7.95067    0.00000
   81      8.24938    0.00000
   82      8.51730    0.00000
   83      8.58517    0.00000
   84      8.88898    0.00000
   85      9.02808    0.00000
   86      9.23699    0.00000
   87      9.37552    0.00000
   88      9.51705    0.00000
   89      9.58447    0.00000
   90      9.59773    0.00000
   91      9.65942    0.00000
   92      9.72095    0.00000
   93      9.91564    0.00000
   94      9.93453    0.00000
   95     10.03541    0.00000
   96     10.15305    0.00000
   97     10.29149    0.00000


Forces in eV/Ang:
  0 C    -3.09547   -0.81956   -0.26224
  1 C    -2.32166    1.84389   -0.47525
  2 C     2.02614    0.80728    0.51829
  3 C    -0.28501    1.32172    0.17456
  4 C     0.31140   -0.21727   -0.05558
  5 C    -3.98516   -4.27867   -1.42947
  6 C    -0.06002    0.08310    0.01516
  7 C     0.00779    0.65082    0.16799
  8 C    -0.16463   -0.22922   -0.17523
  9 C    -0.16432   -0.54872   -0.30025
 10 C     0.21784    0.06221    0.10575
 11 C    -1.02476   -1.30686   -0.63206
 12 C     0.24195    0.39333    0.11799
 13 C     0.51758   -0.80513   -0.12597
 14 C    -0.00427    0.38621    0.03105
 15 C    -0.21798   -0.59155   -0.10225
 16 C     4.02495    2.21983    1.55762
 17 C    -4.92400    2.52310   -0.55927
 18 C     5.32124    0.13013    0.67151
 19 C    -1.83281   -1.25020   -0.12825
 20 C     0.00280    2.92438    0.65613
 21 C    -0.08804   -0.04249    0.20330
 22 C     3.68191   -0.30025    0.41753
 23 C     1.82456   -3.01209   -0.46602

System changes: positions 

Initializing position-dependent things.

Density initialized from wave functions
           .--------------------------------------.  
          /|                                      |  
         / |                                      |  
        /  |                                      |  
       /   |                                      |  
      /    |                                      |  
     /     |                                      |  
    /      |             C  C C                   |  
   /       |           C                          |  
  /        |            C     C C                 |  
 *         |    C   C     C    C                  |  
 |         | C     C     C  C                     |  
 |         C----------C---------------------------.  
 |        /C        C  C  C                      /   
 |       /    C  C                 C            /    
 |      /                                      /     
 |     /                                      /      
 |    /                                      /       
 |   /                                      /        
 |  /                                      /         
 | /                                      /          
 |/                                      /           
 *--------------------------------------*            

Positions:
   0 C      5.719981    3.382122    4.955042
   1 C      7.021358    3.781370    5.381544
   2 C      5.894739    6.016758    5.646691
   3 C      7.107092    5.221717    5.744299
   4 C      8.276226    3.140694    5.558566
   5 C      6.011549    7.343712    5.953624
   6 C      9.649137    9.300743    7.349984
   7 C     10.759177    6.976934    6.969041
   8 C      9.715189    7.933562    6.998788
   9 C     10.744044    5.745458    6.667713
  10 C      8.559800    9.995181    7.241801
  11 C      7.302901   10.451049    7.000295
  12 C      9.620737    4.990593    6.269714
  13 C      8.482498    7.231913    6.526465
  14 C      8.383379    5.817811    6.177620
  15 C      9.364293    3.651299    5.932221
  16 C      6.703027    9.295975    6.561585
  17 C      7.246516    7.974976    6.380597
  18 C      4.303375    7.935925    5.800708
  19 C      3.195101    7.255736    5.734706
  20 C      2.546658    6.131466    5.476733
  21 C     12.236430    6.343079    3.755937
  22 C      4.021164    4.328608    4.668275
  23 C      2.872513    4.936702    5.048495

Unit cell:
           periodic     x           y           z      points  spacing
  1. axis:    yes   16.000000    0.000000    0.000000    80     0.2000
  2. axis:    yes    0.000000   16.000000    0.000000    80     0.2000
  3. axis:    yes    0.000000    0.000000   10.000000    48     0.2083

Effective grid spacing dv^(1/3) = 0.2027

                     log10-error:    total        iterations:
           time      wfs    density  energy       fermi  poisson
iter:   1  11:03:10          +inf  -168.356380    3      5      
iter:   2  11:03:11         -1.44  -168.607635    33     2      
iter:   3  11:03:11         -1.40  -167.779984    4      2      
iter:   4  11:03:12         -1.83  -167.690964    3      2      
iter:   5  11:03:12         -1.92  -167.672220    3      2      
iter:   6  11:03:13         -2.04  -167.667471    3      2      
iter:   7  11:03:14         -2.14  -167.670918    2      2      
iter:   8  11:03:14         -2.14  -167.651991    3      2      
iter:   9  11:03:15         -2.54  -167.651208    3      2      
iter:  10  11:03:16         -2.59  -167.651345    3      2      
iter:  11  11:03:16         -2.86  -167.650531    2      1      
iter:  12  11:03:17         -2.99  -167.650630    2      2      
iter:  13  11:03:17         -3.17  -167.650308    2      1      
iter:  14  11:03:18         -3.27  -167.649692    3      1      
iter:  15  11:03:18         -3.55  -167.650388    2      1      
iter:  16  11:03:19         -3.58  -167.650477    2      1      
iter:  17  11:03:20         -3.65  -167.650432    2      1      
iter:  18  11:03:20         -3.80  -167.650503    2      1      
iter:  19  11:03:21         -3.81  -167.650360    2      1      
iter:  20  11:03:21         -3.97  -167.650536    2      1      
iter:  21  11:03:22         -4.04  -167.650621    2      1      

Converged after 21 iterations.

Dipole moment: (0.080375, -0.096970, -0.013741) |e|*Ang

Energy contributions relative to reference atoms: (reference = -24663.074771)

Kinetic:        +75.477008
Potential:      -88.147648
External:        +0.000000
XC:            -157.566665
Entropy (-ST):   -0.666229
Local:           +2.919798
--------------------------
Free energy:   -167.983735
Extrapolated:  -167.650621

Fermi level: -4.26291

 Band  Eigenvalues  Occupancy
    0    -22.53179    2.00000
    1    -21.59311    2.00000
    2    -21.09099    2.00000
    3    -20.53375    2.00000
    4    -20.36505    2.00000
    5    -19.71945    2.00000
    6    -18.83096    2.00000
    7    -18.71957    2.00000
    8    -18.52866    2.00000
    9    -18.02577    2.00000
   10    -16.94958    2.00000
   11    -16.48524    2.00000
   12    -15.91089    2.00000
   13    -15.65404    2.00000
   14    -14.87535    2.00000
   15    -14.18085    2.00000
   16    -13.76718    2.00000
   17    -13.37905    2.00000
   18    -12.86363    2.00000
   19    -12.68057    2.00000
   20    -12.41371    2.00000
   21    -11.79620    2.00000
   22    -11.39672    2.00000
   23    -10.91464    2.00000
   24    -10.63666    2.00000
   25    -10.42734    2.00000
   26    -10.37090    2.00000
   27    -10.03737    2.00000
   28     -9.42195    2.00000
   29     -9.12238    2.00000
   30     -9.00887    2.00000
   31     -8.82516    2.00000
   32     -8.68218    2.00000
   33     -8.19096    2.00000
   34     -7.77644    2.00000
   35     -7.57614    2.00000
   36     -6.88833    2.00000
   37     -6.67921    2.00000
   38     -6.59741    2.00000
   39     -6.57994    2.00000
   40     -6.55898    2.00000
   41     -6.50388    2.00000
   42     -5.83475    2.00000
   43     -5.44034    1.99998
   44     -5.19928    1.99983
   45     -4.66824    1.96586
   46     -4.33594    1.34976
   47     -4.21464    0.76326
   48     -4.19420    0.66940
   49     -4.18647    0.63539
   50     -4.17495    0.58654
   51     -3.83978    0.02865
   52     -3.52918    0.00130
   53     -3.08877    0.00002
   54     -2.90247    0.00000
   55     -2.78747    0.00000
   56     -2.58995    0.00000
   57     -2.41276    0.00000
   58     -2.12998    0.00000
   59     -1.47281    0.00000
   60     -1.02380    0.00000
   61     -0.86583    0.00000
   62     -0.47932    0.00000
   63      0.07122    0.00000
   64      0.41820    0.00000
   65      1.84382    0.00000
   66      1.90064    0.00000
   67      2.49651    0.00000
   68      3.07364    0.00000
   69      3.69820    0.00000
   70      4.03273    0.00000
   71      4.82083    0.00000
   72      4.91108    0.00000
   73      5.45532    0.00000
   74      5.92883    0.00000
   75      6.57641    0.00000
   76      6.98608    0.00000
   77      7.29270    0.00000
   78      7.43867    0.00000
   79      7.64632    0.00000
   80      7.95851    0.00000
   81      8.21813    0.00000
   82      8.49998    0.00000
   83      8.57193    0.00000
   84      8.91863    0.00000
   85      9.04536    0.00000
   86      9.24009    0.00000
   87      9.38700    0.00000
   88      9.48910    0.00000
   89      9.56740    0.00000
   90      9.63810    0.00000
   91      9.64804    0.00000
   92      9.68567    0.00000
   93      9.92626    0.00000
   94      9.97161    0.00000
   95     10.03823    0.00000
   96     10.12841    0.00000
   97     10.30011    0.00000


Forces in eV/Ang:
  0 C    -2.95713   -0.45507   -0.29067
  1 C    -1.98968    1.30890   -0.47458
  2 C     1.70818   -0.23096    0.23627
  3 C    -0.20990    0.85610    0.06689
  4 C    -0.58130    0.01962   -0.19603
  5 C    -3.47494   -2.39882   -0.87054
  6 C    -0.26655    0.21278   -0.00711
  7 C     0.01804    0.06023    0.00902
  8 C    -0.11318   -0.27384   -0.15972
  9 C    -0.06379    0.12085   -0.12148
 10 C     0.43468    0.09466    0.16881
 11 C    -0.57852   -0.61248   -0.34170
 12 C     0.06440    0.12224    0.01824
 13 C    -0.75767    0.10033   -0.22900
 14 C     0.06785    0.34346    0.04895
 15 C    -0.02767   -0.28848   -0.01248
 16 C     3.27694    1.58591    1.23113
 17 C    -3.86239    1.12882   -0.64890
 18 C     3.12443   -1.08580    0.54284
 19 C     0.99436    0.80554    0.22238
 20 C     0.15458   -0.05077   -0.30766
 21 C    -0.08739   -0.04341    0.20375
 22 C     3.44106   -0.26198    0.88335
 23 C     1.72589   -1.17992    0.00058

System changes: positions 

Initializing position-dependent things.

Density initialized from wave functions
           .--------------------------------------.  
          /|                                      |  
         / |                                      |  
        /  |                                      |  
       /   |                                      |  
      /    |                                      |  
     /     |                                      |  
    /      |             C  C C                   |  
   /       |           C                          |  
  /        |            C     C C                 |  
 *         |     C  C     C    C                  |  
 |         | C     C     C  C                     |  
 |         C----------C---------------------------.  
 |        /C        C  C  C                      /   
 |       /    C  C                 C            /    
 |      /                                      /     
 |     /                                      /      
 |    /                                      /       
 |   /                                      /        
 |  /                                      /         
 | /                                      /          
 |/                                      /           
 *--------------------------------------*            

Positions:
   0 C      5.692445    3.377921    4.952330
   1 C      7.002856    3.793508    5.377123
   2 C      5.910620    6.014496    5.648863
   3 C      7.105145    5.229644    5.744911
   4 C      8.270715    3.140902    5.556725
   5 C      5.979229    7.321564    5.945573
   6 C      9.646631    9.302739    7.349916
   7 C     10.759347    6.977432    6.969108
   8 C      9.714140    7.931006    6.997301
   9 C     10.743461    5.746655    6.666601
  10 C      8.563873    9.996066    7.243380
  11 C      7.297559   10.445416    6.997143
  12 C      9.621318    4.991703    6.269874
  13 C      8.475303    7.232945    6.524321
  14 C      8.384019    5.821006    6.178078
  15 C      9.364055    3.648643    5.932115
  16 C      6.733478    9.310683    6.573020
  17 C      7.210645    7.985344    6.374541
  18 C      4.332250    7.925679    5.805752
  19 C      3.204667    7.263461    5.736815
  20 C      2.548114    6.130675    5.473763
  21 C     12.235616    6.342674    3.757836
  22 C      4.053198    4.326172    4.676555
  23 C      2.888583    4.925905    5.048550

Unit cell:
           periodic     x           y           z      points  spacing
  1. axis:    yes   16.000000    0.000000    0.000000    80     0.2000
  2. axis:    yes    0.000000   16.000000    0.000000    80     0.2000
  3. axis:    yes    0.000000    0.000000   10.000000    48     0.2083

Effective grid spacing dv^(1/3) = 0.2027

                     log10-error:    total        iterations:
           time      wfs    density  energy       fermi  poisson
iter:   1  11:03:24          +inf  -169.188121    2      5      
iter:   2  11:03:25         -1.43  -169.589151    33     2      
iter:   3  11:03:25         -1.39  -168.673663    4      2      
iter:   4  11:03:26         -1.77  -168.568591    3      2      
iter:   5  11:03:27         -2.02  -168.531363    3      2      
iter:   6  11:03:27         -2.02  -168.531568    3      2      
iter:   7  11:03:28         -1.98  -168.527501    3      2      
iter:   8  11:03:28         -2.27  -168.510520    3      1      
iter:   9  11:03:29         -2.52  -168.506491    3      2      
iter:  10  11:03:30         -2.50  -168.514508    3      2      
iter:  11  11:03:30         -2.66  -168.508044    2      2      
iter:  12  11:03:31         -2.87  -168.508290    3      1      
iter:  13  11:03:31         -3.05  -168.508066    3      1      
iter:  14  11:03:32         -3.10  -168.509009    2      1      
iter:  15  11:03:33         -3.37  -168.509508    2      1      
iter:  16  11:03:33         -3.51  -168.509328    2      1      
iter:  17  11:03:34         -3.48  -168.509641    2      1      
iter:  18  11:03:34         -3.73  -168.509755    2      1      
iter:  19  11:03:35         -3.78  -168.509586    2      1      
iter:  20  11:03:35         -3.94  -168.509728    2      1      
iter:  21  11:03:36         -4.12  -168.509639    2      1      

Converged after 21 iterations.

Dipole moment: (0.081603, 0.001040, 0.012056) |e|*Ang

Energy contributions relative to reference atoms: (reference = -24663.074771)

Kinetic:        +72.393179
Potential:      -85.941145
External:        +0.000000
XC:            -157.557533
Entropy (-ST):   -0.656587
Local:           +2.924154
--------------------------
Free energy:   -168.837932
Extrapolated:  -168.509639

Fermi level: -4.22369

 Band  Eigenvalues  Occupancy
    0    -22.51153    2.00000
    1    -21.63117    2.00000
    2    -21.09770    2.00000
    3    -20.54473    2.00000
    4    -20.31236    2.00000
    5    -19.70344    2.00000
    6    -18.81935    2.00000
    7    -18.71647    2.00000
    8    -18.50234    2.00000
    9    -18.03784    2.00000
   10    -16.96577    2.00000
   11    -16.46290    2.00000
   12    -15.88867    2.00000
   13    -15.63790    2.00000
   14    -14.87404    2.00000
   15    -14.14529    2.00000
   16    -13.67640    2.00000
   17    -13.39959    2.00000
   18    -12.89366    2.00000
   19    -12.63937    2.00000
   20    -12.41851    2.00000
   21    -11.82882    2.00000
   22    -11.54357    2.00000
   23    -10.92768    2.00000
   24    -10.66407    2.00000
   25    -10.51273    2.00000
   26    -10.41167    2.00000
   27    -10.08655    2.00000
   28     -9.43661    2.00000
   29     -9.23475    2.00000
   30     -9.02039    2.00000
   31     -8.73676    2.00000
   32     -8.61324    2.00000
   33     -8.21106    2.00000
   34     -8.00173    2.00000
   35     -7.59640    2.00000
   36     -6.90426    2.00000
   37     -6.67233    2.00000
   38     -6.58477    2.00000
   39     -6.55786    2.00000
   40     -6.52940    2.00000
   41     -6.49673    2.00000
   42     -5.85797    2.00000
   43     -5.45053    1.99999
   44     -5.30217    1.99996
   45     -4.67820    1.97898
   46     -4.30788    1.39773
   47     -4.16458    0.71276
   48     -4.15390    0.66456
   49     -4.14695    0.63407
   50     -4.13203    0.57129
   51     -3.83240    0.03918
   52     -3.50083    0.00145
   53     -3.07504    0.00002
   54     -2.89804    0.00000
   55     -2.76869    0.00000
   56     -2.59939    0.00000
   57     -2.23918    0.00000
   58     -2.06628    0.00000
   59     -1.46828    0.00000
   60     -1.04562    0.00000
   61     -0.85755    0.00000
   62     -0.38269    0.00000
   63      0.14080    0.00000
   64      0.52825    0.00000
   65      1.89511    0.00000
   66      2.23921    0.00000
   67      2.51353    0.00000
   68      3.05218    0.00000
   69      3.68160    0.00000
   70      4.06489    0.00000
   71      4.84209    0.00000
   72      4.99893    0.00000
   73      5.49516    0.00000
   74      5.81822    0.00000
   75      6.59007    0.00000
   76      6.97980    0.00000
   77      7.25673    0.00000
   78      7.30298    0.00000
   79      7.63678    0.00000
   80      7.96670    0.00000
   81      8.16970    0.00000
   82      8.43851    0.00000
   83      8.54980    0.00000
   84      8.90568    0.00000
   85      9.05427    0.00000
   86      9.24578    0.00000
   87      9.37531    0.00000
   88      9.49231    0.00000
   89      9.51434    0.00000
   90      9.55231    0.00000
   91      9.65450    0.00000
   92      9.70095    0.00000
   93      9.94122    0.00000
   94      9.98572    0.00000
   95     10.04038    0.00000
   96     10.11681    0.00000
   97     10.31831    0.00000


Forces in eV/Ang:
  0 C    -3.06037    0.16236   -0.32347
  1 C    -1.73449    0.75557   -0.49706
  2 C     1.17042   -1.08373   -0.03725
  3 C     0.03946    0.41551    0.00433
  4 C    -0.80671    0.39042   -0.16360
  5 C    -2.99650   -0.46998   -0.36391
  6 C    -0.21162    0.05878   -0.03270
  7 C    -0.06071    0.18555    0.02492
  8 C    -0.16610   -0.23967   -0.15473
  9 C    -0.07576    0.07621   -0.14226
 10 C     0.37034    0.28623    0.20083
 11 C    -0.02763    0.23670    0.00265
 12 C    -0.02504    0.02488   -0.02378
 13 C    -1.24789    0.49860   -0.28338
 14 C     0.04128    0.33609    0.04003
 15 C    -0.31537   -0.27477   -0.09262
 16 C     2.40544    0.58756    0.77955
 17 C    -3.05798    0.15724   -0.66904
 18 C     2.60600   -1.33269    0.51708
 19 C     1.11058    0.34631    0.07838
 20 C     0.68186   -0.17016   -0.41130
 21 C    -0.08677   -0.04490    0.20196
 22 C     3.65188   -0.45906    1.21729
 23 C     1.86392   -0.57569    0.05517

System changes: positions 

Initializing position-dependent things.

Density initialized from wave functions
           .--------------------------------------.  
          /|                                      |  
         / |                                      |  
        /  |                                      |  
       /   |                                      |  
      /    |                                      |  
     /     |                                      |  
    /      |             C  C C                   |  
   /       |           C                          |  
  /        |           C      C C                 |  
 *         |     C  C     C    C                  |  
 |         | C     C     C  C                     |  
 |         C----------C---------------------------.  
 |        /C        C  C  C                      /   
 |       /    C  C                 C            /    
 |      /                                      /     
 |     /                                      /      
 |    /                                      /       
 |   /                                      /        
 |  /                                      /         
 | /                                      /          
 |/                                      /           
 *--------------------------------------*            

Positions:
   0 C      5.660637    3.378574    4.949037
   1 C      6.984232    3.802496    5.371985
   2 C      5.923670    6.005234    5.649060
   3 C      7.105213    5.234911    5.745135
   4 C      8.263516    3.144316    5.555140
   5 C      5.947081    7.312679    5.940674
   6 C      9.644594    9.303375    7.349627
   7 C     10.758788    6.979848    6.969518
   8 C      9.712418    7.928529    6.995673
   9 C     10.742581    5.746789    6.664958
  10 C      8.567557    9.998802    7.245365
  11 C      7.296223   10.446250    6.996503
  12 C      9.621339    4.992349    6.269776
  13 C      8.464205    7.236750    6.521544
  14 C      8.384400    5.824548    6.178484
  15 C      9.360883    3.645458    5.931143
  16 C      6.760153    9.318499    6.581931
  17 C      7.176936    7.989465    6.367711
  18 C      4.362161    7.913382    5.811282
  19 C      3.213100    7.265376    5.737412
  20 C      2.554479    6.132164    5.470616
  21 C     12.234714    6.342210    3.759934
  22 C      4.091141    4.321573    4.688351
  23 C      2.907891    4.917365    5.048575

Unit cell:
           periodic     x           y           z      points  spacing
  1. axis:    yes   16.000000    0.000000    0.000000    80     0.2000
  2. axis:    yes    0.000000   16.000000    0.000000    80     0.2000
  3. axis:    yes    0.000000    0.000000   10.000000    48     0.2083

Effective grid spacing dv^(1/3) = 0.2027

                     log10-error:    total        iterations:
           time      wfs    density  energy       fermi  poisson
iter:   1  11:03:38          +inf  -169.882693    3      5      
iter:   2  11:03:39         -1.39  -170.706356    31     2      
iter:   3  11:03:39         -1.38  -169.488871    4      2      
iter:   4  11:03:40         -1.68  -169.349127    4      2      
iter:   5  11:03:41         -1.93  -169.432948    3      2      
iter:   6  11:03:41         -1.68  -169.277209    3      2      
iter:   7  11:03:42         -2.12  -169.690808    4      2      
iter:   8  11:03:43         -1.44  -169.296483    32     2      
iter:   9  11:03:43         -2.23  -169.274489    3      2      
iter:  10  11:03:44         -2.53  -169.270067    3      1      
iter:  11  11:03:44         -2.58  -169.268955    3      2      
iter:  12  11:03:45         -2.77  -169.269951    2      1      
iter:  13  11:03:46         -2.97  -169.270145    3      2      
iter:  14  11:03:46         -3.14  -169.270052    3      1      
iter:  15  11:03:47         -3.34  -169.270096    2      1      
iter:  16  11:03:47         -3.39  -169.270430    2      1      
iter:  17  11:03:48         -3.56  -169.270218    2      1      
iter:  18  11:03:48         -3.66  -169.270462    2      1      
iter:  19  11:03:49         -3.74  -169.270414    2      1      
iter:  20  11:03:50         -3.82  -169.270280    2      1      
iter:  21  11:03:50         -3.91  -169.270389    2      1      
iter:  22  11:03:51         -4.08  -169.270461    2      1      

Converged after 22 iterations.

Dipole moment: (0.074170, 0.065368, 0.025287) |e|*Ang

Energy contributions relative to reference atoms: (reference = -24663.074771)

Kinetic:        +68.835324
Potential:      -83.265958
External:        +0.000000
XC:            -157.433860
Entropy (-ST):   -0.652645
Local:           +2.920355
--------------------------
Free energy:   -169.596784
Extrapolated:  -169.270461

Fermi level: -4.18932

 Band  Eigenvalues  Occupancy
    0    -22.50197    2.00000
    1    -21.68462    2.00000
    2    -21.10065    2.00000
    3    -20.57013    2.00000
    4    -20.23483    2.00000
    5    -19.69156    2.00000
    6    -18.80675    2.00000
    7    -18.72269    2.00000
    8    -18.48714    2.00000
    9    -17.99989    2.00000
   10    -16.97496    2.00000
   11    -16.47301    2.00000
   12    -15.86776    2.00000
   13    -15.59643    2.00000
   14    -14.90019    2.00000
   15    -14.16441    2.00000
   16    -13.61216    2.00000
   17    -13.39667    2.00000
   18    -12.91275    2.00000
   19    -12.60354    2.00000
   20    -12.41329    2.00000
   21    -11.86751    2.00000
   22    -11.67344    2.00000
   23    -10.97156    2.00000
   24    -10.70600    2.00000
   25    -10.61218    2.00000
   26    -10.40945    2.00000
   27    -10.14685    2.00000
   28     -9.46257    2.00000
   29     -9.33747    2.00000
   30     -9.03609    2.00000
   31     -8.67758    2.00000
   32     -8.55934    2.00000
   33     -8.21586    2.00000
   34     -8.16557    2.00000
   35     -7.61172    2.00000
   36     -6.91495    2.00000
   37     -6.67667    2.00000
   38     -6.58709    2.00000
   39     -6.52473    2.00000
   40     -6.51488    2.00000
   41     -6.48877    2.00000
   42     -5.83470    2.00000
   43     -5.48130    2.00000
   44     -5.32911    1.99998
   45     -4.70499    1.98854
   46     -4.27560    1.40648
   47     -4.13103    0.71655
   48     -4.12016    0.66735
   49     -4.11204    0.63174
   50     -4.08915    0.53720
   51     -3.82364    0.05033
   52     -3.48804    0.00180
   53     -3.06636    0.00003
   54     -2.88269    0.00000
   55     -2.75534    0.00000
   56     -2.58627    0.00000
   57     -2.14015    0.00000
   58     -2.00013    0.00000
   59     -1.50368    0.00000
   60     -1.03162    0.00000
   61     -0.86780    0.00000
   62     -0.25286    0.00000
   63      0.20636    0.00000
   64      0.70069    0.00000
   65      1.90311    0.00000
   66      2.49896    0.00000
   67      2.58657    0.00000
   68      3.05420    0.00000
   69      3.70109    0.00000
   70      4.11366    0.00000
   71      4.84495    0.00000
   72      5.08246    0.00000
   73      5.54072    0.00000
   74      5.78536    0.00000
   75      6.58126    0.00000
   76      6.94751    0.00000
   77      7.14549    0.00000
   78      7.19500    0.00000
   79      7.63258    0.00000
   80      7.96385    0.00000
   81      8.10049    0.00000
   82      8.40558    0.00000
   83      8.54746    0.00000
   84      8.89167    0.00000
   85      9.03283    0.00000
   86      9.24200    0.00000
   87      9.35805    0.00000
   88      9.43637    0.00000
   89      9.48353    0.00000
   90      9.54350    0.00000
   91      9.63787    0.00000
   92      9.70651    0.00000
   93      9.95237    0.00000
   94      9.99116    0.00000
   95     10.03365    0.00000
   96     10.11993    0.00000
   97     10.33453    0.00000


Forces in eV/Ang:
  0 C    -3.21534    0.84744   -0.35808
  1 C    -1.56528    0.27718   -0.51838
  2 C     0.65118   -1.03295   -0.12012
  3 C     0.19425    0.03714   -0.06417
  4 C    -1.13347    0.55942   -0.19677
  5 C    -2.75900    0.24442   -0.17502
  6 C    -0.16302   -0.05725   -0.05003
  7 C    -0.09680    0.01685   -0.02624
  8 C    -0.31771   -0.12086   -0.15464
  9 C    -0.06070    0.26102   -0.10594
 10 C     0.29781    0.38339    0.20804
 11 C     0.28009    0.89663    0.23753
 12 C    -0.16587   -0.07632   -0.07061
 13 C    -1.38219    0.56193   -0.29573
 14 C     0.05268    0.35480    0.04652
 15 C    -0.36092   -0.14118   -0.08957
 16 C     1.72144   -0.07850    0.45140
 17 C    -2.29811   -0.32977   -0.59165
 18 C     1.86249   -1.61122    0.46083
 19 C     1.71033    0.44761    0.07866
 20 C     0.97156   -0.69072   -0.62328
 21 C    -0.08852   -0.04627    0.20140
 22 C     3.81993   -0.65898    1.64427
 23 C     2.07235   -0.12228    0.06750

System changes: positions 

Initializing position-dependent things.

Density initialized from wave functions
           .--------------------------------------.  
          /|                                      |  
         / |                                      |  
        /  |                                      |  
       /   |                                      |  
      /    |                                      |  
     /     |                                      |  
    /      |             C  C C                   |  
   /       |           C                          |  
  /        |           C      C C                 |  
 *         |     C  C     C    C                  |  
 |         | C     C     C  C                     |  
 |         C----------C---------------------------.  
 |        /C        C  C  C                      /   
 |       /    C  C                 C            /    
 |      /                                      /     
 |     /                                      /      
 |    /                                      /       
 |   /                                      /        
 |  /                                      /         
 | /                                      /          
 |/                                      /           
 *--------------------------------------*            

Positions:
   0 C      5.629351    3.383678    4.945713
   1 C      6.967384    3.808292    5.366993
   2 C      5.932736    5.999235    5.649239
   3 C      7.106118    5.237798    5.744961
   4 C      8.255101    3.148158    5.553433
   5 C      5.917528    7.305549    5.936335
   6 C      9.643175    9.303128    7.349268
   7 C     10.758075    6.981007    6.969583
   8 C      9.709545    7.927184    6.994116
   9 C     10.741810    5.747971    6.663593
  10 C      8.570333   10.001867    7.247192
  11 C      7.296282   10.450641    6.997075
  12 C      9.620465    4.992496    6.269442
  13 C      8.454515    7.239430    6.518999
  14 C      8.384836    5.828099    6.178921
  15 C      9.357808    3.643298    5.930304
  16 C      6.781601    9.322411    6.588580
  17 C      7.149329    7.992034    6.362035
  18 C      4.386850    7.900885    5.816179
  19 C      3.223480    7.266992    5.737905
  20 C      2.561948    6.131956    5.466862
  21 C     12.233846    6.341765    3.761912
  22 C      4.128242    4.315824    4.702153
  23 C      2.927744    4.910559    5.048203

Unit cell:
           periodic     x           y           z      points  spacing
  1. axis:    yes   16.000000    0.000000    0.000000    80     0.2000
  2. axis:    yes    0.000000   16.000000    0.000000    80     0.2000
  3. axis:    yes    0.000000    0.000000   10.000000    48     0.2083

Effective grid spacing dv^(1/3) = 0.2027

                     log10-error:    total        iterations:
           time      wfs    density  energy       fermi  poisson
iter:   1  11:03:53          +inf  -170.356854    3      5      
iter:   2  11:03:54         -1.44  -171.303291    4      2      
iter:   3  11:03:54         -1.38  -170.130391    3      2      
iter:   4  11:03:55         -1.68  -169.975353    4      2      
iter:   5  11:03:55         -2.14  -170.030364    3      2      
iter:   6  11:03:56         -1.79  -169.969044    4      2      
iter:   7  11:03:57         -1.88  -170.008389    3      2      
iter:   8  11:03:57         -1.76  -169.946779    4      2      
iter:   9  11:03:58         -2.48  -169.941960    3      1      
iter:  10  11:03:58         -2.60  -169.933821    2      2      
iter:  11  11:03:59         -2.57  -169.940125    3      2      
iter:  12  11:04:00         -2.73  -169.936181    3      1      
iter:  13  11:04:00         -3.08  -169.934340    2      1      
iter:  14  11:04:01         -3.17  -169.935419    2      1      
iter:  15  11:04:01         -3.33  -169.936489    2      1      
iter:  16  11:04:02         -3.38  -169.936190    3      1      
iter:  17  11:04:03         -3.49  -169.936315    2      1      
iter:  18  11:04:03         -3.55  -169.935815    2      1      
iter:  19  11:04:04         -3.66  -169.935429    3      1      
iter:  20  11:04:04         -3.61  -169.936513    2      1      
iter:  21  11:04:05         -4.01  -169.936528    2      1      

Converged after 21 iterations.

Dipole moment: (0.065461, 0.099461, 0.033316) |e|*Ang

Energy contributions relative to reference atoms: (reference = -24663.074771)

Kinetic:        +66.125633
Potential:      -81.239960
External:        +0.000000
XC:            -157.419636
Entropy (-ST):   -0.651912
Local:           +2.923390
--------------------------
Free energy:   -170.262484
Extrapolated:  -169.936528

Fermi level: -4.15536

 Band  Eigenvalues  Occupancy
    0    -22.50184    2.00000
    1    -21.72997    2.00000
    2    -21.10962    2.00000
    3    -20.58696    2.00000
    4    -20.16583    2.00000
    5    -19.68853    2.00000
    6    -18.80442    2.00000
    7    -18.74547    2.00000
    8    -18.48252    2.00000
    9    -17.96477    2.00000
   10    -16.97916    2.00000
   11    -16.51010    2.00000
   12    -15.85537    2.00000
   13    -15.56294    2.00000
   14    -14.93741    2.00000
   15    -14.20294    2.00000
   16    -13.56950    2.00000
   17    -13.37662    2.00000
   18    -12.92351    2.00000
   19    -12.56760    2.00000
   20    -12.41056    2.00000
   21    -11.91441    2.00000
   22    -11.77759    2.00000
   23    -11.02094    2.00000
   24    -10.78140    2.00000
   25    -10.66472    2.00000
   26    -10.41273    2.00000
   27    -10.19075    2.00000
   28     -9.48717    2.00000
   29     -9.42363    2.00000
   30     -9.05562    2.00000
   31     -8.63280    2.00000
   32     -8.51673    2.00000
   33     -8.27655    2.00000
   34     -8.20947    2.00000
   35     -7.62717    2.00000
   36     -6.93821    2.00000
   37     -6.69327    2.00000
   38     -6.59944    2.00000
   39     -6.50874    2.00000
   40     -6.50356    2.00000
   41     -6.48544    2.00000
   42     -5.80798    2.00000
   43     -5.51061    2.00000
   44     -5.32893    1.99998
   45     -4.74166    1.99433
   46     -4.23990    1.39920
   47     -4.10086    0.73406
   48     -4.08641    0.66830
   49     -4.07813    0.63195
   50     -4.04834    0.51071
   51     -3.80626    0.05914
   52     -3.47807    0.00229
   53     -3.06732    0.00004
   54     -2.86762    0.00001
   55     -2.75794    0.00000
   56     -2.57022    0.00000
   57     -2.12183    0.00000
   58     -1.90861    0.00000
   59     -1.51836    0.00000
   60     -1.00612    0.00000
   61     -0.87324    0.00000
   62     -0.13755    0.00000
   63      0.26581    0.00000
   64      0.97424    0.00000
   65      1.90237    0.00000
   66      2.52683    0.00000
   67      2.76854    0.00000
   68      3.10391    0.00000
   69      3.74472    0.00000
   70      4.13737    0.00000
   71      4.84035    0.00000
   72      5.13463    0.00000
   73      5.56710    0.00000
   74      5.83716    0.00000
   75      6.55755    0.00000
   76      6.86042    0.00000
   77      7.05246    0.00000
   78      7.13001    0.00000
   79      7.62023    0.00000
   80      7.94990    0.00000
   81      8.03140    0.00000
   82      8.39106    0.00000
   83      8.54993    0.00000
   84      8.88063    0.00000
   85      9.00866    0.00000
   86      9.22577    0.00000
   87      9.34394    0.00000
   88      9.39134    0.00000
   89      9.47195    0.00000
   90      9.53130    0.00000
   91      9.61971    0.00000
   92      9.70617    0.00000
   93      9.95373    0.00000
   94      9.99767    0.00000
   95     10.03144    0.00000
   96     10.12668    0.00000
   97     10.34401    0.00000


Forces in eV/Ang:
  0 C    -3.40550    1.49159   -0.37782
  1 C    -1.43357   -0.06159   -0.52591
  2 C     0.28848   -1.09391   -0.20090
  3 C     0.24560   -0.19547   -0.11673
  4 C    -1.27208    0.69212   -0.18595
  5 C    -2.38113    0.86536    0.01016
  6 C    -0.11308   -0.12950   -0.05599
  7 C    -0.13864    0.00833   -0.03774
  8 C    -0.41733   -0.06431   -0.16432
  9 C    -0.06223    0.27829   -0.11072
 10 C     0.20929    0.41635    0.18962
 11 C     0.48979    1.29662    0.39233
 12 C    -0.25262   -0.13033   -0.09695
 13 C    -1.46435    0.62271   -0.27192
 14 C     0.04468    0.29896    0.03275
 15 C    -0.47956   -0.07546   -0.12225
 16 C     1.29170   -0.52190    0.23755
 17 C    -1.70516   -0.64667   -0.53001
 18 C     1.20018   -1.73680    0.41595
 19 C     2.02557    0.38162    0.03983
 20 C     1.24385   -1.06713   -0.77986
 21 C    -0.09026   -0.04612    0.20138
 22 C     4.00624   -0.91201    1.97488
 23 C     2.21820    0.25767    0.09986

System changes: positions 

Initializing position-dependent things.

Density initialized from wave functions
           .--------------------------------------.  
          /|                                      |  
         / |                                      |  
        /  |                                      |  
       /   |                                      |  
      /    |                                      |  
     /     |                                      |  
    /      |             C  C C                   |  
   /       |           C                          |  
  /        |           C      C C                 |  
 *         |     C  C     C    C                  |  
 |         | C     C     C  C                     |  
 |         C----------C---------------------------.  
 |        /C        C  C  C                      /   
 |       /    C  C                 C            /    
 |      /                                      /     
 |     /                                      /      
 |    /                                      /       
 |   /                                      /        
 |  /                                      /         
 | /                                      /          
 |/                                      /           
 *--------------------------------------*            

Positions:
   0 C      5.598215    3.391935    4.942488
   1 C      6.951713    3.812661    5.362232
   2 C      5.940023    5.994028    5.649248
   3 C      7.106803    5.239966    5.744587
   4 C      8.247126    3.152164    5.551994
   5 C      5.891480    7.300064    5.932711
   6 C      9.642166    9.302631    7.348946
   7 C     10.757181    6.982513    6.969701
   8 C      9.706310    7.926104    6.992533
   9 C     10.741003    5.748634    6.662122
  10 C      8.572356   10.004658    7.248702
  11 C      7.296788   10.455768    6.998008
  12 C      9.619339    4.992582    6.269075
  13 C      8.445758    7.241687    6.516898
  14 C      8.385156    5.830969    6.179203
  15 C      9.354142    3.641389    5.929254
  16 C      6.800972    9.324964    6.594351
  17 C      7.125313    7.994235    6.357031
  18 C      4.407525    7.889144    5.820655
  19 C      3.233715    7.267469    5.738053
  20 C      2.570249    6.130751    5.462810
  21 C     12.233005    6.341345    3.763802
  22 C      4.164792    4.308738    4.716778
  23 C      2.947398    4.905166    5.047898

Unit cell:
           periodic     x           y           z      points  spacing
  1. axis:    yes   16.000000    0.000000    0.000000    80     0.2000
  2. axis:    yes    0.000000   16.000000    0.000000    80     0.2000
  3. axis:    yes    0.000000    0.000000   10.000000    48     0.2083

Effective grid spacing dv^(1/3) = 0.2027

                     log10-error:    total        iterations:
           time      wfs    density  energy       fermi  poisson
iter:   1  11:04:07          +inf  -171.019758    2      5      
iter:   2  11:04:08         -1.43  -172.003467    4      2      
iter:   3  11:04:08         -1.38  -170.760424    3      2      
iter:   4  11:04:09         -1.65  -170.589082    3      2      
iter:   5  11:04:10         -1.99  -170.779330    4      2      
iter:   6  11:04:10         -1.62  -170.573892    4      2      
iter:   7  11:04:11         -1.97  -170.562170    3      1      
iter:   8  11:04:11         -2.09  -170.554300    3      1      
iter:   9  11:04:12         -2.61  -170.548522    3      2      
iter:  10  11:04:13         -2.61  -170.548535    3      2      
iter:  11  11:04:13         -2.74  -170.551057    3      2      
iter:  12  11:04:14         -3.08  -170.549715    2      1      
iter:  13  11:04:14         -3.19  -170.549177    3      1      
iter:  14  11:04:15         -3.37  -170.550411    2      1      
iter:  15  11:04:16         -3.40  -170.551787    2      1      
iter:  16  11:04:16         -3.57  -170.551255    2      1      
iter:  17  11:04:17         -3.74  -170.551525    2      1      
iter:  18  11:04:17         -3.90  -170.551445    2      1      
iter:  19  11:04:18         -3.92  -170.551405    2      1      
iter:  20  11:04:18         -4.13  -170.551514    2      1      

Converged after 20 iterations.

Dipole moment: (0.053595, 0.120636, 0.038649) |e|*Ang

Energy contributions relative to reference atoms: (reference = -24663.074771)

Kinetic:        +64.225380
Potential:      -79.846428
External:        +0.000000
XC:            -157.534708
Entropy (-ST):   -0.651671
Local:           +2.930077
--------------------------
Free energy:   -170.877349
Extrapolated:  -170.551514

Fermi level: -4.12218

 Band  Eigenvalues  Occupancy
    0    -22.50576    2.00000
    1    -21.77157    2.00000
    2    -21.12077    2.00000
    3    -20.60052    2.00000
    4    -20.11116    2.00000
    5    -19.68946    2.00000
    6    -18.80936    2.00000
    7    -18.76684    2.00000
    8    -18.48300    2.00000
    9    -17.92920    2.00000
   10    -16.98681    2.00000
   11    -16.56657    2.00000
   12    -15.84243    2.00000
   13    -15.52981    2.00000
   14    -14.98218    2.00000
   15    -14.25650    2.00000
   16    -13.53947    2.00000
   17    -13.35047    2.00000
   18    -12.92662    2.00000
   19    -12.53304    2.00000
   20    -12.40692    2.00000
   21    -11.97354    2.00000
   22    -11.85806    2.00000
   23    -11.07030    2.00000
   24    -10.88947    2.00000
   25    -10.67120    2.00000
   26    -10.41667    2.00000
   27    -10.21475    2.00000
   28     -9.51060    2.00000
   29     -9.48982    2.00000
   30     -9.07516    2.00000
   31     -8.60760    2.00000
   32     -8.48632    2.00000
   33     -8.34631    2.00000
   34     -8.20526    2.00000
   35     -7.64231    2.00000
   36     -6.96069    2.00000
   37     -6.71603    2.00000
   38     -6.61341    2.00000
   39     -6.50821    2.00000
   40     -6.49568    2.00000
   41     -6.47588    2.00000
   42     -5.77622    2.00000
   43     -5.53273    2.00000
   44     -5.32431    1.99999
   45     -4.78882    1.99746
   46     -4.20513    1.39248
   47     -4.07219    0.75513
   48     -4.05379    0.67077
   49     -4.04537    0.63376
   50     -4.00710    0.48069
   51     -3.78550    0.06670
   52     -3.47128    0.00298
   53     -3.07149    0.00005
   54     -2.85225    0.00001
   55     -2.76189    0.00000
   56     -2.54517    0.00000
   57     -2.12455    0.00000
   58     -1.85469    0.00000
   59     -1.49328    0.00000
   60     -0.97247    0.00000
   61     -0.87762    0.00000
   62     -0.04758    0.00000
   63      0.32742    0.00000
   64      1.32223    0.00000
   65      1.90266    0.00000
   66      2.55470    0.00000
   67      2.85152    0.00000
   68      3.19915    0.00000
   69      3.79271    0.00000
   70      4.14130    0.00000
   71      4.83511    0.00000
   72      5.16897    0.00000
   73      5.58189    0.00000
   74      5.96620    0.00000
   75      6.52729    0.00000
   76      6.75597    0.00000
   77      6.96353    0.00000
   78      7.11839    0.00000
   79      7.61075    0.00000
   80      7.93727    0.00000
   81      7.97534    0.00000
   82      8.38159    0.00000
   83      8.55660    0.00000
   84      8.87431    0.00000
   85      8.98824    0.00000
   86      9.20666    0.00000
   87      9.32464    0.00000
   88      9.37115    0.00000
   89      9.46288    0.00000
   90      9.51608    0.00000
   91      9.60336    0.00000
   92      9.70236    0.00000
   93      9.94685    0.00000
   94     10.01714    0.00000
   95     10.03552    0.00000
   96     10.13346    0.00000
   97     10.34645    0.00000


Forces in eV/Ang:
  0 C    -3.59015    2.09084   -0.41922
  1 C    -1.28733   -0.30061   -0.51346
  2 C    -0.03723   -1.07186   -0.27598
  3 C     0.27968   -0.40041   -0.16232
  4 C    -1.42292    0.77460   -0.20272
  5 C    -1.98913    1.26833    0.14258
  6 C    -0.08847   -0.16431   -0.05868
  7 C    -0.17154   -0.07173   -0.06489
  8 C    -0.49940   -0.01811   -0.17278
  9 C    -0.05640    0.35792   -0.09837
 10 C     0.14456    0.42128    0.16684
 11 C     0.61352    1.61977    0.50665
 12 C    -0.32677   -0.18920   -0.11981
 13 C    -1.50563    0.63733   -0.27733
 14 C     0.02767    0.26149    0.02257
 15 C    -0.52733    0.01099   -0.13368
 16 C     0.95698   -0.83422    0.08171
 17 C    -1.17180   -0.89299   -0.43982
 18 C     0.49473   -1.77693    0.34844
 19 C     2.27575    0.35062   -0.00034
 20 C     1.42113   -1.39732   -0.88293
 21 C    -0.09416   -0.04680    0.20364
 22 C     4.13676   -1.17394    2.19504
 23 C     2.32634    0.55354    0.11718

System changes: positions 

Initializing position-dependent things.

Density initialized from wave functions
           .--------------------------------------.  
          /|                                      |  
         / |                                      |  
        /  |                                      |  
       /   |                                      |  
      /    |                                      |  
     /     |                                      |  
    /      |             C  C C                   |  
   /       |           C                          |  
  /        |           C      C C                 |  
 *         |     C  C     C    C                  |  
 |         | C     C     C  C                     |  
 |         C----------C---------------------------.  
 |        /C        C  C  C                      /   
 |       /    C  C                 C            /    
 |      /                                      /     
 |     /                                      /      
 |    /                                      /       
 |   /                                      /        
 |  /                                      /         
 | /                                      /          
 |/                                      /           
 *--------------------------------------*            

Positions:
   0 C      5.566710    3.402668    4.939051
   1 C      6.936993    3.816614    5.357750
   2 C      5.946072    5.989745    5.649036
   3 C      7.107328    5.241578    5.744075
   4 C      8.238981    3.156077    5.550451
   5 C      5.868045    7.294695    5.929340
   6 C      9.641218    9.302217    7.348661
   7 C     10.756187    6.983549    6.969686
   8 C      9.702867    7.925151    6.990924
   9 C     10.740237    5.749627    6.660735
  10 C      8.574058   10.007127    7.249980
  11 C      7.297139   10.461361    6.999059
  12 C      9.618041    4.992486    6.268672
  13 C      8.437632    7.243454    6.514772
  14 C      8.385306    5.833566    6.179412
  15 C      9.350567    3.639909    5.928217
  16 C      6.819411    9.327179    6.599821
  17 C      7.103625    7.996250    6.352737
  18 C      4.424563    7.878352    5.824631
  19 C      3.243780    7.267443    5.737903
  20 C      2.578666    6.128849    5.458834
  21 C     12.232151    6.340930    3.765678
  22 C      4.201049    4.300346    4.731440
  23 C      2.966941    4.900410    5.047544

Unit cell:
           periodic     x           y           z      points  spacing
  1. axis:    yes   16.000000    0.000000    0.000000    80     0.2000
  2. axis:    yes    0.000000   16.000000    0.000000    80     0.2000
  3. axis:    yes    0.000000    0.000000   10.000000    48     0.2083

Effective grid spacing dv^(1/3) = 0.2027

                     log10-error:    total        iterations:
           time      wfs    density  energy       fermi  poisson
iter:   1  11:04:21          +inf  -171.508984    3      5      
iter:   2  11:04:21         -1.49  -172.339403    3      2      
iter:   3  11:04:22         -1.38  -171.266440    4      2      
iter:   4  11:04:23         -1.74  -171.159168    4      2      
iter:   5  11:04:23         -2.10  -171.200502    3      2      
iter:   6  11:04:24         -1.89  -171.135347    3      2      
iter:   7  11:04:24         -2.20  -171.132338    3      1      
iter:   8  11:04:25         -2.66  -171.131173    3      1      
iter:   9  11:04:26         -2.66  -171.128729    2      2      
iter:  10  11:04:26         -2.82  -171.133921    3      2      
iter:  11  11:04:27         -2.75  -171.128968    3      2      
iter:  12  11:04:27         -2.62  -171.128970    3      1      
iter:  13  11:04:28         -3.08  -171.130129    2      1      
iter:  14  11:04:29         -3.36  -171.130236    3      1      
iter:  15  11:04:29         -3.32  -171.130833    2      1      
iter:  16  11:04:30         -3.69  -171.130746    2      1      
iter:  17  11:04:30         -3.61  -171.130854    2      1      
iter:  18  11:04:31         -3.98  -171.130878    2      1      
iter:  19  11:04:32         -4.09  -171.130892    2      1      

Converged after 19 iterations.

Dipole moment: (0.039235, 0.134122, 0.042984) |e|*Ang

Energy contributions relative to reference atoms: (reference = -24663.074771)

Kinetic:        +63.194190
Potential:      -79.141454
External:        +0.000000
XC:            -157.792992
Entropy (-ST):   -0.649934
Local:           +2.934331
--------------------------
Free energy:   -171.455859
Extrapolated:  -171.130892

Fermi level: -4.08902

 Band  Eigenvalues  Occupancy
    0    -22.51288    2.00000
    1    -21.81077    2.00000
    2    -21.13382    2.00000
    3    -20.61274    2.00000
    4    -20.06378    2.00000
    5    -19.69242    2.00000
    6    -18.82721    2.00000
    7    -18.77878    2.00000
    8    -18.48796    2.00000
    9    -17.89735    2.00000
   10    -16.99789    2.00000
   11    -16.63983    2.00000
   12    -15.83029    2.00000
   13    -15.49997    2.00000
   14    -15.03243    2.00000
   15    -14.31560    2.00000
   16    -13.51585    2.00000
   17    -13.31971    2.00000
   18    -12.92338    2.00000
   19    -12.49828    2.00000
   20    -12.40218    2.00000
   21    -12.04597    2.00000
   22    -11.91732    2.00000
   23    -11.11374    2.00000
   24    -10.99657    2.00000
   25    -10.66145    2.00000
   26    -10.42079    2.00000
   27    -10.22416    2.00000
   28     -9.54127    2.00000
   29     -9.53260    2.00000
   30     -9.09466    2.00000
   31     -8.60545    2.00000
   32     -8.46341    2.00000
   33     -8.38414    2.00000
   34     -8.19838    2.00000
   35     -7.65716    2.00000
   36     -6.98303    2.00000
   37     -6.74841    2.00000
   38     -6.63240    2.00000
   39     -6.51243    2.00000
   40     -6.48842    2.00000
   41     -6.46535    2.00000
   42     -5.74449    2.00000
   43     -5.55130    2.00000
   44     -5.32042    1.99999
   45     -4.84372    1.99895
   46     -4.17291    1.39646
   47     -4.04307    0.77422
   48     -4.02072    0.67118
   49     -4.01228    0.63410
   50     -3.96501    0.44884
   51     -3.76057    0.07221
   52     -3.46649    0.00395
   53     -3.07517    0.00008
   54     -2.84122    0.00001
   55     -2.76701    0.00000
   56     -2.51434    0.00000
   57     -2.12688    0.00000
   58     -1.84329    0.00000
   59     -1.41933    0.00000
   60     -0.93221    0.00000
   61     -0.87509    0.00000
   62      0.01792    0.00000
   63      0.39816    0.00000
   64      1.64795    0.00000
   65      1.94064    0.00000
   66      2.59636    0.00000
   67      2.92583    0.00000
   68      3.29201    0.00000
   69      3.83101    0.00000
   70      4.12290    0.00000
   71      4.83161    0.00000
   72      5.19593    0.00000
   73      5.59230    0.00000
   74      6.10534    0.00000
   75      6.49063    0.00000
   76      6.65999    0.00000
   77      6.89317    0.00000
   78      7.13894    0.00000
   79      7.59827    0.00000
   80      7.91205    0.00000
   81      7.95569    0.00000
   82      8.36906    0.00000
   83      8.56610    0.00000
   84      8.87070    0.00000
   85      8.97496    0.00000
   86      9.18886    0.00000
   87      9.29609    0.00000
   88      9.37149    0.00000
   89      9.45531    0.00000
   90      9.50124    0.00000
   91      9.59384    0.00000
   92      9.69830    0.00000
   93      9.93792    0.00000
   94     10.02928    0.00000
   95     10.07357    0.00000
   96     10.14022    0.00000
   97     10.34182    0.00000


Forces in eV/Ang:
  0 C    -3.58982    2.57298   -0.38268
  1 C    -1.11871   -0.53007   -0.48167
  2 C    -0.28828   -1.03240   -0.33621
  3 C     0.30650   -0.56588   -0.19663
  4 C    -1.53944    0.84919   -0.22682
  5 C    -1.44059    1.55891    0.31065
  6 C    -0.06579   -0.20502   -0.06384
  7 C    -0.20557   -0.08751   -0.07626
  8 C    -0.56266    0.01471   -0.18135
  9 C    -0.05690    0.37006   -0.10203
 10 C     0.08304    0.42458    0.14359
 11 C     0.71990    1.87892    0.61278
 12 C    -0.37758   -0.22984   -0.13642
 13 C    -1.53212    0.63119   -0.28788
 14 C     0.00415    0.21116    0.00658
 15 C    -0.60749    0.07108   -0.15734
 16 C     0.75124   -1.14139   -0.05136
 17 C    -0.72292   -1.11382   -0.36867
 18 C    -0.19573   -1.75427    0.28472
 19 C     2.45316    0.31833   -0.02282
 20 C     1.60383   -1.75281   -1.00288
 21 C    -0.09824   -0.04675    0.20641
 22 C     4.09819   -1.36956    2.33234
 23 C     2.38955    0.85655    0.16267

System changes: positions 

Initializing position-dependent things.

Density initialized from wave functions
           .--------------------------------------.  
          /|                                      |  
         / |                                      |  
        /  |                                      |  
       /   |                                      |  
      /    |                                      |  
     /     |                                      |  
    /      |             C  C C                   |  
   /       |            C                         |  
  /        |           C      C C                 |  
 *         |     C  C     C    C                  |  
 |         | C     C     C  C                     |  
 |         C----------C---------------------------.  
 |        /C        C  C  C                      /   
 |       /    C  C                 C            /    
 |      /                                      /     
 |     /                                      /      
 |    /                                      /       
 |   /                                      /        
 |  /                                      /         
 | /                                      /          
 |/                                      /           
 *--------------------------------------*            

Positions:
   0 C      5.535379    3.415327    4.936158
   1 C      6.922812    3.820062    5.353500
   2 C      5.951769    5.986059    5.648673
   3 C      7.107790    5.242913    5.743489
   4 C      8.230433    3.160210    5.548649
   5 C      5.847909    7.288791    5.926709
   6 C      9.640297    9.301682    7.348348
   7 C     10.754998    6.984924    6.969715
   8 C      9.699186    7.924180    6.989209
   9 C     10.739399    5.750248    6.659178
  10 C      8.575535   10.009516    7.251122
  11 C      7.297499   10.467487    7.000398
  12 C      9.616694    4.992356    6.268253
  13 C      8.429604    7.244794    6.512449
  14 C      8.385240    5.835888    6.179495
  15 C      9.346398    3.638505    5.926973
  16 C      6.838845    9.328613    6.605254
  17 C      7.082601    7.997950    6.348664
  18 C      4.438763    7.868337    5.828370
  19 C      3.253818    7.266964    5.737670
  20 C      2.587991    6.125475    5.454327
  21 C     12.231240    6.340506    3.767639
  22 C      4.237006    4.290992    4.746258
  23 C      2.986988    4.896559    5.047507

Unit cell:
           periodic     x           y           z      points  spacing
  1. axis:    yes   16.000000    0.000000    0.000000    80     0.2000
  2. axis:    yes    0.000000   16.000000    0.000000    80     0.2000
  3. axis:    yes    0.000000    0.000000   10.000000    48     0.2083

Effective grid spacing dv^(1/3) = 0.2027

                     log10-error:    total        iterations:
           time      wfs    density  energy       fermi  poisson
iter:   1  11:04:34          +inf  -172.129492    2      5      
iter:   2  11:04:34         -1.47  -172.923152    4      2      
iter:   3  11:04:35         -1.38  -171.819915    4      2      
iter:   4  11:04:36         -1.74  -171.712678    3      2      
iter:   5  11:04:36         -2.06  -171.783785    4      2      
iter:   6  11:04:37         -1.81  -171.684166    3      2      
iter:   7  11:04:37         -2.33  -171.685855    3      1      
iter:   8  11:04:38         -2.48  -171.679475    3      1      
iter:   9  11:04:39         -2.67  -171.677735    3      1      
iter:  10  11:04:39         -2.87  -171.682878    3      2      
iter:  11  11:04:40         -2.92  -171.679171    3      2      
iter:  12  11:04:40         -2.75  -171.680187    3      1      
iter:  13  11:04:41         -3.30  -171.680012    2      1      
iter:  14  11:04:42         -3.32  -171.680924    3      1      
iter:  15  11:04:42         -3.55  -171.681754    2      1      
iter:  16  11:04:43         -3.66  -171.682227    2      1      
iter:  17  11:04:43         -3.85  -171.681797    2      1      
iter:  18  11:04:44         -3.99  -171.681612    2      1      
iter:  19  11:04:45         -4.08  -171.681970    2      1      

Converged after 19 iterations.

Dipole moment: (0.022310, 0.142159, 0.047047) |e|*Ang

Energy contributions relative to reference atoms: (reference = -24663.074771)

Kinetic:        +63.262179
Potential:      -79.313077
External:        +0.000000
XC:            -158.248386
Entropy (-ST):   -0.645416
Local:           +2.940022
--------------------------
Free energy:   -172.004678
Extrapolated:  -171.681970

Fermi level: -4.05581

 Band  Eigenvalues  Occupancy
    0    -22.52552    2.00000
    1    -21.85021    2.00000
    2    -21.15016    2.00000
    3    -20.62669    2.00000
    4    -20.02763    2.00000
    5    -19.69854    2.00000
    6    -18.85413    2.00000
    7    -18.78328    2.00000
    8    -18.50211    2.00000
    9    -17.87306    2.00000
   10    -17.02273    2.00000
   11    -16.72344    2.00000
   12    -15.81864    2.00000
   13    -15.47602    2.00000
   14    -15.08705    2.00000
   15    -14.37295    2.00000
   16    -13.49541    2.00000
   17    -13.29092    2.00000
   18    -12.91578    2.00000
   19    -12.46389    2.00000
   20    -12.39634    2.00000
   21    -12.12207    2.00000
   22    -11.96358    2.00000
   23    -11.15455    2.00000
   24    -11.08915    2.00000
   25    -10.64357    2.00000
   26    -10.42630    2.00000
   27    -10.22500    2.00000
   28     -9.57726    2.00000
   29     -9.55508    2.00000
   30     -9.11469    2.00000
   31     -8.63253    2.00000
   32     -8.44836    2.00000
   33     -8.39575    2.00000
   34     -8.19333    2.00000
   35     -7.67260    2.00000
   36     -7.00447    2.00000
   37     -6.78969    2.00000
   38     -6.65389    2.00000
   39     -6.51426    2.00000
   40     -6.48284    2.00000
   41     -6.45766    2.00000
   42     -5.71448    2.00000
   43     -5.56663    2.00000
   44     -5.31960    1.99999
   45     -4.90424    1.99959
   46     -4.14385    1.41381
   47     -4.01375    0.79275
   48     -3.98740    0.67070
   49     -3.97901    0.63383
   50     -3.91968    0.40806
   51     -3.73254    0.07591
   52     -3.46160    0.00524
   53     -3.07862    0.00011
   54     -2.83284    0.00001
   55     -2.77144    0.00001
   56     -2.47970    0.00000
   57     -2.12402    0.00000
   58     -1.84999    0.00000
   59     -1.30597    0.00000
   60     -0.88744    0.00000
   61     -0.85962    0.00000
   62      0.06745    0.00000
   63      0.48327    0.00000
   64      1.77560    0.00000
   65      2.09050    0.00000
   66      2.63877    0.00000
   67      3.07533    0.00000
   68      3.38565    0.00000
   69      3.86043    0.00000
   70      4.09273    0.00000
   71      4.83280    0.00000
   72      5.22345    0.00000
   73      5.60537    0.00000
   74      6.16980    0.00000
   75      6.46099    0.00000
   76      6.58845    0.00000
   77      6.86622    0.00000
   78      7.17581    0.00000
   79      7.59002    0.00000
   80      7.88962    0.00000
   81      7.96796    0.00000
   82      8.35307    0.00000
   83      8.58011    0.00000
   84      8.86954    0.00000
   85      8.97103    0.00000
   86      9.17280    0.00000
   87      9.27015    0.00000
   88      9.38336    0.00000
   89      9.44832    0.00000
   90      9.49290    0.00000
   91      9.59252    0.00000
   92      9.69513    0.00000
   93      9.93363    0.00000
   94     10.03188    0.00000
   95     10.14273    0.00000
   96     10.16318    0.00000
   97     10.33239    0.00000


Forces in eV/Ang:
  0 C    -3.38416    2.90105   -0.31521
  1 C    -0.94085   -0.72600   -0.44273
  2 C    -0.51593   -0.97464   -0.38637
  3 C     0.33024   -0.71884   -0.22796
  4 C    -1.64695    0.90822   -0.25004
  5 C    -0.92139    1.80431    0.42377
  6 C    -0.06599   -0.22976   -0.07165
  7 C    -0.24040   -0.15474   -0.09943
  8 C    -0.61566    0.04224   -0.18733
  9 C    -0.05542    0.42458   -0.09251
 10 C     0.02975    0.41601    0.11723
 11 C     0.76789    2.08758    0.69779
 12 C    -0.42043   -0.27818   -0.15468
 13 C    -1.54141    0.63353   -0.29609
 14 C    -0.02646    0.16238   -0.01148
 15 C    -0.67088    0.14035   -0.17262
 16 C     0.55955   -1.35685   -0.15240
 17 C    -0.28505   -1.26086   -0.26844
 18 C    -0.91752   -1.66627    0.22003
 19 C     2.55382    0.28790   -0.04895
 20 C     1.80543   -2.05631   -1.11545
 21 C    -0.10221   -0.04745    0.20981
 22 C     3.86169   -1.49171    2.38671
 23 C     2.40768    1.13381    0.21607

System changes: positions 

Initializing position-dependent things.

Density initialized from wave functions
           .--------------------------------------.  
          /|                                      |  
         / |                                      |  
        /  |                                      |  
       /   |                                      |  
      /    |                                      |  
     /     |                                      |  
    /      |             C  C C                   |  
   /       |            C                         |  
  /        |           C      C C                 |  
 *         |     C  C     C    C                  |  
 |         | C     C     C  C                     |  
 |         C----------C---------------------------.  
 |        /C        C  C  C                      /   
 |       /    C  C                 C            /    
 |      /                                      /     
 |     /                                      /      
 |    /                                      /       
 |   /                                      /        
 |  /                                      /         
 | /                                      /          
 |/                                      /           
 *--------------------------------------*            

Positions:
   0 C      5.504748    3.429418    4.933967
   1 C      6.908588    3.823169    5.349282
   2 C      5.957237    5.982702    5.648117
   3 C      7.108327    5.243825    5.742756
   4 C      8.220776    3.164845    5.546490
   5 C      5.829708    7.282564    5.924195
   6 C      9.639088    9.301099    7.347938
   7 C     10.753478    6.985944    6.969597
   8 C      9.695051    7.923143    6.987313
   9 C     10.738473    5.751234    6.657552
  10 C      8.576912   10.011916    7.252161
  11 C      7.297484   10.474556    7.002087
  12 C      9.615184    4.991971    6.267721
  13 C      8.421131    7.246109    6.509811
  14 C      8.384859    5.838086    6.179428
  15 C      9.341478    3.637321    5.925530
  16 C      6.859898    9.329858    6.611061
  17 C      7.061623    7.999799    6.345004
  18 C      4.449800    7.859033    5.832039
  19 C      3.263979    7.266000    5.737239
  20 C      2.599437    6.120622    5.448899
  21 C     12.230215    6.340034    3.769815
  22 C      4.272551    4.280803    4.761514
  23 C      3.008389    4.893591    5.047926

Unit cell:
           periodic     x           y           z      points  spacing
  1. axis:    yes   16.000000    0.000000    0.000000    80     0.2000
  2. axis:    yes    0.000000   16.000000    0.000000    80     0.2000
  3. axis:    yes    0.000000    0.000000   10.000000    48     0.2083

Effective grid spacing dv^(1/3) = 0.2027

                     log10-error:    total        iterations:
           time      wfs    density  energy       fermi  poisson
iter:   1  11:04:47          +inf  -172.732287    3      5      
iter:   2  11:04:47         -1.46  -173.463070    4      2      
iter:   3  11:04:48         -1.38  -172.333605    3      2      
iter:   4  11:04:49         -1.75  -172.230591    3      2      
iter:   5  11:04:49         -2.05  -172.305110    4      2      
iter:   6  11:04:50         -1.81  -172.202693    4      2      
iter:   7  11:04:50         -2.56  -172.200351    3      1      
iter:   8  11:04:51         -2.43  -172.193812    3      1      
iter:   9  11:04:52         -2.76  -172.200303    3      2      
iter:  10  11:04:52         -2.80  -172.195706    3      1      
iter:  11  11:04:53         -2.96  -172.196449    3      2      
iter:  12  11:04:54         -3.19  -172.197608    2      1      
iter:  13  11:04:54         -3.27  -172.197662    2      1      
iter:  14  11:04:55         -3.37  -172.194260    2      1      
iter:  15  11:04:55         -3.57  -172.197709    2      1      
iter:  16  11:04:56         -3.69  -172.198924    2      1      
iter:  17  11:04:56         -3.79  -172.197685    2      1      
iter:  18  11:04:57         -3.82  -172.198740    2      1      
iter:  19  11:04:58         -4.06  -172.198625    2      1      

Converged after 19 iterations.

Dipole moment: (-0.000049, 0.147374, 0.050011) |e|*Ang

Energy contributions relative to reference atoms: (reference = -24663.074771)

Kinetic:        +64.651194
Potential:      -80.531331
External:        +0.000000
XC:            -158.950756
Entropy (-ST):   -0.637564
Local:           +2.951051
--------------------------
Free energy:   -172.517407
Extrapolated:  -172.198625

Fermi level: -4.02337

 Band  Eigenvalues  Occupancy
    0    -22.54270    2.00000
    1    -21.88921    2.00000
    2    -21.16641    2.00000
    3    -20.64079    2.00000
    4    -20.00610    2.00000
    5    -19.70615    2.00000
    6    -18.88403    2.00000
    7    -18.78690    2.00000
    8    -18.52755    2.00000
    9    -17.86177    2.00000
   10    -17.07234    2.00000
   11    -16.80516    2.00000
   12    -15.80675    2.00000
   13    -15.46175    2.00000
   14    -15.14037    2.00000
   15    -14.42041    2.00000
   16    -13.47344    2.00000
   17    -13.26677    2.00000
   18    -12.90309    2.00000
   19    -12.43196    2.00000
   20    -12.38703    2.00000
   21    -12.19478    2.00000
   22    -12.00169    2.00000
   23    -11.19244    2.00000
   24    -11.16199    2.00000
   25    -10.61861    2.00000
   26    -10.43160    2.00000
   27    -10.21822    2.00000
   28     -9.60130    2.00000
   29     -9.57677    2.00000
   30     -9.13432    2.00000
   31     -8.68123    2.00000
   32     -8.44131    2.00000
   33     -8.39549    2.00000
   34     -8.19232    2.00000
   35     -7.68716    2.00000
   36     -7.02818    2.00000
   37     -6.84436    2.00000
   38     -6.67857    2.00000
   39     -6.51294    2.00000
   40     -6.47509    2.00000
   41     -6.44792    2.00000
   42     -5.68960    2.00000
   43     -5.58020    2.00000
   44     -5.32367    2.00000
   45     -4.96806    1.99984
   46     -4.11809    1.44108
   47     -3.98498    0.81038
   48     -3.95514    0.67149
   49     -3.94675    0.63457
   50     -3.87146    0.35919
   51     -3.70116    0.07668
   52     -3.45228    0.00660
[...]
    7    -19.38237    2.00000
    8    -19.07637    2.00000
    9    -18.52093    2.00000
   10    -18.00831    2.00000
   11    -17.40114    2.00000
   12    -16.82013    2.00000
   13    -15.90266    2.00000
   14    -15.69152    2.00000
   15    -15.01246    2.00000
   16    -14.04305    2.00000
   17    -13.64510    2.00000
   18    -13.08261    2.00000
   19    -12.92494    2.00000
   20    -12.17666    2.00000
   21    -11.76129    2.00000
   22    -11.56589    2.00000
   23    -11.21308    2.00000
   24    -11.19165    2.00000
   25    -10.81400    2.00000
   26    -10.49353    2.00000
   27    -10.41311    2.00000
   28    -10.26795    2.00000
   29    -10.13606    2.00000
   30     -9.69399    2.00000
   31     -9.52356    2.00000
   32     -9.37409    2.00000
   33     -9.09663    2.00000
   34     -9.02554    2.00000
   35     -8.76789    2.00000
   36     -8.27054    2.00000
   37     -8.06030    2.00000
   38     -7.88673    2.00000
   39     -7.13045    2.00000
   40     -6.71423    2.00000
   41     -6.43970    2.00000
   42     -6.25166    2.00000
   43     -5.99234    2.00000
   44     -5.79282    2.00000
   45     -4.89489    1.98247
   46     -4.75454    1.93052
   47     -4.52289    1.46523
   48     -4.33437    0.58752
   49     -4.01638    0.03401
   50     -3.52301    0.00025
   51     -3.17391    0.00001
   52     -2.61134    0.00000
   53     -2.53819    0.00000
   54     -2.11306    0.00000
   55     -1.37683    0.00000
   56     -0.59758    0.00000
   57     -0.03635    0.00000
   58      0.50077    0.00000
   59      0.85454    0.00000
   60      1.24697    0.00000
   61      1.57977    0.00000
   62      2.12332    0.00000
   63      2.16156    0.00000
   64      2.87184    0.00000
   65      2.98447    0.00000
   66      3.32084    0.00000
   67      3.56728    0.00000
   68      3.82118    0.00000
   69      4.22954    0.00000
   70      4.70705    0.00000
   71      4.86694    0.00000
   72      5.21450    0.00000
   73      5.44247    0.00000
   74      5.69132    0.00000
   75      5.81117    0.00000
   76      6.46608    0.00000
   77      6.67496    0.00000
   78      7.34929    0.00000
   79      7.41340    0.00000
   80      8.07668    0.00000
   81      8.36458    0.00000
   82      8.59744    0.00000
   83      8.70394    0.00000
   84      8.88194    0.00000
   85      9.01221    0.00000
   86      9.14151    0.00000
   87      9.29596    0.00000
   88      9.33912    0.00000
   89      9.39734    0.00000
   90      9.42715    0.00000
   91      9.74797    0.00000
   92      9.78192    0.00000
   93      9.95054    0.00000
   94     10.00846    0.00000
   95     10.05520    0.00000
   96     10.13411    0.00000
   97     10.24776    0.00000


Forces in eV/Ang:
  0 C     0.12635    0.05875    0.09420
  1 C     0.01713    0.04330   -0.04401
  2 C     0.06673    0.04087    0.08821
  3 C    -0.03973    0.07460   -0.00631
  4 C     0.06178    0.01603   -0.10612
  5 C    -0.07470   -0.04925   -0.00822
  6 C     0.04543    0.01701    0.06548
  7 C     0.04608    0.02124   -0.06040
  8 C     0.03936    0.00654    0.02326
  9 C     0.00907   -0.05577    0.12886
 10 C     0.03172    0.04389   -0.00082
 11 C    -0.03713    0.01644   -0.08221
 12 C     0.01338    0.01133    0.00227
 13 C     0.04182   -0.03194    0.01432
 14 C     0.00009   -0.01977   -0.02662
 15 C     0.03697    0.01121   -0.01435
 16 C     0.06414    0.01369    0.02878
 17 C    -0.05195    0.02160    0.01668
 18 C     0.00421    0.05430    0.00048
 19 C    -0.06867    0.02870    0.03053
 20 C     0.00671    0.05427   -0.01124
 21 C    -0.02061   -0.00237    0.00029
 22 C    -0.07177    0.00750   -0.09312
 23 C    -0.00091   -0.07825    0.03789

System changes: positions 

Initializing position-dependent things.

Density initialized from wave functions
           .--------------------------------------.  
          /|                                      |  
         / |                                      |  
        /  |                                      |  
       /   |                                      |  
      /    |                                      |  
     /     |                                      |  
    /      |             C  C C                   |  
   /       |            C                         |  
  /        |            C     C C                 |  
 *         |     C  C     C        C              |  
 |         |  C     C     C C   C                 |  
 |         C--C--C----C----C----------------------.  
 |        /      C   C  C                        /   
 |       /                                      /    
 |      /                                      /     
 |     /                                      /      
 |    /                                      /       
 |   /                                      /        
 |  /                                      /         
 | /                                      /          
 |/                                      /           
 *--------------------------------------*            

Positions:
   0 C      5.828766    3.504166    5.594554
   1 C      7.226116    3.739008    5.772083
   2 C      6.203885    5.822847    5.942542
   3 C      7.449143    5.187570    5.964084
   4 C      8.502749    3.175740    5.909938
   5 C      6.024987    7.205396    6.219828
   6 C      9.621533    9.352605    7.310539
   7 C     10.989237    7.261716    6.714222
   8 C      9.795151    8.039593    6.837059
   9 C     11.054659    5.896463    6.456063
  10 C      8.506575   10.048483    7.274157
  11 C      7.218715   10.656990    7.117054
  12 C      9.910577    5.073681    6.279552
  13 C      8.577978    7.275634    6.484635
  14 C      8.666914    5.851063    6.226951
  15 C      9.653486    3.686376    6.111637
  16 C      7.254552    9.299639    6.854137
  17 C      7.261319    7.931152    6.504864
  18 C      4.678298    7.669582    6.193425
  19 C      3.668259    6.934444    5.884106
  20 C      2.727554    5.955350    5.498512
  21 C     12.286802    6.688911    6.439770
  22 C      5.183696    4.763087    5.684108
  23 C      3.886560    5.292510    5.588497

Unit cell:
           periodic     x           y           z      points  spacing
  1. axis:    yes   16.000000    0.000000    0.000000    80     0.2000
  2. axis:    yes    0.000000   16.000000    0.000000    80     0.2000
  3. axis:    yes    0.000000    0.000000   10.000000    48     0.2083

Effective grid spacing dv^(1/3) = 0.2027

                     log10-error:    total        iterations:
           time      wfs    density  energy       fermi  poisson
iter:   1  11:24:40          +inf  -183.554426    2      5      
iter:   2  11:24:41         -1.85  -183.563223    3      2      
iter:   3  11:24:42         -2.10  -183.509848    3      2      
iter:   4  11:24:42         -2.48  -183.499200    3      1      
iter:   5  11:24:43         -2.65  -183.503446    2      2      
iter:   6  11:24:44         -2.84  -183.501147    2      2      
iter:   7  11:24:44         -2.91  -183.497373    3      2      
iter:   8  11:24:45         -2.99  -183.500257    2      1      
iter:   9  11:24:46         -3.32  -183.500805    2      1      
iter:  10  11:24:46         -3.45  -183.499533    2      1      
iter:  11  11:24:47         -3.40  -183.500533    2      1      
iter:  12  11:24:47         -3.75  -183.500398    2      1      
iter:  13  11:24:48         -3.87  -183.500505    2      1      
iter:  14  11:24:49         -4.11  -183.500811    2      1      

Converged after 14 iterations.

Dipole moment: (-0.254198, 0.338969, 0.151948) |e|*Ang

Energy contributions relative to reference atoms: (reference = -24663.074771)

Kinetic:       +116.854476
Potential:     -123.716940
External:        +0.000000
XC:            -179.445210
Entropy (-ST):   -0.297184
Local:           +2.955455
--------------------------
Free energy:   -183.649403
Extrapolated:  -183.500811

Fermi level: -4.41885

 Band  Eigenvalues  Occupancy
    0    -23.90871    2.00000
    1    -23.14170    2.00000
    2    -22.91080    2.00000
    3    -22.28336    2.00000
    4    -21.39679    2.00000
    5    -20.93024    2.00000
    6    -20.47414    2.00000
    7    -19.38052    2.00000
    8    -19.06146    2.00000
    9    -18.53663    2.00000
   10    -17.99864    2.00000
   11    -17.41536    2.00000
   12    -16.81761    2.00000
   13    -15.90143    2.00000
   14    -15.70105    2.00000
   15    -15.00429    2.00000
   16    -14.01721    2.00000
   17    -13.62536    2.00000
   18    -13.08127    2.00000
   19    -12.93523    2.00000
   20    -12.18515    2.00000
   21    -11.76541    2.00000
   22    -11.55031    2.00000
   23    -11.24764    2.00000
   24    -11.19027    2.00000
   25    -10.81926    2.00000
   26    -10.49025    2.00000
   27    -10.40523    2.00000
   28    -10.25949    2.00000
   29    -10.13991    2.00000
   30     -9.70967    2.00000
   31     -9.54036    2.00000
   32     -9.37778    2.00000
   33     -9.07219    2.00000
   34     -8.99994    2.00000
   35     -8.75629    2.00000
   36     -8.29413    2.00000
   37     -8.06164    2.00000
   38     -7.88394    2.00000
   39     -7.13638    2.00000
   40     -6.71355    2.00000
   41     -6.42964    2.00000
   42     -6.26767    2.00000
   43     -6.00570    2.00000
   44     -5.75717    2.00000
   45     -4.90251    1.98426
   46     -4.74485    1.92606
   47     -4.51681    1.45405
   48     -4.33492    0.60337
   49     -4.00709    0.03204
   50     -3.50310    0.00021
   51     -3.17050    0.00001
   52     -2.61806    0.00000
   53     -2.53735    0.00000
   54     -2.13817    0.00000
   55     -1.37689    0.00000
   56     -0.58114    0.00000
   57     -0.04083    0.00000
   58      0.48990    0.00000
   59      0.81556    0.00000
   60      1.12281    0.00000
   61      1.58062    0.00000
   62      2.15368    0.00000
   63      2.16816    0.00000
   64      2.89820    0.00000
   65      3.01512    0.00000
   66      3.32555    0.00000
   67      3.56307    0.00000
   68      3.85973    0.00000
   69      4.25594    0.00000
   70      4.71072    0.00000
   71      4.87503    0.00000
   72      5.23314    0.00000
   73      5.47930    0.00000
   74      5.70633    0.00000
   75      5.80912    0.00000
   76      6.46753    0.00000
   77      6.67010    0.00000
   78      7.36485    0.00000
   79      7.40816    0.00000
   80      8.07748    0.00000
   81      8.37995    0.00000
   82      8.56536    0.00000
   83      8.71356    0.00000
   84      8.85082    0.00000
   85      9.00297    0.00000
   86      9.14308    0.00000
   87      9.29079    0.00000
   88      9.33001    0.00000
   89      9.39655    0.00000
   90      9.41920    0.00000
   91      9.74562    0.00000
   92      9.77948    0.00000
   93      9.94600    0.00000
   94     10.01150    0.00000
   95     10.05185    0.00000
   96     10.14246    0.00000
   97     10.24469    0.00000


Forces in eV/Ang:
  0 C    -0.06911   -0.15535   -0.01816
  1 C    -0.06559    0.02299    0.01864
  2 C     0.07392   -0.02384    0.00135
  3 C     0.10019    0.12020    0.02928
  4 C    -0.02325   -0.04394   -0.10054
  5 C     0.03951   -0.02697    0.01143
  6 C    -0.01441   -0.03874    0.03841
  7 C     0.00466   -0.00258    0.00390
  8 C    -0.04197   -0.01501   -0.06167
  9 C     0.00205   -0.00687    0.06734
 10 C    -0.06909    0.03586    0.00990
 11 C    -0.01529   -0.04745   -0.08314
 12 C     0.00619   -0.01847   -0.00056
 13 C    -0.01360    0.08494    0.05501
 14 C     0.03584    0.07903    0.02671
 15 C     0.09509    0.04454   -0.02970
 16 C     0.08919   -0.02776    0.01416
 17 C    -0.01882   -0.02015   -0.00293
 18 C     0.06543    0.09841    0.07133
 19 C     0.10686    0.01828   -0.01177
 20 C    -0.07211   -0.11690   -0.00253
 21 C     0.11245   -0.02544   -0.00148
 22 C    -0.12134    0.00461   -0.01380
 23 C    -0.07382    0.00637    0.00315

System changes: positions 

Initializing position-dependent things.

Density initialized from wave functions
           .--------------------------------------.  
          /|                                      |  
         / |                                      |  
        /  |                                      |  
       /   |                                      |  
      /    |                                      |  
     /     |                                      |  
    /      |             C  C C                   |  
   /       |            C                         |  
  /        |            C     C C                 |  
 *         |     C  C     C        C              |  
 |         |  C     C     C C   C                 |  
 |         C--C--C----C----C----------------------.  
 |        /      C   C  C                        /   
 |       /                                      /    
 |      /                                      /     
 |     /                                      /      
 |    /                                      /       
 |   /                                      /        
 |  /                                      /         
 | /                                      /          
 |/                                      /           
 *--------------------------------------*            

Positions:
   0 C      5.825703    3.503990    5.592378
   1 C      7.223594    3.738952    5.777299
   2 C      6.205496    5.821797    5.944071
   3 C      7.451292    5.188179    5.970897
   4 C      8.501877    3.176050    5.911284
   5 C      6.028281    7.205023    6.219909
   6 C      9.616850    9.352202    7.311194
   7 C     10.993304    7.263353    6.713915
   8 C      9.797092    8.040528    6.835551
   9 C     11.057837    5.898478    6.453593
  10 C      8.503009   10.049508    7.274926
  11 C      7.212911   10.654184    7.115046
  12 C      9.913738    5.073994    6.277212
  13 C      8.580834    7.276254    6.485252
  14 C      8.669669    5.851768    6.229190
  15 C      9.653881    3.687293    6.109737
  16 C      7.254792    9.296744    6.853917
  17 C      7.263835    7.929385    6.505156
  18 C      4.680880    7.668832    6.193108
  19 C      3.671856    6.932439    5.881057
  20 C      2.721882    5.954108    5.502702
  21 C     12.293569    6.687422    6.445949
  22 C      5.181842    4.764483    5.683478
  23 C      3.885604    5.297532    5.588398

Unit cell:
           periodic     x           y           z      points  spacing
  1. axis:    yes   16.000000    0.000000    0.000000    80     0.2000
  2. axis:    yes    0.000000   16.000000    0.000000    80     0.2000
  3. axis:    yes    0.000000    0.000000   10.000000    48     0.2083

Effective grid spacing dv^(1/3) = 0.2027

                     log10-error:    total        iterations:
           time      wfs    density  energy       fermi  poisson
iter:   1  11:24:51          +inf  -183.517122    3      4      
iter:   2  11:24:52         -2.63  -183.507922    2      1      
iter:   3  11:24:52         -2.85  -183.506301    2      1      
iter:   4  11:24:53         -2.98  -183.507095    3      1      
iter:   5  11:24:54         -3.15  -183.505350    2      1      
iter:   6  11:24:54         -2.81  -183.503670    2      1      
iter:   7  11:24:55         -3.43  -183.505957    2      1      
iter:   8  11:24:55         -3.30  -183.505360    2      1      
iter:   9  11:24:56         -3.34  -183.505577    2      1      
iter:  10  11:24:57         -3.41  -183.506598    2      1      
iter:  11  11:24:57         -3.35  -183.505289    2      1      
iter:  12  11:24:58         -4.06  -183.504451    2      1      

Converged after 12 iterations.

Dipole moment: (-0.248258, 0.347482, 0.152502) |e|*Ang

Energy contributions relative to reference atoms: (reference = -24663.074771)

Kinetic:       +116.249141
Potential:     -123.241605
External:        +0.000000
XC:            -179.308549
Entropy (-ST):   -0.296144
Local:           +2.944634
--------------------------
Free energy:   -183.652523
Extrapolated:  -183.504451

Fermi level: -4.42230

 Band  Eigenvalues  Occupancy
    0    -23.92063    2.00000
    1    -23.14185    2.00000
    2    -22.90740    2.00000
    3    -22.28183    2.00000
    4    -21.39874    2.00000
    5    -20.92867    2.00000
    6    -20.47366    2.00000
    7    -19.37952    2.00000
    8    -19.06382    2.00000
    9    -18.53100    2.00000
   10    -18.00336    2.00000
   11    -17.40988    2.00000
   12    -16.82010    2.00000
   13    -15.89950    2.00000
   14    -15.69591    2.00000
   15    -15.00493    2.00000
   16    -14.02884    2.00000
   17    -13.62771    2.00000
   18    -13.08074    2.00000
   19    -12.92938    2.00000
   20    -12.17857    2.00000
   21    -11.76268    2.00000
   22    -11.55543    2.00000
   23    -11.22649    2.00000
   24    -11.19578    2.00000
   25    -10.81543    2.00000
   26    -10.48859    2.00000
   27    -10.40584    2.00000
   28    -10.26329    2.00000
   29    -10.13633    2.00000
   30     -9.70012    2.00000
   31     -9.53257    2.00000
   32     -9.37465    2.00000
   33     -9.08050    2.00000
   34     -9.00881    2.00000
   35     -8.75749    2.00000
   36     -8.28584    2.00000
   37     -8.06104    2.00000
   38     -7.88425    2.00000
   39     -7.13381    2.00000
   40     -6.71410    2.00000
   41     -6.43492    2.00000
   42     -6.26225    2.00000
   43     -6.00025    2.00000
   44     -5.77390    2.00000
   45     -4.90140    1.98353
   46     -4.75058    1.92766
   47     -4.52083    1.45630
   48     -4.33791    0.60143
   49     -4.00666    0.03084
   50     -3.51462    0.00023
   51     -3.17363    0.00001
   52     -2.61651    0.00000
   53     -2.53893    0.00000
   54     -2.12977    0.00000
   55     -1.37802    0.00000
   56     -0.59215    0.00000
   57     -0.03958    0.00000
   58      0.49023    0.00000
   59      0.83084    0.00000
   60      1.16592    0.00000
   61      1.57020    0.00000
   62      2.14574    0.00000
   63      2.15445    0.00000
   64      2.89350    0.00000
   65      2.98729    0.00000
   66      3.32290    0.00000
   67      3.56039    0.00000
   68      3.83788    0.00000
   69      4.23427    0.00000
   70      4.70386    0.00000
   71      4.86833    0.00000
   72      5.21781    0.00000
   73      5.45769    0.00000
   74      5.68256    0.00000
   75      5.80106    0.00000
   76      6.46849    0.00000
   77      6.66789    0.00000
   78      7.35692    0.00000
   79      7.39955    0.00000
   80      8.07147    0.00000
   81      8.36697    0.00000
   82      8.56764    0.00000
   83      8.71024    0.00000
   84      8.85754    0.00000
   85      9.00085    0.00000
   86      9.13989    0.00000
   87      9.29314    0.00000
   88      9.33325    0.00000
   89      9.39629    0.00000
   90      9.41418    0.00000
   91      9.74295    0.00000
   92      9.77648    0.00000
   93      9.94579    0.00000
   94     10.00978    0.00000
   95     10.04882    0.00000
   96     10.13796    0.00000
   97     10.24567    0.00000


Forces in eV/Ang:
  0 C    -0.02404   -0.08928   -0.01614
  1 C    -0.00521    0.01598    0.00856
  2 C     0.04561   -0.01392    0.01604
  3 C     0.02144    0.05490    0.00768
  4 C    -0.00905   -0.00899   -0.09141
  5 C    -0.00733   -0.03960    0.00383
  6 C     0.00395   -0.03458    0.02787
  7 C     0.01864   -0.00848   -0.01719
  8 C    -0.02009   -0.00025   -0.03149
  9 C     0.00002   -0.02248    0.06781
 10 C    -0.03743    0.02598    0.00537
 11 C    -0.01309   -0.04816   -0.07591
 12 C     0.00241    0.00227    0.00348
 13 C    -0.01350    0.03756    0.04111
 14 C     0.04141    0.05411    0.01943
 15 C     0.06105    0.03076   -0.04020
 16 C     0.06823    0.01665    0.01810
 17 C    -0.02622   -0.01065    0.00904
 18 C     0.07909    0.03823    0.04081
 19 C    -0.00540    0.03075   -0.00257
 20 C    -0.02241   -0.02621    0.01620
 21 C     0.05802   -0.00340    0.03059
 22 C    -0.04641    0.01268   -0.00190
 23 C    -0.05503   -0.03311   -0.00427

