
  ___ ___ ___ _ _ _  
 |   |   |_  | | | | 
 | | | | | . | | | | 
 |__ |  _|___|_____|  1.3.0b1
 |___|_|             

User:   esb@s65n84.grendel.cscaa.dk
Date:   Thu Nov  9 10:02:34 2017
Arch:   x86_64
Pid:    56149
Python: 2.7.13
gpaw:   /home/esb/DFT/gpaw_git/gpaw
_gpaw:  /home/esb/DFT/gpaw_git/build/bin.linux-x86_64-2.7/gpaw-python
ase:    /home/esb/DFT/ase_git/ase (version 3.15.0b1)
numpy:  /comm/swstack/core/python/2.7.13/lib/python2.7/site-packages/numpy (version 1.13.3)
scipy:  /comm/swstack/core/python/2.7.13/lib/python2.7/site-packages/scipy (version 0.19.1)
units:  Angstrom and eV
cores:  16
Extra parameters: {'blacs': True}

Input parameters:
  basis: dzp
  gpts: [80 80 48]
  kpts: [1 1 1]
  maxiter: 99
  mixer: {backend: pulay,
          beta: 0.05,
          method: separate,
          nmaxold: 5,
          weight: 75}
  mode: lcao
  nbands: -50
  occupations: {name: fermi-dirac,
                width: 0.1}
  poissonsolver: {eps: 1e-07,
                  name: fd,
                  nn: 3,
                  relax: GS}
  xc: PBE

System changes: positions, numbers, cell, pbc, initial_charges, initial_magmoms 

Initialize ...

C-setup:
  name: Carbon
  id: 4aa54d4b901d75f77cc0ea3eec22967b
  Z: 6
  valence: 4
  core: 2
  charge: 0.0
  file: /home/esb/DFT/gpaw-setups-0.8.7929/C.PBE.gz
  cutoffs: 0.64(comp), 1.14(filt), 1.14(core), lmax=2
  valence states:
                energy  radius
    2s(2.00)   -13.751   0.635
    2p(2.00)    -5.284   0.635
    *s          13.461   0.635
    *p          21.927   0.635
    *d           0.000   0.635

  LCAO basis set for C:
    Name: dzp
    File: /home/esb/DFT/gpaw-setups-0.8.7929/C.dzp.basis.gz
    Number of radial functions: 5
    Number of spherical harmonics: 13
      l=0, rc=5.5469 Bohr: 2s-sz confined orbital
      l=1, rc=6.6719 Bohr: 2p-sz confined orbital
      l=0, rc=3.0312 Bohr: 2s-dz split-valence wave
      l=1, rc=3.7500 Bohr: 2p-dz split-valence wave
      l=2, rc=6.6719 Bohr: d-type Gaussian polarization

Reference energy: -24663.074771

Spin-paired calculation

Occupation numbers:
  Fermi-Dirac: width=0.1000 eV

Convergence criteria:
  Maximum total energy change: 0.0005 eV / electron
  Maximum integral of absolute density change: 0.0001 electrons
  Maximum integral of absolute eigenstate change: 4e-08 eV^2
  Maximum number of iterations: 99

Symmetries present (total): 1

  ( 1  0  0)
  ( 0  1  0)
  ( 0  0  1)

1 k-point (Gamma)
1 k-point in the irreducible part of the Brillouin zone
       k-points in crystal coordinates                weights
   0:     0.00000000    0.00000000    0.00000000          1/1

Wave functions: LCAO
  Diagonalizer: Serial LAPACK
  Atomic Correction: dense with blas
  Datatype: float
  Eigensolver: None 

LCAO using direct dense diagonalizer 

Densities:
  Coarse grid: 80*80*48 grid
  Fine grid: 160*160*96 grid
  Total Charge: 0.000000 

Density mixing:
  Method: separate
  Backend: pulay
  Linear mixing parameter: 0.05
  Mixing with 5 old densities
  Damping of long wave oscillations: 75 

Hamiltonian:
  XC and Coulomb potentials evaluated on a 160*160*96 grid
  Using the PBE Exchange-Correlation functional
  Interpolation: tri-quintic (5. degree polynomial)
  Poisson solver: Gauss-Seidel solver with 6 multi-grid levels
    Coarsest grid: 5 x 5 x 3 points
    Stencil: 6*3+1=19 point O(h^6) finite-difference Laplacian
    Max iterations: 1000
    Tolerance: 1.000000e-07 

Memory estimate:
  Process memory now: 77.56 MiB
  Calculator: 15.59 MiB
    Density: 6.13 MiB
      Arrays: 3.81 MiB
      Localized functions: 0.86 MiB
      Mixer: 1.46 MiB
    Hamiltonian: 5.40 MiB
      Arrays: 2.49 MiB
      XC: 0.00 MiB
      Poisson: 2.85 MiB
      vbar: 0.07 MiB
    Wavefunctions: 4.05 MiB
      C [qnM]: 0.23 MiB
      S, T [2 x qmm]: 1.49 MiB
      P [aqMi]: 0.01 MiB
      TCI: 0.00 MiB
      BasisFunctions: 2.33 MiB
      Eigensolver: 0.00 MiB

Total number of cores used: 16
Domain decomposition: 2 x 4 x 2

Number of atoms: 24
Number of atomic orbitals: 312
Number of bands in calculation: 98
Bands to converge: occupied states only
Number of valence electrons: 96

... initialized

Initializing position-dependent things.

Density initialized from atomic densities
           .--------------------------------------.  
          /|                                      |  
         / |                                      |  
        /  |                                      |  
       /   |                                      |  
      /    |                                      |  
     /     |                                      |  
    /      |                                      |  
   /       |                                      |  
  /        |      C  C                            |  
 *         |     C   C C   C  C C                 |  
 |         |          C     C   C                 |  
 |         .-------C-----C------C-----------------.  
 |        /         C   C      C  C              /   
 |       /         C C  C   C                   /    
 |      /                                      /     
 |     /                                      /      
 |    /                                      /       
 |   /                                      /        
 |  /                                      /         
 | /                                      /          
 |/                                      /           
 *--------------------------------------*            

Positions:
   0 C      5.041381   12.134258    4.838565
   1 C     11.052407    5.231061    4.462846
   2 C     10.005737    4.489879    4.508034
   3 C     12.041217    6.180850    4.463145
   4 C      3.868716   11.542594    4.966501
   5 C     11.075207    7.158035    4.579437
   6 C      4.040120   10.184405    5.011006
   7 C      4.376271    8.969702    5.047763
   8 C      6.416642    5.116293    4.848747
   9 C     10.411743    8.224185    4.590560
  10 C      8.209131    9.116301    4.894501
  11 C      9.176732   10.156395    4.837818
  12 C      7.862051    5.373453    4.735827
  13 C      5.219559   11.089190    5.180892
  14 C      8.973515    7.857468    4.765100
  15 C      5.689543    6.346647    4.996583
  16 C      8.537420    4.075329    4.618014
  17 C      7.418139    3.133528    4.660842
  18 C      5.837175    9.883487    5.147357
  19 C      6.268980    3.692731    4.791019
  20 C      6.791063    8.829986    5.011235
  21 C     10.354348    9.664102    4.630652
  22 C      6.678523    7.403346    4.941158
  23 C      8.068162    6.783381    4.793334

Unit cell:
           periodic     x           y           z      points  spacing
  1. axis:    yes   16.000000    0.000000    0.000000    80     0.2000
  2. axis:    yes    0.000000   16.000000    0.000000    80     0.2000
  3. axis:    yes    0.000000    0.000000   10.000000    48     0.2083

Effective grid spacing dv^(1/3) = 0.2027

                     log10-error:    total        iterations:
           time      wfs    density  energy       fermi  poisson
iter:   1  10:02:36          +inf  -173.347740    3      6      
iter:   2  10:02:37         -0.88  -172.093919    4      3      
iter:   3  10:02:37         -0.93  -170.393716    4      3      
iter:   4  10:02:38         -1.02  -169.341914    34     3      
iter:   5  10:02:38         -1.15  -168.995559    3      2      
iter:   6  10:02:39         -1.19  -168.666913    35     3      
iter:   7  10:02:39         -1.40  -168.645717    4      3      
iter:   8  10:02:40         -1.52  -168.564869    3      3      
iter:   9  10:02:41         -1.67  -168.541817    3      3      
iter:  10  10:02:41         -1.81  -168.509558    3      2      
iter:  11  10:02:42         -1.94  -168.495443    3      2      
iter:  12  10:02:42         -1.99  -168.481523    3      2      
iter:  13  10:02:43         -2.21  -168.462822    3      2      
iter:  14  10:02:43         -2.47  -168.460780    3      2      
iter:  15  10:02:44         -2.60  -168.458314    3      2      
iter:  16  10:02:44         -2.78  -168.456227    3      2      
iter:  17  10:02:45         -2.93  -168.456952    2      1      
iter:  18  10:02:45         -3.01  -168.454796    2      2      
iter:  19  10:02:46         -3.19  -168.455214    2      1      
iter:  20  10:02:46         -3.28  -168.454564    3      1      
iter:  21  10:02:47         -3.62  -168.453523    2      1      
iter:  22  10:02:47         -3.70  -168.451068    2      1      
iter:  23  10:02:48         -3.85  -168.453835    2      1      
iter:  24  10:02:48         -4.01  -168.453896    2      1      

Converged after 24 iterations.

Dipole moment: (0.223053, -0.149265, 0.037632) |e|*Ang

Energy contributions relative to reference atoms: (reference = -24663.074771)

Kinetic:       +165.990279
Potential:     -153.036031
External:        +0.000000
XC:            -184.241714
Entropy (-ST):   -0.402368
Local:           +3.034755
--------------------------
Free energy:   -168.655080
Extrapolated:  -168.453896

Fermi level: -4.57535

 Band  Eigenvalues  Occupancy
    0    -27.46909    2.00000
    1    -23.19350    2.00000
    2    -22.43809    2.00000
    3    -22.19526    2.00000
    4    -21.71803    2.00000
    5    -20.98120    2.00000
    6    -19.94567    2.00000
    7    -19.22814    2.00000
    8    -19.02192    2.00000
    9    -18.25437    2.00000
   10    -17.46952    2.00000
   11    -17.11480    2.00000
   12    -16.48056    2.00000
   13    -16.18820    2.00000
   14    -15.77563    2.00000
   15    -14.91155    2.00000
   16    -14.38381    2.00000
   17    -13.93831    2.00000
   18    -13.22561    2.00000
   19    -12.93983    2.00000
   20    -12.44165    2.00000
   21    -12.17270    2.00000
   22    -11.74198    2.00000
   23    -11.44240    2.00000
   24    -11.27080    2.00000
   25    -10.92841    2.00000
   26    -10.77957    2.00000
   27    -10.54136    2.00000
   28    -10.09332    2.00000
   29     -9.88307    2.00000
   30     -9.53221    2.00000
   31     -9.42112    2.00000
   32     -9.28092    2.00000
   33     -8.64005    2.00000
   34     -8.27622    2.00000
   35     -7.74174    2.00000
   36     -7.37107    2.00000
   37     -7.19659    2.00000
   38     -6.89555    2.00000
   39     -6.48657    2.00000
   40     -6.38655    2.00000
   41     -6.34587    2.00000
   42     -6.07043    2.00000
   43     -5.74025    1.99998
   44     -5.61820    1.99994
   45     -5.05843    1.98417
   46     -4.88356    1.91229
   47     -4.60228    1.13381
   48     -4.51054    0.68682
   49     -4.38335    0.25571
   50     -4.14031    0.02547
   51     -3.87443    0.00181
   52     -3.08259    0.00000
   53     -2.78341    0.00000
   54     -1.64369    0.00000
   55     -1.22090    0.00000
   56     -1.04503    0.00000
   57     -0.23527    0.00000
   58      0.20256    0.00000
   59      0.50935    0.00000
   60      0.53302    0.00000
   61      1.45872    0.00000
   62      1.87247    0.00000
   63      2.22883    0.00000
   64      2.57822    0.00000
   65      2.61809    0.00000
   66      3.03718    0.00000
   67      3.16812    0.00000
   68      3.51009    0.00000
   69      3.94048    0.00000
   70      4.85946    0.00000
   71      4.96774    0.00000
   72      5.43480    0.00000
   73      5.63538    0.00000
   74      6.14765    0.00000
   75      6.43858    0.00000
   76      6.61314    0.00000
   77      6.72526    0.00000
   78      7.26204    0.00000
   79      7.60124    0.00000
   80      8.06163    0.00000
   81      8.15142    0.00000
   82      8.35569    0.00000
   83      8.53487    0.00000
   84      8.54168    0.00000
   85      8.75753    0.00000
   86      8.87732    0.00000
   87      8.96394    0.00000
   88      9.06297    0.00000
   89      9.20475    0.00000
   90      9.37554    0.00000
   91      9.68510    0.00000
   92      9.80725    0.00000
   93      9.87101    0.00000
   94      9.91694    0.00000
   95     10.23711    0.00000
   96     10.29108    0.00000
   97     10.39215    0.00000


Forces in eV/Ang:
  0 C     0.40456   28.06865   -7.70456
  1 C    -1.79175   -1.82032    0.06588
  2 C    -3.03306   -2.56752    0.15296
  3 C    -1.43083    1.81235    0.30513
  4 C    -8.04140   -0.95002   -0.22924
  5 C     7.85738   -5.13737   -0.73724
  6 C    -7.61420   -0.21287   -0.67032
  7 C     1.89720   -3.61680    0.52678
  8 C    -1.74462    0.37912    0.14635
  9 C    -4.46724    4.74066    0.42873
 10 C     0.62681   -0.55212    0.05786
 11 C    -0.63218    0.36715    0.01251
 12 C    -0.40463    0.40023   -0.00153
 13 C    13.09746  -19.49682    7.78543
 14 C    -1.62322   -0.18213    0.05488
 15 C     1.28353    1.48654   -0.16529
 16 C     3.86298    2.26707   -0.29111
 17 C     2.27470   -0.26632   -0.16437
 18 C    -1.28251   -5.84253    0.25058
 19 C    -0.35081    0.79172    0.09935
 20 C     0.99494    1.39417   -0.02072
 21 C     1.09882   -0.14855   -0.13018
 22 C    -1.52639   -0.74550    0.27957
 23 C     0.63378   -0.20376   -0.01363

System changes: positions 

Initializing position-dependent things.

Density initialized from wave functions
           .--------------------------------------.  
          /|                                      |  
         / |                                      |  
        /  |                                      |  
       /   |                                      |  
      /    |                                      |  
     /     |                                      |  
    /      |                                      |  
   /       |                                      |  
  /        |      C  C                            |  
 *         |     C   C C   C  C C                 |  
 |         |          C     C   C                 |  
 |         .-------C-----C------C-----------------.  
 |        /         C   C      C  C              /   
 |       /         C C  C   C                   /    
 |      /                                      /     
 |     /                                      /      
 |    /                                      /       
 |   /                                      /        
 |  /                                      /         
 | /                                      /          
 |/                                      /           
 *--------------------------------------*            

Positions:
   0 C      5.041937   12.172828    4.827978
   1 C     11.049945    5.228559    4.462936
   2 C     10.001569    4.486351    4.508245
   3 C     12.039251    6.183340    4.463564
   4 C      3.857667   11.541288    4.966186
   5 C     11.086004    7.150976    4.578424
   6 C      4.029658   10.184112    5.010085
   7 C      4.378878    8.964732    5.048487
   8 C      6.414245    5.116814    4.848948
   9 C     10.405604    8.230700    4.591149
  10 C      8.209992    9.115542    4.894581
  11 C      9.175864   10.156900    4.837835
  12 C      7.861495    5.374003    4.735825
  13 C      5.237557   11.062399    5.191590
  14 C      8.971284    7.857217    4.765175
  15 C      5.691307    6.348689    4.996356
  16 C      8.542728    4.078444    4.617614
  17 C      7.421265    3.133162    4.660617
  18 C      5.835413    9.875459    5.147701
  19 C      6.268498    3.693819    4.791156
  20 C      6.792430    8.831902    5.011206
  21 C     10.355858    9.663898    4.630474
  22 C      6.676426    7.402321    4.941542
  23 C      8.069033    6.783101    4.793315

Unit cell:
           periodic     x           y           z      points  spacing
  1. axis:    yes   16.000000    0.000000    0.000000    80     0.2000
  2. axis:    yes    0.000000   16.000000    0.000000    80     0.2000
  3. axis:    yes    0.000000    0.000000   10.000000    48     0.2083

Effective grid spacing dv^(1/3) = 0.2027

                     log10-error:    total        iterations:
           time      wfs    density  energy       fermi  poisson
iter:   1  10:02:50          +inf  -170.673056    4      5      
iter:   2  10:02:51         -1.90  -170.566093    3      2      
iter:   3  10:02:51         -2.18  -170.542562    3      2      
iter:   4  10:02:52         -2.31  -170.539387    2      2      
iter:   5  10:02:52         -2.36  -170.529532    3      2      
iter:   6  10:02:53         -2.58  -170.528240    3      2      
iter:   7  10:02:53         -2.82  -170.526997    3      1      
iter:   8  10:02:54         -2.99  -170.522674    2      2      
iter:   9  10:02:54         -3.14  -170.523040    2      1      
iter:  10  10:02:55         -3.30  -170.523468    2      1      
iter:  11  10:02:55         -3.49  -170.522514    2      1      
iter:  12  10:02:56         -3.55  -170.521928    2      1      
iter:  13  10:02:56         -3.73  -170.522646    2      1      
iter:  14  10:02:57         -3.83  -170.522162    2      1      
iter:  15  10:02:57         -3.95  -170.521560    2      1      
iter:  16  10:02:58         -4.15  -170.522311    2      1      

Converged after 16 iterations.

Dipole moment: (0.234921, -0.179112, 0.034699) |e|*Ang

Energy contributions relative to reference atoms: (reference = -24663.074771)

Kinetic:       +152.845883
Potential:     -143.949248
External:        +0.000000
XC:            -182.180490
Entropy (-ST):   -0.384012
Local:           +2.953550
--------------------------
Free energy:   -170.714317
Extrapolated:  -170.522311

Fermi level: -4.58972

 Band  Eigenvalues  Occupancy
    0    -26.87732    2.00000
    1    -23.17566    2.00000
    2    -22.42341    2.00000
    3    -22.04123    2.00000
    4    -21.68889    2.00000
    5    -20.98206    2.00000
    6    -19.90231    2.00000
    7    -19.17779    2.00000
    8    -19.04809    2.00000
    9    -18.23568    2.00000
   10    -17.46362    2.00000
   11    -17.11413    2.00000
   12    -16.43061    2.00000
   13    -16.07631    2.00000
   14    -15.79562    2.00000
   15    -14.87829    2.00000
   16    -14.37739    2.00000
   17    -13.95804    2.00000
   18    -13.22960    2.00000
   19    -12.94399    2.00000
   20    -12.09678    2.00000
   21    -12.05986    2.00000
   22    -11.66226    2.00000
   23    -11.41891    2.00000
   24    -11.28586    2.00000
   25    -10.92024    2.00000
   26    -10.75521    2.00000
   27    -10.51495    2.00000
   28    -10.07248    2.00000
   29     -9.86860    2.00000
   30     -9.53989    2.00000
   31     -9.41323    2.00000
   32     -9.29990    2.00000
   33     -8.67800    2.00000
   34     -8.26064    2.00000
   35     -7.71401    2.00000
   36     -7.31098    2.00000
   37     -7.15195    2.00000
   38     -6.81093    2.00000
   39     -6.50416    2.00000
   40     -6.39123    2.00000
   41     -6.34319    2.00000
   42     -6.07890    2.00000
   43     -5.76110    1.99998
   44     -5.63243    1.99994
   45     -5.08657    1.98619
   46     -4.92090    1.92966
   47     -4.62360    1.16780
   48     -4.52280    0.67738
   49     -4.37922    0.21723
   50     -4.12991    0.01994
   51     -3.89219    0.00187
   52     -3.09536    0.00000
   53     -2.78790    0.00000
   54     -1.63352    0.00000
   55     -1.26034    0.00000
   56     -1.12429    0.00000
   57     -0.31112    0.00000
   58      0.17050    0.00000
   59      0.47665    0.00000
   60      0.50564    0.00000
   61      1.44397    0.00000
   62      1.86309    0.00000
   63      2.31669    0.00000
   64      2.58738    0.00000
   65      2.60897    0.00000
   66      2.95964    0.00000
   67      3.16909    0.00000
   68      3.42714    0.00000
   69      3.98693    0.00000
   70      4.84191    0.00000
   71      5.00560    0.00000
   72      5.42242    0.00000
   73      5.58793    0.00000
   74      6.05268    0.00000
   75      6.44444    0.00000
   76      6.62445    0.00000
   77      6.72862    0.00000
   78      7.24781    0.00000
   79      7.62537    0.00000
   80      7.97401    0.00000
   81      8.13615    0.00000
   82      8.35547    0.00000
   83      8.49268    0.00000
   84      8.53695    0.00000
   85      8.78651    0.00000
   86      8.91511    0.00000
   87      8.95694    0.00000
   88      9.01604    0.00000
   89      9.19472    0.00000
   90      9.36077    0.00000
   91      9.65587    0.00000
   92      9.83439    0.00000
   93      9.86262    0.00000
   94      9.88409    0.00000
   95     10.21655    0.00000
   96     10.26747    0.00000
   97     10.38926    0.00000


Forces in eV/Ang:
  0 C     0.53626   17.49140   -4.41642
  1 C    -1.87523   -1.87814    0.07026
  2 C    -2.64993   -2.33629    0.13737
  3 C    -1.22446    1.43809    0.26733
  4 C    -5.73080   -0.43980   -0.20600
  5 C     6.83427   -3.59648   -0.68762
  6 C    -7.22712   -0.26102   -0.70011
  7 C     1.76069   -3.12625    0.50402
  8 C    -1.69369    0.32230    0.13575
  9 C    -3.68199    3.32180    0.39711
 10 C     0.47496   -0.41871    0.06503
 11 C    -0.50334    0.26465   -0.01483
 12 C    -0.36065    0.40817   -0.00879
 13 C     9.77656   -8.81050    4.55576
 14 C    -1.39240   -0.13278    0.03853
 15 C     1.19290    1.44986   -0.15838
 16 C     3.56404    2.15224   -0.28415
 17 C     2.10001   -0.08835   -0.13613
 18 C    -0.84621   -6.67749    0.25684
 19 C    -0.14852    0.68125    0.07527
 20 C     1.15721    1.10266   -0.03339
 21 C     0.93205   -0.03960   -0.09058
 22 C    -1.38733   -0.54568    0.27212
 23 C     0.55359   -0.25164   -0.00537

System changes: positions 

Initializing position-dependent things.

Density initialized from wave functions
           .--------------------------------------.  
          /|                                      |  
         / |                                      |  
        /  |                                      |  
       /   |                                      |  
      /    |                                      |  
     /     |                                      |  
    /      |                                      |  
   /       |                                      |  
  /        |      C  C                            |  
 *         |     C   C C   C  C C                 |  
 |         |          C     C  C                  |  
 |         .-------C-----C-------C----------------.  
 |        /         C   C      C  C              /   
 |       /         C C  C   C                   /    
 |      /                                      /     
 |     /                                      /      
 |    /                                      /       
 |   /                                      /        
 |  /                                      /         
 | /                                      /          
 |/                                      /           
 *--------------------------------------*            

Positions:
   0 C      5.045512   12.204629    4.823469
   1 C     11.039593    5.218339    4.463331
   2 C      9.989799    4.475366    4.508879
   3 C     12.033979    6.188780    4.464757
   4 C      3.840662   11.541882    4.965233
   5 C     11.116162    7.140822    4.575085
   6 C      3.993804   10.182463    5.006228
   7 C      4.387372    8.951065    5.051011
   8 C      6.405616    5.118187    4.849603
   9 C     10.390691    8.240103    4.593060
  10 C      8.211628    9.114098    4.894964
  11 C      9.173947   10.157709    4.837601
  12 C      7.859847    5.376198    4.735738
  13 C      5.270107   11.076936    5.197165
  14 C      8.965268    7.856800    4.765285
  15 C      5.697072    6.356116    4.995561
  16 C      8.559793    4.089124    4.616157
  17 C      7.431328    3.133711    4.660061
  18 C      5.833444    9.835531    5.149090
  19 C      6.268870    3.696776    4.791415
  20 C      6.799450    8.836046    5.010958
  21 C     10.359816    9.664311    4.630222
  22 C      6.669912    7.400587    4.942933
  23 C      8.071491    6.781503    4.793334

Unit cell:
           periodic     x           y           z      points  spacing
  1. axis:    yes   16.000000    0.000000    0.000000    80     0.2000
  2. axis:    yes    0.000000   16.000000    0.000000    80     0.2000
  3. axis:    yes    0.000000    0.000000   10.000000    48     0.2083

Effective grid spacing dv^(1/3) = 0.2027

                     log10-error:    total        iterations:
           time      wfs    density  energy       fermi  poisson
iter:   1  10:02:59          +inf  -172.762784    4      5      
iter:   2  10:03:00         -1.65  -172.474163    3      2      
iter:   3  10:03:00         -1.88  -172.376694    3      2      
iter:   4  10:03:01         -2.12  -172.366574    2      2      
iter:   5  10:03:02         -2.17  -172.346976    2      2      
iter:   6  10:03:02         -2.41  -172.345128    2      2      
iter:   7  10:03:03         -2.47  -172.344864    2      2      
iter:   8  10:03:03         -2.63  -172.342632    2      2      
iter:   9  10:03:04         -2.78  -172.341394    2      2      
iter:  10  10:03:04         -2.99  -172.341513    2      2      
iter:  11  10:03:05         -3.34  -172.341557    2      1      
iter:  12  10:03:05         -3.41  -172.340864    2      1      
iter:  13  10:03:06         -3.53  -172.340658    2      1      
iter:  14  10:03:06         -3.70  -172.340928    2      1      
iter:  15  10:03:07         -3.82  -172.340432    2      1      
iter:  16  10:03:07         -3.99  -172.340419    2      1      
iter:  17  10:03:08         -4.18  -172.340590    2      1      

Converged after 17 iterations.

Dipole moment: (0.228947, -0.169153, 0.032364) |e|*Ang

Energy contributions relative to reference atoms: (reference = -24663.074771)

Kinetic:       +139.910267
Potential:     -135.127107
External:        +0.000000
XC:            -179.905426
Entropy (-ST):   -0.356879
Local:           +2.960115
--------------------------
Free energy:   -172.519030
Extrapolated:  -172.340590

Fermi level: -4.59473

 Band  Eigenvalues  Occupancy
    0    -26.16831    2.00000
    1    -23.12500    2.00000
    2    -22.35318    2.00000
    3    -21.87657    2.00000
    4    -21.50740    2.00000
    5    -20.91480    2.00000
    6    -19.82206    2.00000
    7    -19.12324    2.00000
    8    -19.03428    2.00000
    9    -18.23714    2.00000
   10    -17.38618    2.00000
   11    -17.07619    2.00000
   12    -16.38779    2.00000
   13    -15.85197    2.00000
   14    -15.82301    2.00000
   15    -14.79311    2.00000
   16    -14.38005    2.00000
   17    -13.99543    2.00000
   18    -13.20724    2.00000
   19    -12.93542    2.00000
   20    -12.08338    2.00000
   21    -11.70444    2.00000
   22    -11.62916    2.00000
   23    -11.38512    2.00000
   24    -11.30181    2.00000
   25    -10.83201    2.00000
   26    -10.69174    2.00000
   27    -10.42348    2.00000
   28    -10.03693    2.00000
   29     -9.80613    2.00000
   30     -9.53444    2.00000
   31     -9.40208    2.00000
   32     -9.30038    2.00000
   33     -8.73596    2.00000
   34     -8.24705    2.00000
   35     -7.69276    2.00000
   36     -7.35018    2.00000
   37     -7.29651    2.00000
   38     -6.76434    2.00000
   39     -6.51849    2.00000
   40     -6.37502    2.00000
   41     -6.32444    2.00000
   42     -6.06459    2.00000
   43     -5.74948    1.99998
   44     -5.65958    1.99995
   45     -5.06431    1.98190
   46     -4.94426    1.94111
   47     -4.64810    1.26071
   48     -4.52218    0.65237
   49     -4.34433    0.15116
   50     -4.07315    0.01080
   51     -3.90469    0.00201
   52     -3.13117    0.00000
   53     -2.74893    0.00000
   54     -1.67137    0.00000
   55     -1.34432    0.00000
   56     -1.16421    0.00000
   57     -0.37897    0.00000
   58      0.10705    0.00000
   59      0.49703    0.00000
   60      0.51884    0.00000
   61      1.42369    0.00000
   62      1.86669    0.00000
   63      2.54886    0.00000
   64      2.58806    0.00000
   65      2.61925    0.00000
   66      2.91580    0.00000
   67      3.23007    0.00000
   68      3.36119    0.00000
   69      4.12208    0.00000
   70      4.60266    0.00000
   71      4.93385    0.00000
   72      5.32756    0.00000
   73      5.55448    0.00000
   74      5.87878    0.00000
   75      6.40418    0.00000
   76      6.59343    0.00000
   77      6.83256    0.00000
   78      7.26768    0.00000
   79      7.62600    0.00000
   80      7.81504    0.00000
   81      8.15530    0.00000
   82      8.40482    0.00000
   83      8.51054    0.00000
   84      8.53888    0.00000
   85      8.82296    0.00000
   86      8.86689    0.00000
   87      8.95441    0.00000
   88      9.05726    0.00000
   89      9.20618    0.00000
   90      9.36506    0.00000
   91      9.64287    0.00000
   92      9.71022    0.00000
   93      9.86383    0.00000
   94      9.89651    0.00000
   95     10.17032    0.00000
   96     10.24556    0.00000
   97     10.38976    0.00000


Forces in eV/Ang:
  0 C    -0.06842   13.79771   -3.44545
  1 C    -1.64167   -1.69991    0.07797
  2 C    -1.76848   -1.85247    0.08357
  3 C    -0.79595    0.17436    0.16007
  4 C    -3.76162   -0.77122   -0.06704
  5 C     4.54318   -0.72408   -0.55824
  6 C    -5.67033   -0.48469   -0.59412
  7 C     1.64986   -1.32501    0.47420
  8 C    -1.32591    0.19223    0.07951
  9 C    -2.29958    1.06570    0.34725
 10 C     0.33936   -0.12879    0.05813
 11 C    -0.24917    0.07237   -0.06818
 12 C    -0.38874    0.46069   -0.01997
 13 C     8.02683   -7.91152    3.36837
 14 C    -0.84632    0.02099    0.00245
 15 C     0.89261    1.34703   -0.10635
 16 C     2.57403    1.75983   -0.23045
 17 C     1.69196    0.34814   -0.07741
 18 C    -2.60673   -4.37455    0.30217
 19 C     0.36331    0.38606    0.01081
 20 C     1.50784    0.29084   -0.09106
 21 C     0.54533    0.10205   -0.00054
 22 C    -0.89929   -0.30335    0.22797
 23 C     0.22985   -0.38254    0.03677

System changes: positions 

Initializing position-dependent things.

Density initialized from wave functions
           .--------------------------------------.  
          /|                                      |  
         / |                                      |  
        /  |                                      |  
       /   |                                      |  
      /    |                                      |  
     /     |                                      |  
    /      |                                      |  
   /       |                                      |  
  /        |      C  C                            |  
 *         |     C   C C   C  C C                 |  
 |         |          C     C  C                  |  
 |         .-------C-----C-------C----------------.  
 |        /         C   C      C  C              /   
 |       /         C C  C   C                   /    
 |      /                                      /     
 |     /                                      /      
 |    /                                      /       
 |   /                                      /        
 |  /                                      /         
 | /                                      /          
 |/                                      /           
 *--------------------------------------*            

Positions:
   0 C      5.043704   12.236975    4.819495
   1 C     11.026873    5.205124    4.464002
   2 C      9.981128    4.463746    4.509263
   3 C     12.030392    6.183564    4.465429
   4 C      3.831645   11.537742    4.965318
   5 C     11.138109    7.154281    4.571405
   6 C      3.956543   10.177564    5.001700
   7 C      4.399237    8.949707    5.054529
   8 C      6.396675    5.118920    4.849976
   9 C     10.381971    8.232201    4.595449
  10 C      8.212929    9.114880    4.895445
  11 C      9.173626   10.157001    4.836712
  12 C      7.856938    5.380077    4.735497
  13 C      5.307528   11.082350    5.200144
  14 C      8.961832    7.857792    4.765082
  15 C      5.702569    6.366217    4.994938
  16 C      8.574989    4.101031    4.614557
  17 C      7.442279    3.139045    4.659820
  18 C      5.809423    9.803652    5.151678
  19 C      6.274730    3.698154    4.791134
  20 C      6.813586    8.833802    5.009962
  21 C     10.361800    9.666267    4.630767
  22 C      6.665300    7.400228    4.944543
  23 C      8.071718    6.777732    4.793820

Unit cell:
           periodic     x           y           z      points  spacing
  1. axis:    yes   16.000000    0.000000    0.000000    80     0.2000
  2. axis:    yes    0.000000   16.000000    0.000000    80     0.2000
  3. axis:    yes    0.000000    0.000000   10.000000    48     0.2083

Effective grid spacing dv^(1/3) = 0.2027

                     log10-error:    total        iterations:
           time      wfs    density  energy       fermi  poisson
iter:   1  10:03:09          +inf  -174.050380    4      5      
iter:   2  10:03:10         -1.68  -173.815306    3      2      
iter:   3  10:03:10         -1.97  -173.755152    3      2      
iter:   4  10:03:11         -2.19  -173.740531    3      2      
iter:   5  10:03:12         -2.26  -173.727949    2      2      
iter:   6  10:03:12         -2.45  -173.723749    3      2      
iter:   7  10:03:13         -2.55  -173.723004    2      2      
iter:   8  10:03:13         -2.79  -173.721501    2      2      
iter:   9  10:03:14         -2.92  -173.720881    2      2      
iter:  10  10:03:14         -3.12  -173.720818    2      2      
iter:  11  10:03:15         -3.35  -173.722054    2      1      
iter:  12  10:03:15         -3.45  -173.722002    2      1      
iter:  13  10:03:16         -3.60  -173.721014    2      1      
iter:  14  10:03:16         -3.69  -173.720702    2      1      
iter:  15  10:03:17         -3.92  -173.720587    2      1      
iter:  16  10:03:17         -4.11  -173.720529    2      1      

Converged after 16 iterations.

Dipole moment: (0.202409, -0.180648, 0.029117) |e|*Ang

Energy contributions relative to reference atoms: (reference = -24663.074771)

Kinetic:       +132.063303
Potential:     -130.018874
External:        +0.000000
XC:            -178.534463
Entropy (-ST):   -0.345619
Local:           +2.942314
--------------------------
Free energy:   -173.893339
Extrapolated:  -173.720529

Fermi level: -4.59357

 Band  Eigenvalues  Occupancy
    0    -25.53423    2.00000
    1    -23.11594    2.00000
    2    -22.33428    2.00000
    3    -21.77172    2.00000
    4    -21.31093    2.00000
    5    -20.83724    2.00000
    6    -19.81979    2.00000
    7    -19.15766    2.00000
    8    -19.00340    2.00000
    9    -18.21653    2.00000
   10    -17.36451    2.00000
   11    -17.05114    2.00000
   12    -16.37451    2.00000
   13    -15.84994    2.00000
   14    -15.68925    2.00000
   15    -14.78157    2.00000
   16    -14.35187    2.00000
   17    -14.01146    2.00000
   18    -13.17839    2.00000
   19    -12.94761    2.00000
   20    -12.10438    2.00000
   21    -11.64293    2.00000
   22    -11.41210    2.00000
   23    -11.34555    2.00000
   24    -11.30582    2.00000
   25    -10.77736    2.00000
   26    -10.65708    2.00000
   27    -10.39261    2.00000
   28    -10.02997    2.00000
   29     -9.79139    2.00000
   30     -9.55865    2.00000
   31     -9.36854    2.00000
   32     -9.24386    2.00000
   33     -8.71046    2.00000
   34     -8.19926    2.00000
   35     -7.69800    2.00000
   36     -7.61061    2.00000
   37     -7.30970    2.00000
   38     -6.74879    2.00000
   39     -6.54168    2.00000
   40     -6.37463    2.00000
   41     -6.32249    2.00000
   42     -6.06044    2.00000
   43     -5.75162    1.99998
   44     -5.68086    1.99996
   45     -5.07777    1.98434
   46     -4.95871    1.94940
   47     -4.65316    1.28947
   48     -4.51498    0.62611
   49     -4.33367    0.13841
   50     -4.06739    0.01032
   51     -3.90284    0.00200
   52     -3.12676    0.00000
   53     -2.72356    0.00000
   54     -1.68716    0.00000
   55     -1.45870    0.00000
   56     -1.12759    0.00000
   57     -0.38617    0.00000
   58      0.06072    0.00000
   59      0.47468    0.00000
   60      0.51755    0.00000
   61      1.40342    0.00000
   62      1.87405    0.00000
   63      2.47134    0.00000
   64      2.55189    0.00000
   65      2.89921    0.00000
   66      2.96100    0.00000
   67      3.31692    0.00000
   68      3.36534    0.00000
   69      4.18099    0.00000
   70      4.47695    0.00000
   71      4.91974    0.00000
   72      5.35091    0.00000
   73      5.51242    0.00000
   74      5.95219    0.00000
   75      6.39948    0.00000
   76      6.55080    0.00000
   77      6.82617    0.00000
   78      7.27163    0.00000
   79      7.64599    0.00000
   80      7.65846    0.00000
   81      8.14310    0.00000
   82      8.32369    0.00000
   83      8.51942    0.00000
   84      8.59292    0.00000
   85      8.80580    0.00000
   86      8.84991    0.00000
   87      8.97351    0.00000
   88      9.11859    0.00000
   89      9.20736    0.00000
   90      9.40700    0.00000
   91      9.58825    0.00000
   92      9.65963    0.00000
   93      9.89280    0.00000
   94      9.89613    0.00000
   95     10.15222    0.00000
   96     10.21825    0.00000
   97     10.38890    0.00000


Forces in eV/Ang:
  0 C    -0.26497    9.78457   -2.25983
  1 C    -0.90091   -1.16486    0.06461
  2 C    -1.30354   -1.67595    0.05065
  3 C    -1.24227   -0.20120    0.14325
  4 C    -2.37767   -0.99289    0.01000
  5 C     4.29057   -0.92803   -0.51564
  6 C    -4.68115   -0.04885   -0.51890
  7 C     1.59567   -0.54056    0.47884
  8 C    -1.05190    0.13913    0.05794
  9 C    -2.10987    1.49173    0.33814
 10 C     0.36736   -0.12200    0.01698
 11 C    -0.07277    0.08225   -0.07875
 12 C    -0.34922    0.38524   -0.02641
 13 C     6.08319   -5.33152    2.07582
 14 C    -0.67946   -0.16455   -0.00101
 15 C     0.50573    1.09164   -0.08193
 16 C     1.69773    1.38160   -0.17061
 17 C     1.60371    0.52057   -0.06589
 18 C    -2.58817   -3.95371    0.23883
 19 C     0.45252    0.33938   -0.00311
 20 C     0.88727    0.33566    0.01332
 21 C     0.39715   -0.05906    0.01994
 22 C    -0.37094   -0.10783    0.18319
 23 C     0.18208   -0.21407    0.04434

System changes: positions 

Initializing position-dependent things.

Density initialized from wave functions
           .--------------------------------------.  
          /|                                      |  
         / |                                      |  
        /  |                                      |  
       /   |                                      |  
      /    |                                      |  
     /     |                                      |  
    /      |                                      |  
   /       |                                      |  
  /        |      C  C                            |  
 *         |     C   C C   C  C C                 |  
 |         |          C     C  C                  |  
 |         .-------C-----C-------C----------------.  
 |        /         C   C      C  C              /   
 |       /         C C  C   C                   /    
 |      /                                      /     
 |     /                                      /      
 |    /                                      /       
 |   /                                      /        
 |  /                                      /         
 | /                                      /          
 |/                                      /           
 *--------------------------------------*            

Positions:
   0 C      5.039595   12.258979    4.818841
   1 C     11.021278    5.196600    4.464575
   2 C      9.975044    4.451836    4.509399
   3 C     12.020374    6.175562    4.466175
   4 C      3.829507   11.529491    4.966115
   5 C     11.164291    7.160242    4.567566
   6 C      3.924167   10.177441    4.997531
   7 C      4.412248    8.954328    5.058572
   8 C      6.389446    5.119390    4.850220
   9 C     10.371158    8.234097    4.598124
  10 C      8.215224    9.115217    4.895493
  11 C      9.174723   10.156772    4.835724
  12 C      7.854066    5.383450    4.735185
  13 C      5.337350   11.087871    5.198491
  14 C      8.958840    7.856503    4.764891
  15 C      5.704735    6.374684    4.994464
  16 C      8.583461    4.110553    4.613403
  17 C      7.454239    3.146084    4.659558
  18 C      5.783269    9.773459    5.153768
  19 C      6.281269    3.699699    4.790782
  20 C      6.821422    8.833306    5.010136
  21 C     10.363087    9.666175    4.631421
  22 C      6.665444    7.401317    4.945875
  23 C      8.071914    6.775720    4.794387

Unit cell:
           periodic     x           y           z      points  spacing
  1. axis:    yes   16.000000    0.000000    0.000000    80     0.2000
  2. axis:    yes    0.000000   16.000000    0.000000    80     0.2000
  3. axis:    yes    0.000000    0.000000   10.000000    48     0.2083

Effective grid spacing dv^(1/3) = 0.2027

                     log10-error:    total        iterations:
           time      wfs    density  energy       fermi  poisson
iter:   1  10:03:19          +inf  -174.798602    3      5      
iter:   2  10:03:19         -1.86  -174.703448    3      2      
iter:   3  10:03:20         -2.14  -174.682533    3      2      
iter:   4  10:03:20         -2.28  -174.672164    2      2      
iter:   5  10:03:21         -2.37  -174.662276    2      2      
iter:   6  10:03:22         -2.57  -174.659928    2      2      
iter:   7  10:03:22         -2.84  -174.660153    2      2      
iter:   8  10:03:23         -2.95  -174.659887    2      2      
iter:   9  10:03:23         -3.17  -174.659865    2      2      
iter:  10  10:03:24         -3.38  -174.659935    2      1      
iter:  11  10:03:24         -3.46  -174.660048    2      1      
iter:  12  10:03:25         -3.68  -174.659747    2      1      
iter:  13  10:03:25         -3.78  -174.659695    2      1      
iter:  14  10:03:26         -3.95  -174.659616    2      1      
iter:  15  10:03:26         -4.09  -174.659491    2      1      

Converged after 15 iterations.

Dipole moment: (0.194541, -0.175377, 0.025267) |e|*Ang

Energy contributions relative to reference atoms: (reference = -24663.074771)

Kinetic:       +127.943222
Potential:     -127.421701
External:        +0.000000
XC:            -177.966342
Entropy (-ST):   -0.330804
Local:           +2.950732
--------------------------
Free energy:   -174.824893
Extrapolated:  -174.659491

Fermi level: -4.58480

 Band  Eigenvalues  Occupancy
    0    -25.13942    2.00000
    1    -23.09771    2.00000
    2    -22.31477    2.00000
    3    -21.72571    2.00000
    4    -21.22798    2.00000
    5    -20.79281    2.00000
    6    -19.78226    2.00000
    7    -19.16381    2.00000
    8    -18.94039    2.00000
    9    -18.18935    2.00000
   10    -17.33591    2.00000
   11    -17.02262    2.00000
   12    -16.35736    2.00000
   13    -15.85334    2.00000
   14    -15.57550    2.00000
   15    -14.74408    2.00000
   16    -14.32911    2.00000
   17    -14.02644    2.00000
   18    -13.13501    2.00000
   19    -12.95167    2.00000
   20    -12.17203    2.00000
   21    -11.67863    2.00000
   22    -11.39832    2.00000
   23    -11.32733    2.00000
   24    -11.15008    2.00000
   25    -10.73434    2.00000
   26    -10.61014    2.00000
   27    -10.38351    2.00000
   28     -9.97829    2.00000
   29     -9.76763    2.00000
   30     -9.55731    2.00000
   31     -9.34873    2.00000
   32     -9.20207    2.00000
   33     -8.70701    2.00000
   34     -8.18601    2.00000
   35     -7.86085    2.00000
   36     -7.68507    2.00000
   37     -7.30283    2.00000
   38     -6.73806    2.00000
   39     -6.54279    2.00000
   40     -6.35490    2.00000
   41     -6.32039    2.00000
   42     -6.05224    2.00000
   43     -5.74507    1.99998
   44     -5.66437    1.99996
   45     -5.07220    1.98483
   46     -4.96598    1.95674
   47     -4.65345    1.33034
   48     -4.50067    0.60251
   49     -4.30537    0.11526
   50     -4.04059    0.00862
   51     -3.88184    0.00177
   52     -3.11496    0.00000
   53     -2.69236    0.00000
   54     -1.69379    0.00000
   55     -1.53978    0.00000
   56     -1.08510    0.00000
   57     -0.40409    0.00000
   58      0.05731    0.00000
   59      0.41972    0.00000
   60      0.48061    0.00000
   61      1.40167    0.00000
   62      1.89152    0.00000
   63      2.43449    0.00000
   64      2.54618    0.00000
   65      2.98750    0.00000
   66      3.15177    0.00000
   67      3.34833    0.00000
   68      3.44991    0.00000
   69      4.19451    0.00000
   70      4.53761    0.00000
   71      4.92651    0.00000
   72      5.46591    0.00000
   73      5.47770    0.00000
   74      6.03044    0.00000
   75      6.45692    0.00000
   76      6.55958    0.00000
   77      6.86340    0.00000
   78      7.24828    0.00000
   79      7.61787    0.00000
   80      7.72662    0.00000
   81      8.09974    0.00000
   82      8.30922    0.00000
   83      8.51371    0.00000
   84      8.65410    0.00000
   85      8.78834    0.00000
   86      8.87334    0.00000
   87      9.00551    0.00000
   88      9.15682    0.00000
   89      9.22286    0.00000
   90      9.47694    0.00000
   91      9.53015    0.00000
   92      9.67881    0.00000
   93      9.90601    0.00000
   94      9.92060    0.00000
   95     10.14589    0.00000
   96     10.22978    0.00000
   97     10.36012    0.00000


Forces in eV/Ang:
  0 C    -0.27405    7.53554   -1.58319
  1 C    -1.04741   -1.39260    0.07052
  2 C    -0.59760   -1.29819    0.02073
  3 C    -0.94522   -0.47383    0.09188
  4 C    -1.67223   -0.96003    0.04816
  5 C     3.21763    0.08847   -0.42508
  6 C    -4.07584   -0.14071   -0.46224
  7 C     1.35970   -0.00780    0.45292
  8 C    -0.89823    0.14994    0.04461
  9 C    -1.28465    0.72561    0.26840
 10 C     0.21282   -0.03622    0.00830
 11 C    -0.03316    0.06983   -0.07826
 12 C    -0.29943    0.38464   -0.02798
 13 C     4.92900   -4.14660    1.32958
 14 C    -0.43895   -0.13790   -0.00871
 15 C     0.32519    0.92926   -0.07276
 16 C     1.16726    1.14801   -0.13415
 17 C     1.37328    0.56175   -0.05426
 18 C    -2.37816   -3.36536    0.22444
 19 C     0.48221    0.27600   -0.01460
 20 C     0.57353    0.28593    0.07225
 21 C     0.30981   -0.01071    0.03725
 22 C    -0.14205   -0.02747    0.16009
 23 C     0.11193   -0.18952    0.04426

System changes: positions 

Initializing position-dependent things.

Density initialized from wave functions
           .--------------------------------------.  
          /|                                      |  
         / |                                      |  
        /  |                                      |  
       /   |                                      |  
      /    |                                      |  
     /     |                                      |  
    /      |                                      |  
   /       |                                      |  
  /        |      C  C                            |  
 *         |     C   C C   C  C C                 |  
 |         |          C     C  C                  |  
 |         .-------C-----C-------C----------------.  
 |        /         C   C      C  C              /   
 |       /         C C   C  C                   /    
 |      /                                      /     
 |     /                                      /      
 |    /                                      /       
 |   /                                      /        
 |  /                                      /         
 | /                                      /          
 |/                                      /           
 *--------------------------------------*            

Positions:
   0 C      5.035682   12.279098    4.819929
   1 C     11.011988    5.182948    4.465316
   2 C      9.974950    4.441582    4.509297
   3 C     12.011745    6.165582    4.466625
   4 C      3.828691   11.520222    4.967231
   5 C     11.186529    7.173480    4.563933
   6 C      3.890215   10.176300    4.993194
   7 C      4.424809    8.962441    5.063066
   8 C      6.382099    5.120445    4.850459
   9 C     10.365740    8.232031    4.600474
  10 C      8.216298    9.116031    4.895458
  11 C      9.175787   10.156837    4.834714
  12 C      7.851325    5.387344    4.734833
  13 C      5.366064   11.091635    5.194128
  14 C      8.957117    7.855091    4.764657
  15 C      5.705757    6.382844    4.993909
  16 C      8.589044    4.119715    4.612393
  17 C      7.466268    3.153752    4.659249
  18 C      5.757967    9.742557    5.155975
  19 C      6.288063    3.701400    4.790377
  20 C      6.825862    8.833968    5.011204
  21 C     10.364470    9.666385    4.632188
  22 C      6.667293    7.402830    4.947248
  23 C      8.071946    6.773903    4.794959

Unit cell:
           periodic     x           y           z      points  spacing
  1. axis:    yes   16.000000    0.000000    0.000000    80     0.2000
  2. axis:    yes    0.000000   16.000000    0.000000    80     0.2000
  3. axis:    yes    0.000000    0.000000   10.000000    48     0.2083

Effective grid spacing dv^(1/3) = 0.2027

                     log10-error:    total        iterations:
           time      wfs    density  energy       fermi  poisson
iter:   1  10:03:28          +inf  -175.520100    3      5      
iter:   2  10:03:28         -1.87  -175.439062    3      2      
iter:   3  10:03:29         -2.17  -175.419681    3      2      
iter:   4  10:03:29         -2.29  -175.405912    2      2      
iter:   5  10:03:30         -2.43  -175.398350    2      2      
iter:   6  10:03:31         -2.60  -175.396008    2      2      
iter:   7  10:03:31         -2.82  -175.395994    2      2      
iter:   8  10:03:32         -2.94  -175.396098    2      1      
iter:   9  10:03:32         -3.07  -175.396004    2      2      
iter:  10  10:03:33         -3.38  -175.395921    2      1      
iter:  11  10:03:33         -3.46  -175.396046    2      1      
iter:  12  10:03:34         -3.66  -175.395996    2      1      
iter:  13  10:03:34         -3.75  -175.396083    2      1      
iter:  14  10:03:35         -3.90  -175.395916    2      1      
iter:  15  10:03:35         -4.09  -175.395636    2      1      

Converged after 15 iterations.

Dipole moment: (0.162627, -0.166076, 0.022949) |e|*Ang

Energy contributions relative to reference atoms: (reference = -24663.074771)

Kinetic:       +124.939631
Potential:     -125.601619
External:        +0.000000
XC:            -177.536001
Entropy (-ST):   -0.318383
Local:           +2.961543
--------------------------
Free energy:   -175.554828
Extrapolated:  -175.395636

Fermi level: -4.57952

 Band  Eigenvalues  Occupancy
    0    -24.78983    2.00000
    1    -23.07849    2.00000
    2    -22.29735    2.00000
    3    -21.64358    2.00000
    4    -21.13362    2.00000
    5    -20.73810    2.00000
    6    -19.76337    2.00000
    7    -19.15701    2.00000
    8    -18.90294    2.00000
    9    -18.17490    2.00000
   10    -17.32659    2.00000
   11    -17.01483    2.00000
   12    -16.34587    2.00000
   13    -15.85996    2.00000
   14    -15.46810    2.00000
   15    -14.73561    2.00000
   16    -14.31067    2.00000
   17    -14.02032    2.00000
   18    -13.08480    2.00000
   19    -12.94932    2.00000
   20    -12.21391    2.00000
   21    -11.71549    2.00000
   22    -11.41587    2.00000
   23    -11.31423    2.00000
   24    -11.00460    2.00000
   25    -10.69748    2.00000
   26    -10.55877    2.00000
   27    -10.39787    2.00000
   28     -9.92087    2.00000
   29     -9.74725    2.00000
   30     -9.55936    2.00000
   31     -9.30571    2.00000
   32     -9.13799    2.00000
   33     -8.67154    2.00000
   34     -8.16800    2.00000
   35     -8.10291    2.00000
   36     -7.68156    2.00000
   37     -7.30270    2.00000
   38     -6.73743    2.00000
   39     -6.54801    2.00000
   40     -6.34579    2.00000
   41     -6.31817    2.00000
   42     -6.04518    2.00000
   43     -5.74091    1.99998
   44     -5.66641    1.99996
   45     -5.06281    1.98420
   46     -4.98293    1.96521
   47     -4.65615    1.36546
   48     -4.48828    0.57303
   49     -4.28847    0.10327
   50     -4.01738    0.00721
   51     -3.87057    0.00167
   52     -3.10546    0.00000
   53     -2.67678    0.00000
   54     -1.82161    0.00000
   55     -1.56111    0.00000
   56     -1.05829    0.00000
   57     -0.42098    0.00000
   58      0.06878    0.00000
   59      0.35831    0.00000
   60      0.41440    0.00000
   61      1.40349    0.00000
   62      1.90352    0.00000
   63      2.39994    0.00000
   64      2.54359    0.00000
   65      3.02038    0.00000
   66      3.36080    0.00000
   67      3.40343    0.00000
   68      3.57756    0.00000
   69      4.22388    0.00000
   70      4.59387    0.00000
   71      4.91975    0.00000
   72      5.46916    0.00000
   73      5.64169    0.00000
   74      6.09701    0.00000
   75      6.53138    0.00000
   76      6.56766    0.00000
   77      6.83381    0.00000
   78      7.20726    0.00000
   79      7.60202    0.00000
   80      7.82128    0.00000
   81      8.05850    0.00000
   82      8.32044    0.00000
   83      8.46904    0.00000
   84      8.70737    0.00000
   85      8.82317    0.00000
   86      8.89947    0.00000
   87      9.04409    0.00000
   88      9.18569    0.00000
   89      9.24922    0.00000
   90      9.44984    0.00000
   91      9.58382    0.00000
   92      9.69808    0.00000
   93      9.91384    0.00000
   94      9.95112    0.00000
   95     10.13464    0.00000
   96     10.27472    0.00000
   97     10.33460    0.00000


Forces in eV/Ang:
  0 C    -0.25699    5.61877   -1.03410
  1 C    -0.37192   -0.96492    0.03106
  2 C    -0.72444   -1.40549    0.02124
  3 C    -1.18614   -0.42740    0.10277
  4 C    -1.05545   -0.88312    0.08087
  5 C     2.92449    0.00798   -0.41973
  6 C    -3.52263   -0.13931   -0.38097
  7 C     0.94223    0.21236    0.39137
  8 C    -0.77344    0.16269    0.02779
  9 C    -0.94271    0.73870    0.22712
 10 C     0.12849    0.00050    0.00132
 11 C     0.03046    0.05323   -0.07899
 12 C    -0.26232    0.31497   -0.03133
 13 C     3.85361   -3.22371    0.73140
 14 C    -0.29952   -0.11733   -0.00852
 15 C     0.20831    0.80733   -0.06559
 16 C     0.83587    0.96393   -0.10638
 17 C     1.15947    0.56597   -0.02231
 18 C    -1.95108   -2.51897    0.19655
 19 C     0.50227    0.24781   -0.02733
 20 C     0.42939    0.09317    0.10073
 21 C     0.20652   -0.02394    0.04873
 22 C     0.00439    0.01693    0.14190
 23 C     0.08179   -0.09135    0.04214

System changes: positions 

Initializing position-dependent things.

Density initialized from wave functions
           .--------------------------------------.  
          /|                                      |  
         / |                                      |  
        /  |                                      |  
       /   |                                      |  
      /    |                                      |  
     /     |                                      |  
    /      |                                      |  
   /       |                                      |  
  /        |      C  C                            |  
 *         |     C   C C   C  C C                 |  
 |         |          C     C  C                  |  
 |         .-------C-----C-------C----------------.  
 |        /         C  C       C  C              /   
 |       /         C C   C  C                   /    
 |      /                                      /     
 |     /                                      /      
 |    /                                      /       
 |   /                                      /        
 |  /                                      /         
 | /                                      /          
 |/                                      /           
 *--------------------------------------*            

Positions:
   0 C      5.031277   12.297576    4.823433
   1 C     11.009319    5.170851    4.465674
   2 C      9.970628    4.425115    4.509292
   3 C     11.996450    6.154990    4.467564
   4 C      3.830978   11.509062    4.968988
   5 C     11.214977    7.186140    4.558921
   6 C      3.850537   10.174295    4.988543
   7 C      4.435243    8.973570    5.068111
   8 C      6.373502    5.122283    4.850594
   9 C     10.361550    8.232156    4.603059
  10 C      8.216658    9.117328    4.895369
  11 C      9.177614   10.156877    4.833436
  12 C      7.848141    5.391496    4.734335
  13 C      5.395812   11.093422    5.185739
  14 C      8.956073    7.853698    4.764397
  15 C      5.706267    6.392377    4.993201
  16 C      8.593834    4.130086    4.611334
  17 C      7.479561    3.163263    4.659262
  18 C      5.731502    9.713680    5.158548
  19 C      6.296743    3.703626    4.789726
  20 C      6.830289    8.832490    5.012926
  21 C     10.365363    9.666489    4.633253
  22 C      6.670655    7.404813    4.948907
  23 C      8.071902    6.772901    4.795640

Unit cell:
           periodic     x           y           z      points  spacing
  1. axis:    yes   16.000000    0.000000    0.000000    80     0.2000
  2. axis:    yes    0.000000   16.000000    0.000000    80     0.2000
  3. axis:    yes    0.000000    0.000000   10.000000    48     0.2083

Effective grid spacing dv^(1/3) = 0.2027

                     log10-error:    total        iterations:
           time      wfs    density  energy       fermi  poisson
iter:   1  10:03:37          +inf  -176.130091    3      5      
iter:   2  10:03:37         -1.91  -176.068319    3      2      
iter:   3  10:03:38         -2.17  -176.050223    2      2      
iter:   4  10:03:38         -2.28  -176.034552    2      2      
iter:   5  10:03:39         -2.45  -176.029013    2      2      
iter:   6  10:03:39         -2.59  -176.026218    2      2      
iter:   7  10:03:40         -2.87  -176.025735    2      1      
iter:   8  10:03:40         -2.95  -176.026598    2      2      
iter:   9  10:03:41         -3.13  -176.026655    2      2      
iter:  10  10:03:42         -3.37  -176.026646    2      1      
iter:  11  10:03:42         -3.45  -176.027159    2      1      
iter:  12  10:03:43         -3.65  -176.026568    2      1      
iter:  13  10:03:43         -3.70  -176.026558    2      1      
iter:  14  10:03:43         -3.84  -176.026746    2      1      
iter:  15  10:03:44         -4.05  -176.026014    2      1      

Converged after 15 iterations.

Dipole moment: (0.148150, -0.151827, 0.019293) |e|*Ang

Energy contributions relative to reference atoms: (reference = -24663.074771)

Kinetic:       +122.632426
Potential:     -124.214076
External:        +0.000000
XC:            -177.266293
Entropy (-ST):   -0.303092
Local:           +2.973475
--------------------------
Free energy:   -176.177560
Extrapolated:  -176.026014

Fermi level: -4.55925

 Band  Eigenvalues  Occupancy
    0    -24.46068    2.00000
    1    -23.05256    2.00000
    2    -22.27681    2.00000
    3    -21.58721    2.00000
    4    -21.06433    2.00000
    5    -20.68725    2.00000
    6    -19.73428    2.00000
    7    -19.14417    2.00000
    8    -18.84682    2.00000
    9    -18.15576    2.00000
   10    -17.30695    2.00000
   11    -16.99504    2.00000
   12    -16.33015    2.00000
   13    -15.85557    2.00000
   14    -15.36166    2.00000
   15    -14.71041    2.00000
   16    -14.29426    2.00000
   17    -14.01824    2.00000
   18    -13.02974    2.00000
   19    -12.94584    2.00000
   20    -12.29672    2.00000
   21    -11.78093    2.00000
   22    -11.44322    2.00000
   23    -11.29571    2.00000
   24    -10.88471    2.00000
   25    -10.65823    2.00000
   26    -10.49413    2.00000
   27    -10.40591    2.00000
   28     -9.87493    2.00000
   29     -9.72397    2.00000
   30     -9.55395    2.00000
   31     -9.27583    2.00000
   32     -9.08943    2.00000
   33     -8.65349    2.00000
   34     -8.31354    2.00000
   35     -8.14360    2.00000
   36     -7.66759    2.00000
   37     -7.29284    2.00000
   38     -6.73394    2.00000
   39     -6.54842    2.00000
   40     -6.32861    2.00000
   41     -6.30720    2.00000
   42     -6.02848    2.00000
   43     -5.74071    1.99999
   44     -5.63648    1.99996
   45     -5.05708    1.98632
   46     -4.99179    1.97389
   47     -4.64483    1.40354
   48     -4.45909    0.53724
   49     -4.25476    0.09088
   50     -3.99084    0.00678
   51     -3.83381    0.00141
   52     -3.08062    0.00000
   53     -2.66239    0.00000
   54     -2.06427    0.00000
   55     -1.52241    0.00000
   56     -1.02919    0.00000
   57     -0.44597    0.00000
   58      0.07854    0.00000
   59      0.21726    0.00000
   60      0.30436    0.00000
   61      1.41183    0.00000
   62      1.91975    0.00000
   63      2.38288    0.00000
   64      2.54768    0.00000
   65      3.05754    0.00000
   66      3.41154    0.00000
   67      3.64263    0.00000
   68      3.71684    0.00000
   69      4.28314    0.00000
   70      4.63036    0.00000
   71      4.93226    0.00000
   72      5.47607    0.00000
   73      5.84829    0.00000
   74      6.14545    0.00000
   75      6.59267    0.00000
   76      6.66155    0.00000
   77      6.82180    0.00000
   78      7.19763    0.00000
   79      7.60425    0.00000
   80      7.91955    0.00000
   81      8.05284    0.00000
   82      8.35782    0.00000
   83      8.43737    0.00000
   84      8.76819    0.00000
   85      8.87865    0.00000
   86      8.93097    0.00000
   87      9.08449    0.00000
   88      9.22142    0.00000
   89      9.31949    0.00000
   90      9.41548    0.00000
   91      9.68393    0.00000
   92      9.73246    0.00000
   93      9.92550    0.00000
   94      9.98696    0.00000
   95     10.12172    0.00000
   96     10.29239    0.00000
   97     10.34830    0.00000


Forces in eV/Ang:
  0 C    -0.22388    3.93344   -0.54939
  1 C    -0.66535   -1.30500    0.03311
  2 C     0.02047   -0.99884   -0.02760
  3 C    -0.96660   -0.44417    0.09483
  4 C    -0.52899   -0.75420    0.06609
  5 C     2.20829    0.45990   -0.34191
  6 C    -2.96072   -0.17050   -0.31500
  7 C     0.29864    0.22224    0.32287
  8 C    -0.61676    0.19817    0.01140
  9 C    -0.43261    0.44922    0.17898
 10 C     0.08759    0.03008   -0.00563
 11 C     0.00274    0.05216   -0.06709
 12 C    -0.23541    0.33440   -0.02511
 13 C     2.83823   -2.34444    0.27311
 14 C    -0.12023   -0.07620   -0.01237
 15 C     0.09033    0.67306   -0.07346
 16 C     0.47817    0.75582   -0.06638
 17 C     0.90650    0.48136   -0.00144
 18 C    -1.11759   -1.73382    0.14274
 19 C     0.44038    0.25415   -0.03655
 20 C     0.13987    0.05886    0.15149
 21 C     0.16288    0.00040    0.05182
 22 C     0.10289    0.00623    0.12445
 23 C     0.08147   -0.04523    0.02933

System changes: positions 

Initializing position-dependent things.

Density initialized from wave functions
           .--------------------------------------.  
          /|                                      |  
         / |                                      |  
        /  |                                      |  
       /   |                                      |  
      /    |                                      |  
     /     |                                      |  
    /      |                                      |  
   /       |                                      |  
  /        |      C  C                            |  
 *         |     C   C C   C  C C                 |  
 |         |          C     C  C                  |  
 |         .-------C-----C-------C----------------.  
 |        /         C  C       C  C              /   
 |       /         C C   C  C                   /    
 |      /                                      /     
 |     /                                      /      
 |    /                                      /       
 |   /                                      /        
 |  /                                      /         
 | /                                      /          
 |/                                      /           
 *--------------------------------------*            

Positions:
   0 C      5.027134   12.313638    4.828443
   1 C     11.001905    5.152571    4.466104
   2 C      9.973810    4.411084    4.508717
   3 C     11.981573    6.144706    4.468716
   4 C      3.835369   11.498074    4.970519
   5 C     11.241595    7.201407    4.554071
   6 C      3.810866   10.171847    4.984049
   7 C      4.438727    8.983117    5.072913
   8 C      6.365343    5.124967    4.850601
   9 C     10.360505    8.232434    4.605504
  10 C      8.217069    9.118692    4.895203
  11 C      9.178823   10.157153    4.832234
  12 C      7.844796    5.396437    4.733887
  13 C      5.422543   11.093437    5.175913
  14 C      8.956256    7.852570    4.764107
  15 C      5.706000    6.401734    4.992227
  16 C      8.596590    4.139808    4.610566
  17 C      7.491902    3.172137    4.659466
  18 C      5.713683    9.690053    5.160698
  19 C      6.304984    3.706658    4.788964
  20 C      6.831713    8.831302    5.015449
  21 C     10.366420    9.666713    4.634347
  22 C      6.674661    7.406291    4.950624
  23 C      8.072302    6.772409    4.796187

Unit cell:
           periodic     x           y           z      points  spacing
  1. axis:    yes   16.000000    0.000000    0.000000    80     0.2000
  2. axis:    yes    0.000000   16.000000    0.000000    80     0.2000
  3. axis:    yes    0.000000    0.000000   10.000000    48     0.2083

Effective grid spacing dv^(1/3) = 0.2027

                     log10-error:    total        iterations:
           time      wfs    density  energy       fermi  poisson
iter:   1  10:03:46          +inf  -176.545883    3      5      
iter:   2  10:03:46         -1.97  -176.503651    3      2      
iter:   3  10:03:47         -2.22  -176.491444    2      2      
iter:   4  10:03:47         -2.32  -176.479594    2      2      
iter:   5  10:03:48         -2.51  -176.475174    2      2      
iter:   6  10:03:48         -2.65  -176.472236    2      2      
iter:   7  10:03:49         -2.90  -176.471915    2      1      
iter:   8  10:03:49         -2.99  -176.473523    2      2      
iter:   9  10:03:50         -3.29  -176.473467    2      1      
iter:  10  10:03:50         -3.40  -176.473336    2      1      
iter:  11  10:03:51         -3.59  -176.473466    2      1      
iter:  12  10:03:51         -3.67  -176.473820    2      1      
iter:  13  10:03:52         -3.81  -176.473343    2      1      
iter:  14  10:03:52         -3.99  -176.473048    2      1      
iter:  15  10:03:53         -4.12  -176.472905    2      1      

Converged after 15 iterations.

Dipole moment: (0.109318, -0.124459, 0.017718) |e|*Ang

Energy contributions relative to reference atoms: (reference = -24663.074771)

Kinetic:       +120.794732
Potential:     -123.091482
External:        +0.000000
XC:            -177.010029
Entropy (-ST):   -0.287070
Local:           +2.977409
--------------------------
Free energy:   -176.616440
Extrapolated:  -176.472905

Fermi level: -4.54618

 Band  Eigenvalues  Occupancy
    0    -24.18679    2.00000
    1    -23.02091    2.00000
    2    -22.25173    2.00000
    3    -21.50038    2.00000
    4    -20.95744    2.00000
    5    -20.62114    2.00000
    6    -19.70479    2.00000
    7    -19.11866    2.00000
    8    -18.79838    2.00000
    9    -18.13626    2.00000
   10    -17.30911    2.00000
   11    -16.99845    2.00000
   12    -16.30950    2.00000
   13    -15.85324    2.00000
   14    -15.28010    2.00000
   15    -14.68721    2.00000
   16    -14.27450    2.00000
   17    -13.99787    2.00000
   18    -12.97746    2.00000
   19    -12.92840    2.00000
   20    -12.33788    2.00000
   21    -11.83801    2.00000
   22    -11.46320    2.00000
   23    -11.27425    2.00000
   24    -10.80534    2.00000
   25    -10.63778    2.00000
   26    -10.43994    2.00000
   27    -10.38451    2.00000
   28     -9.85102    2.00000
   29     -9.69445    2.00000
   30     -9.54171    2.00000
   31     -9.22117    2.00000
   32     -9.03311    2.00000
   33     -8.65022    2.00000
   34     -8.39934    2.00000
   35     -8.12188    2.00000
   36     -7.65321    2.00000
   37     -7.28054    2.00000
   38     -6.73030    2.00000
   39     -6.56081    2.00000
   40     -6.32020    2.00000
   41     -6.30055    2.00000
   42     -6.01602    2.00000
   43     -5.74106    1.99999
   44     -5.63634    1.99996
   45     -5.04472    1.98642
   46     -5.00798    1.98045
   47     -4.64325    1.45053
   48     -4.43538    0.49650
   49     -4.22775    0.07952
   50     -3.95353    0.00532
   51     -3.81330    0.00131
   52     -3.06813    0.00000
   53     -2.65320    0.00000
   54     -2.36175    0.00000
   55     -1.50243    0.00000
   56     -1.00093    0.00000
   57     -0.46425    0.00000
   58      0.03833    0.00000
   59      0.15974    0.00000
   60      0.28004    0.00000
   61      1.42687    0.00000
   62      1.93263    0.00000
   63      2.36057    0.00000
   64      2.55397    0.00000
   65      3.08523    0.00000
   66      3.45833    0.00000
   67      3.83626    0.00000
   68      3.92265    0.00000
   69      4.31274    0.00000
   70      4.61657    0.00000
   71      4.97400    0.00000
   72      5.49342    0.00000
   73      5.92476    0.00000
   74      6.20284    0.00000
   75      6.61853    0.00000
   76      6.70236    0.00000
   77      6.82560    0.00000
   78      7.23476    0.00000
   79      7.61776    0.00000
   80      7.96148    0.00000
   81      8.10632    0.00000
   82      8.39356    0.00000
   83      8.45310    0.00000
   84      8.82038    0.00000
   85      8.91400    0.00000
   86      8.96421    0.00000
   87      9.11302    0.00000
   88      9.25804    0.00000
   89      9.38896    0.00000
   90      9.41837    0.00000
   91      9.75216    0.00000
   92      9.79155    0.00000
   93      9.93812    0.00000
   94     10.02151    0.00000
   95     10.11794    0.00000
   96     10.29317    0.00000
   97     10.42196    0.00000


Forces in eV/Ang:
  0 C    -0.19252    2.50900   -0.19224
  1 C     0.03402   -0.85301    0.02378
  2 C    -0.34582   -1.19463   -0.01419
  3 C    -1.09027   -0.36442    0.05608
  4 C    -0.11954   -0.57504    0.03461
  5 C     1.83351    0.41674   -0.31335
  6 C    -2.41550   -0.24777   -0.21173
  7 C    -0.27746    0.17769    0.26837
  8 C    -0.47799    0.20849    0.00624
  9 C    -0.08814    0.39499    0.14266
 10 C     0.01131    0.03138    0.00086
 11 C     0.02606    0.02823   -0.06598
 12 C    -0.17647    0.25485   -0.02874
 13 C     1.94372   -1.64552   -0.06264
 14 C     0.01392   -0.02672   -0.01115
 15 C     0.02252    0.53541   -0.07344
 16 C     0.30806    0.58123   -0.03598
 17 C     0.68704    0.44853   -0.00089
 18 C    -0.53561   -0.94427    0.09912
 19 C     0.43221    0.26073   -0.03623
 20 C     0.09705   -0.07026    0.16391
 21 C     0.06082    0.03222    0.06099
 22 C     0.15376    0.02038    0.11039
 23 C     0.08475    0.05713    0.02273

System changes: positions 

Initializing position-dependent things.

Density initialized from wave functions
           .--------------------------------------.  
          /|                                      |  
         / |                                      |  
        /  |                                      |  
       /   |                                      |  
      /    |                                      |  
     /     |                                      |  
    /      |                                      |  
   /       |         C                            |  
  /        |      C  C                            |  
 *         |     C   C C   C  C C                 |  
 |         |          C     C  C                  |  
 |         .-------C-----C-------C----------------.  
 |        /         C  C       C  C              /   
 |       /         C C   C  C                   /    
 |      /                                      /     
 |     /                                      /      
 |    /                                      /       
 |   /                                      /        
 |  /                                      /         
 | /                                      /          
 |/                                      /           
 *--------------------------------------*            

Positions:
   0 C      5.023091   12.326866    4.834600
   1 C     11.001616    5.137099    4.466540
   2 C      9.971551    4.392196    4.508304
   3 C     11.963489    6.135085    4.469521
   4 C      3.841715   11.487975    4.971608
   5 C     11.268573    7.216306    4.548878
   6 C      3.771259   10.167767    4.980222
   7 C      4.435310    8.991270    5.077698
   8 C      6.357516    5.128245    4.850608
   9 C     10.362401    8.233409    4.607881
  10 C      8.216765    9.119983    4.895149
  11 C      9.180087   10.157277    4.830938
  12 C      7.841726    5.401064    4.733349
  13 C      5.446419   11.091809    5.164838
  14 C      8.957650    7.852022    4.763822
  15 C      5.705407    6.410837    4.991069
  16 C      8.599110    4.149145    4.610014
  17 C      7.503443    3.181289    4.659597
  18 C      5.701341    9.672637    5.162579
  19 C      6.313770    3.710452    4.788178
  20 C      6.833245    8.828901    5.018369
  21 C     10.366705    9.667443    4.635622
  22 C      6.678973    7.407701    4.952454
  23 C      8.073064    6.773078    4.796688

Unit cell:
           periodic     x           y           z      points  spacing
  1. axis:    yes   16.000000    0.000000    0.000000    80     0.2000
  2. axis:    yes    0.000000   16.000000    0.000000    80     0.2000
  3. axis:    yes    0.000000    0.000000   10.000000    48     0.2083

Effective grid spacing dv^(1/3) = 0.2027

                     log10-error:    total        iterations:
           time      wfs    density  energy       fermi  poisson
iter:   1  10:03:55          +inf  -176.843557    3      5      
iter:   2  10:03:55         -2.08  -176.819554    3      2      
iter:   3  10:03:56         -2.31  -176.810469    2      1      
iter:   4  10:03:56         -2.39  -176.805049    2      2      
iter:   5  10:03:57         -2.58  -176.801351    2      2      
iter:   6  10:03:57         -2.72  -176.802099    2      2      
iter:   7  10:03:58         -2.83  -176.801329    2      1      
iter:   8  10:03:58         -3.03  -176.799858    2      1      
iter:   9  10:03:59         -3.16  -176.801087    2      1      
iter:  10  10:03:59         -3.30  -176.801249    2      1      
iter:  11  10:04:00         -3.51  -176.800421    2      1      
iter:  12  10:04:00         -3.67  -176.800620    2      1      
iter:  13  10:04:01         -3.75  -176.801171    2      1      
iter:  14  10:04:01         -3.93  -176.800600    2      1      
iter:  15  10:04:02         -3.92  -176.800538    2      1      
iter:  16  10:04:02         -4.15  -176.800444    2      1      

Converged after 16 iterations.

Dipole moment: (0.093303, -0.098002, 0.015730) |e|*Ang

Energy contributions relative to reference atoms: (reference = -24663.074771)

Kinetic:       +118.792391
Potential:     -121.734137
External:        +0.000000
XC:            -176.700397
Entropy (-ST):   -0.274136
Local:           +2.978767
--------------------------
Free energy:   -176.937512
Extrapolated:  -176.800444

Fermi level: -4.51784

 Band  Eigenvalues  Occupancy
    0    -23.94514    2.00000
    1    -22.98940    2.00000
    2    -22.22802    2.00000
    3    -21.44077    2.00000
    4    -20.87135    2.00000
    5    -20.54819    2.00000
    6    -19.67700    2.00000
    7    -19.09577    2.00000
    8    -18.74878    2.00000
    9    -18.12513    2.00000
   10    -17.30034    2.00000
   11    -16.97859    2.00000
   12    -16.28644    2.00000
   13    -15.83959    2.00000
   14    -15.21841    2.00000
   15    -14.66020    2.00000
   16    -14.26865    2.00000
   17    -13.98494    2.00000
   18    -12.93957    2.00000
   19    -12.91092    2.00000
   20    -12.39305    2.00000
   21    -11.90231    2.00000
   22    -11.48252    2.00000
   23    -11.24862    2.00000
   24    -10.74355    2.00000
   25    -10.62887    2.00000
   26    -10.40827    2.00000
   27    -10.32428    2.00000
   28     -9.84720    2.00000
   29     -9.66824    2.00000
   30     -9.51986    2.00000
   31     -9.18507    2.00000
   32     -9.00551    2.00000
   33     -8.66909    2.00000
   34     -8.40892    2.00000
   35     -8.10458    2.00000
   36     -7.63645    2.00000
   37     -7.26155    2.00000
   38     -6.72486    2.00000
   39     -6.56866    2.00000
   40     -6.30453    2.00000
   41     -6.28958    2.00000
   42     -5.99530    2.00000
   43     -5.74345    1.99999
   44     -5.61094    1.99996
   45     -5.03994    1.98925
   46     -5.01190    1.98580
   47     -4.62246    1.48007
   48     -4.39874    0.46614
   49     -4.18963    0.07238
   50     -3.92342    0.00523
   51     -3.77423    0.00118
   52     -3.04978    0.00000
   53     -2.70808    0.00000
   54     -2.61895    0.00000
   55     -1.49202    0.00000
   56     -0.98495    0.00000
   57     -0.49098    0.00000
   58     -0.04851    0.00000
   59      0.14930    0.00000
   60      0.18338    0.00000
   61      1.44492    0.00000
   62      1.94551    0.00000
   63      2.35062    0.00000
   64      2.56100    0.00000
   65      3.11154    0.00000
   66      3.50430    0.00000
   67      3.95967    0.00000
   68      4.08727    0.00000
   69      4.38014    0.00000
   70      4.59710    0.00000
   71      5.05313    0.00000
   72      5.51813    0.00000
   73      5.90620    0.00000
   74      6.26510    0.00000
   75      6.65696    0.00000
   76      6.69930    0.00000
   77      6.87512    0.00000
   78      7.33472    0.00000
   79      7.64326    0.00000
   80      7.97781    0.00000
   81      8.19683    0.00000
   82      8.43399    0.00000
   83      8.49997    0.00000
   84      8.87088    0.00000
   85      8.93950    0.00000
   86      8.99270    0.00000
   87      9.13602    0.00000
   88      9.29511    0.00000
   89      9.39317    0.00000
   90      9.50187    0.00000
   91      9.78883    0.00000
   92      9.85618    0.00000
   93      9.95077    0.00000
   94     10.05307    0.00000
   95     10.11977    0.00000
   96     10.29280    0.00000
   97     10.44233    0.00000


Forces in eV/Ang:
  0 C    -0.13591    1.39242    0.09442
  1 C    -0.24456   -1.12514    0.01100
  2 C     0.21811   -0.84240   -0.03396
  3 C    -0.98978   -0.23512    0.06381
  4 C     0.20640   -0.50637    0.01703
  5 C     1.41192    0.50937   -0.23807
  6 C    -1.90404   -0.15972   -0.11809
  7 C    -0.63726    0.14068    0.20472
  8 C    -0.31856    0.21963    0.02252
  9 C     0.20726    0.30238    0.10974
 10 C     0.03009    0.01335    0.00036
 11 C    -0.02302    0.04223   -0.05279
 12 C    -0.13043    0.26310   -0.01977
 13 C     1.16382   -1.02079   -0.27803
 14 C     0.13480    0.01169   -0.00813
 15 C    -0.07401    0.40542   -0.05467
 16 C     0.07505    0.42576   -0.01570
 17 C     0.46346    0.32601   -0.00177
 18 C    -0.12694   -0.41921    0.03158
 19 C     0.34614    0.24423   -0.02182
 20 C    -0.00793   -0.09069    0.18133
 21 C     0.04339    0.06911    0.05897
 22 C     0.17199   -0.00579    0.09789
 23 C     0.10056    0.08595    0.01032

System changes: positions 

Initializing position-dependent things.

Density initialized from wave functions
           .--------------------------------------.  
          /|                                      |  
         / |                                      |  
        /  |                                      |  
       /   |                                      |  
      /    |                                      |  
     /     |                                      |  
[...]

Fermi level: -4.58020

 Band  Eigenvalues  Occupancy
    0    -23.03516    2.00000
    1    -22.77938    2.00000
    2    -22.18672    2.00000
    3    -21.18073    2.00000
    4    -20.39674    2.00000
    5    -20.01440    2.00000
    6    -19.42351    2.00000
    7    -19.35622    2.00000
    8    -18.85145    2.00000
    9    -18.36229    2.00000
   10    -17.50453    2.00000
   11    -17.01611    2.00000
   12    -16.24384    2.00000
   13    -15.88429    2.00000
   14    -14.83108    2.00000
   15    -14.45633    2.00000
   16    -14.06794    2.00000
   17    -13.95184    2.00000
   18    -12.99204    2.00000
   19    -12.95811    2.00000
   20    -12.72652    2.00000
   21    -12.57806    2.00000
   22    -11.67517    2.00000
   23    -11.10047    2.00000
   24    -10.94030    2.00000
   25    -10.56935    2.00000
   26    -10.46094    2.00000
   27     -9.98422    2.00000
   28     -9.86119    2.00000
   29     -9.62217    2.00000
   30     -9.41118    2.00000
   31     -9.09446    2.00000
   32     -9.04997    2.00000
   33     -8.64438    2.00000
   34     -8.30855    2.00000
   35     -8.11713    2.00000
   36     -7.66654    2.00000
   37     -7.21350    2.00000
   38     -6.60107    2.00000
   39     -6.45248    2.00000
   40     -6.33760    2.00000
   41     -6.30017    2.00000
   42     -6.05776    2.00000
   43     -5.98832    2.00000
   44     -5.87744    2.00000
   45     -5.17747    1.99492
   46     -5.01031    1.97325
   47     -4.66369    1.39478
   48     -4.50194    0.62753
   49     -4.01783    0.00720
   50     -3.86694    0.00160
   51     -3.78980    0.00074
   52     -3.04933    0.00000
   53     -2.53866    0.00000
   54     -2.10714    0.00000
   55     -1.14516    0.00000
   56     -1.11125    0.00000
   57     -1.06183    0.00000
   58     -0.64553    0.00000
   59     -0.45978    0.00000
   60      0.25060    0.00000
   61      1.41203    0.00000
   62      2.04198    0.00000
   63      2.43309    0.00000
   64      2.56268    0.00000
   65      3.28544    0.00000
   66      3.97478    0.00000
   67      4.09645    0.00000
   68      4.42056    0.00000
   69      4.48109    0.00000
   70      5.18402    0.00000
   71      5.52461    0.00000
   72      5.72841    0.00000
   73      5.81073    0.00000
   74      6.00045    0.00000
   75      6.17984    0.00000
   76      6.65782    0.00000
   77      6.91291    0.00000
   78      7.66678    0.00000
   79      8.16960    0.00000
   80      8.34525    0.00000
   81      8.41104    0.00000
   82      8.63391    0.00000
   83      8.77930    0.00000
   84      8.90096    0.00000
   85      9.00424    0.00000
   86      9.06367    0.00000
   87      9.15924    0.00000
   88      9.37483    0.00000
   89      9.41049    0.00000
   90      9.66415    0.00000
   91      9.93205    0.00000
   92      9.97499    0.00000
   93     10.13928    0.00000
   94     10.17575    0.00000
   95     10.21146    0.00000
   96     10.41583    0.00000
   97     10.45156    0.00000


Forces in eV/Ang:
  0 C    -0.09340    0.22425   -0.01385
  1 C    -0.07338   -0.02030    0.00453
  2 C    -0.01792   -0.06989   -0.00092
  3 C     0.06674   -0.00616   -0.03724
  4 C    -0.03037   -0.02093    0.02626
  5 C     0.03277   -0.03492    0.02771
  6 C    -0.15311   -0.02499    0.00281
  7 C    -0.01444   -0.17454    0.01019
  8 C     0.00331    0.02643    0.00676
  9 C    -0.02558    0.00968    0.01280
 10 C     0.01078    0.04173   -0.01716
 11 C     0.02911    0.06971   -0.00450
 12 C     0.01687    0.06400   -0.01161
 13 C     0.17398   -0.16211    0.02504
 14 C    -0.02054    0.05292   -0.01034
 15 C     0.02019   -0.02937   -0.01001
 16 C    -0.02049    0.05173    0.02768
 17 C    -0.02553    0.05604   -0.01005
 18 C     0.05373   -0.00514   -0.04897
 19 C    -0.06348    0.02467    0.00296
 20 C     0.04783   -0.03899    0.00830
 21 C     0.08420    0.02696   -0.00059
 22 C     0.00201   -0.04308   -0.04002
 23 C     0.02049   -0.03033    0.01894

System changes: positions 

Initializing position-dependent things.

Density initialized from wave functions
           .--------------------------------------.  
          /|                                      |  
         / |                                      |  
        /  |                                      |  
       /   |                                      |  
      /    |                                      |  
     /     |                                      |  
    /      |                                      |  
   /       |        C                             |  
  /        |     C    C                           |  
 *         |   C  C  C C   C  C C                 |  
 |         |          C     C   C                 |  
 |         .-------C-----C--------C---------------.  
 |        /         C   C        C               /   
 |       /         C C  C   C  C                /    
 |      /                                      /     
 |     /                                      /      
 |    /                                      /       
 |   /                                      /        
 |  /                                      /         
 | /                                      /          
 |/                                      /           
 *--------------------------------------*            

Positions:
   0 C      4.793830   12.153390    4.967144
   1 C     11.008000    4.814821    4.440359
   2 C      9.969294    4.087967    4.499571
   3 C     11.555944    6.038235    4.448855
   4 C      3.762679   11.270629    4.990139
   5 C     11.465927    7.302931    4.507627
   6 C      3.180363   10.047124    5.028735
   7 C      4.369514    9.405861    5.044741
   8 C      6.418833    5.229191    4.875628
   9 C     10.510764    8.299461    4.654850
  10 C      8.269140    9.154556    4.912150
  11 C      9.216704   10.202107    4.849735
  12 C      7.924707    5.431948    4.780497
  13 C      5.693640   11.156837    4.994099
  14 C      9.068048    7.897480    4.805062
  15 C      5.753775    6.487779    4.985021
  16 C      8.583623    4.098200    4.625258
  17 C      7.479867    3.174644    4.647713
  18 C      5.743463    9.751818    5.035729
  19 C      6.362856    3.821843    4.781019
  20 C      6.868839    8.855111    5.000195
  21 C     10.413384    9.728280    4.698851
  22 C      6.768264    7.448745    4.974911
  23 C      8.186699    6.812823    4.838148

Unit cell:
           periodic     x           y           z      points  spacing
  1. axis:    yes   16.000000    0.000000    0.000000    80     0.2000
  2. axis:    yes    0.000000   16.000000    0.000000    80     0.2000
  3. axis:    yes    0.000000    0.000000   10.000000    48     0.2083

Effective grid spacing dv^(1/3) = 0.2027

                     log10-error:    total        iterations:
           time      wfs    density  energy       fermi  poisson
iter:   1  10:08:30          +inf  -179.278578    2      4      
iter:   2  10:08:31         -3.02  -179.278718    2      1      
iter:   3  10:08:31         -3.30  -179.278605    2      1      
iter:   4  10:08:32         -3.44  -179.278528    2      1      
iter:   5  10:08:32         -3.59  -179.278618    2      1      
iter:   6  10:08:33         -3.68  -179.278320    2      1      
iter:   7  10:08:33         -3.49  -179.278365    2      1      
iter:   8  10:08:34         -3.98  -179.278258    2      1      
iter:   9  10:08:34         -4.14  -179.278166    2      1      

Converged after 9 iterations.

Dipole moment: (0.560032, -0.220933, -0.021130) |e|*Ang

Energy contributions relative to reference atoms: (reference = -24663.074771)

Kinetic:       +111.606208
Potential:     -118.102254
External:        +0.000000
XC:            -175.630427
Entropy (-ST):   -0.270861
Local:           +2.983737
--------------------------
Free energy:   -179.413596
Extrapolated:  -179.278166

Fermi level: -4.58250

 Band  Eigenvalues  Occupancy
    0    -23.02920    2.00000
    1    -22.77794    2.00000
    2    -22.18793    2.00000
    3    -21.18139    2.00000
    4    -20.39408    2.00000
    5    -20.01440    2.00000
    6    -19.42113    2.00000
    7    -19.34871    2.00000
    8    -18.85088    2.00000
    9    -18.36215    2.00000
   10    -17.50227    2.00000
   11    -17.01861    2.00000
   12    -16.24459    2.00000
   13    -15.88274    2.00000
   14    -14.82790    2.00000
   15    -14.45722    2.00000
   16    -14.06585    2.00000
   17    -13.95284    2.00000
   18    -12.98684    2.00000
   19    -12.95606    2.00000
   20    -12.72554    2.00000
   21    -12.58178    2.00000
   22    -11.67730    2.00000
   23    -11.10199    2.00000
   24    -10.93611    2.00000
   25    -10.57040    2.00000
   26    -10.46128    2.00000
   27     -9.97988    2.00000
   28     -9.86433    2.00000
   29     -9.62196    2.00000
   30     -9.41349    2.00000
   31     -9.09253    2.00000
   32     -9.04934    2.00000
   33     -8.64175    2.00000
   34     -8.30780    2.00000
   35     -8.11665    2.00000
   36     -7.66678    2.00000
   37     -7.21434    2.00000
   38     -6.59514    2.00000
   39     -6.45246    2.00000
   40     -6.33597    2.00000
   41     -6.30044    2.00000
   42     -6.05858    2.00000
   43     -5.98793    2.00000
   44     -5.87784    2.00000
   45     -5.17575    1.99471
   46     -5.01487    1.97385
   47     -4.66673    1.39794
   48     -4.50340    0.62393
   49     -4.02063    0.00723
   50     -3.86927    0.00160
   51     -3.79501    0.00076
   52     -3.04971    0.00000
   53     -2.52963    0.00000
   54     -2.11745    0.00000
   55     -1.14065    0.00000
   56     -1.12249    0.00000
   57     -1.06112    0.00000
   58     -0.64606    0.00000
   59     -0.46426    0.00000
   60      0.24831    0.00000
   61      1.41061    0.00000
   62      2.03903    0.00000
   63      2.43053    0.00000
   64      2.56223    0.00000
   65      3.28658    0.00000
   66      3.97316    0.00000
   67      4.09575    0.00000
   68      4.41692    0.00000
   69      4.48042    0.00000
   70      5.17752    0.00000
   71      5.52307    0.00000
   72      5.72753    0.00000
   73      5.80879    0.00000
   74      5.99476    0.00000
   75      6.17590    0.00000
   76      6.66781    0.00000
   77      6.90657    0.00000
   78      7.66528    0.00000
   79      8.16865    0.00000
   80      8.34299    0.00000
   81      8.40837    0.00000
   82      8.63677    0.00000
   83      8.77711    0.00000
   84      8.90137    0.00000
   85      9.00406    0.00000
   86      9.06400    0.00000
   87      9.16238    0.00000
   88      9.37629    0.00000
   89      9.41451    0.00000
   90      9.66548    0.00000
   91      9.93196    0.00000
   92      9.97420    0.00000
   93     10.14252    0.00000
   94     10.17689    0.00000
   95     10.21143    0.00000
   96     10.41607    0.00000
   97     10.45204    0.00000


Forces in eV/Ang:
  0 C    -0.05189    0.16906   -0.01670
  1 C    -0.06552    0.01655    0.00637
  2 C    -0.00385   -0.08049   -0.00289
  3 C     0.04103   -0.02041   -0.03020
  4 C    -0.03231   -0.02745    0.03109
  5 C     0.01628   -0.03391    0.02316
  6 C    -0.11151   -0.04030   -0.00250
  7 C    -0.00679   -0.12935    0.00680
  8 C     0.00365    0.03960    0.00727
  9 C    -0.00621    0.01368    0.00941
 10 C     0.02442    0.03213   -0.00962
 11 C     0.03666    0.06426   -0.01626
 12 C     0.02334    0.05031   -0.02373
 13 C     0.13448   -0.11546    0.02654
 14 C    -0.00411    0.05417   -0.01447
 15 C    -0.00538   -0.02897   -0.00011
 16 C    -0.00970    0.02186    0.02489
 17 C    -0.04129    0.07226   -0.00649
 18 C     0.02733   -0.00477   -0.02580
 19 C    -0.04325    0.02836   -0.00192
 20 C     0.03436   -0.03682   -0.00516
 21 C     0.06138    0.01736    0.00976
 22 C    -0.02629   -0.06265   -0.03259
 23 C     0.01238   -0.00542    0.02313

System changes: positions 

Initializing position-dependent things.

Density initialized from wave functions
           .--------------------------------------.  
          /|                                      |  
         / |                                      |  
        /  |                                      |  
       /   |                                      |  
      /    |                                      |  
     /     |                                      |  
    /      |                                      |  
   /       |        C                             |  
  /        |     C    C                           |  
 *         |   C  C  C C   C  C C                 |  
 |         |          C     C   C                 |  
 |         .-------C-----C--------C---------------.  
 |        /         C   C        C               /   
 |       /         C C  C   C  C                /    
 |      /                                      /     
 |     /                                      /      
 |    /                                      /       
 |   /                                      /        
 |  /                                      /         
 | /                                      /          
 |/                                      /           
 *--------------------------------------*            

Positions:
   0 C      4.789418   12.155677    4.969622
   1 C     11.007078    4.813845    4.439428
   2 C      9.967000    4.088899    4.499155
   3 C     11.561284    6.035617    4.445713
   4 C      3.762213   11.266792    4.993004
   5 C     11.468340    7.300294    4.510038
   6 C      3.177951   10.043524    5.031065
   7 C      4.367068    9.396350    5.042441
   8 C      6.416929    5.231016    4.877084
   9 C     10.512149    8.298012    4.656929
  10 C      8.271057    9.157745    4.909736
  11 C      9.221733   10.203435    4.849539
  12 C      7.922765    5.434938    4.783142
  13 C      5.691114   11.155229    4.992138
  14 C      9.068493    7.899375    4.804578
  15 C      5.754819    6.490704    4.984397
  16 C      8.580988    4.102766    4.627204
  17 C      7.477608    3.179327    4.647211
  18 C      5.742437    9.750564    5.031129
  19 C      6.359297    3.823033    4.781544
  20 C      6.870873    8.856728    4.997581
  21 C     10.418372    9.728137    4.700222
  22 C      6.769795    7.449944    4.972413
  23 C      8.187202    6.814180    4.839078

Unit cell:
           periodic     x           y           z      points  spacing
  1. axis:    yes   16.000000    0.000000    0.000000    80     0.2000
  2. axis:    yes    0.000000   16.000000    0.000000    80     0.2000
  3. axis:    yes    0.000000    0.000000   10.000000    48     0.2083

Effective grid spacing dv^(1/3) = 0.2027

                     log10-error:    total        iterations:
           time      wfs    density  energy       fermi  poisson
iter:   1  10:08:36          +inf  -179.283201    2      4      
iter:   2  10:08:36         -2.42  -179.282376    2      1      
iter:   3  10:08:37         -3.00  -179.283063    2      1      
iter:   4  10:08:37         -3.10  -179.281901    2      1      
iter:   5  10:08:38         -3.11  -179.287847    2      1      
iter:   6  10:08:38         -2.83  -179.282529    2      1      
iter:   7  10:08:39         -3.48  -179.280040    2      1      
iter:   8  10:08:39         -2.74  -179.282029    2      1      
iter:   9  10:08:40         -3.78  -179.282536    2      1      
iter:  10  10:08:40         -3.48  -179.281193    2      1      
iter:  11  10:08:41         -3.78  -179.281634    2      1      
iter:  12  10:08:41         -3.98  -179.281160    2      1      
iter:  13  10:08:42         -4.37  -179.280968    2      1      

Converged after 13 iterations.

Dipole moment: (0.570328, -0.231088, -0.022309) |e|*Ang

Energy contributions relative to reference atoms: (reference = -24663.074771)

Kinetic:       +110.630806
Potential:     -117.346671
External:        +0.000000
XC:            -175.409942
Entropy (-ST):   -0.270759
Local:           +2.980219
--------------------------
Free energy:   -179.416348
Extrapolated:  -179.280968

Fermi level: -4.58966

 Band  Eigenvalues  Occupancy
    0    -23.00978    2.00000
    1    -22.76794    2.00000
    2    -22.19200    2.00000
    3    -21.18234    2.00000
    4    -20.39242    2.00000
    5    -20.01197    2.00000
    6    -19.41041    2.00000
    7    -19.32978    2.00000
    8    -18.85218    2.00000
    9    -18.35815    2.00000
   10    -17.49621    2.00000
   11    -17.02439    2.00000
   12    -16.24678    2.00000
   13    -15.88023    2.00000
   14    -14.83128    2.00000
   15    -14.45607    2.00000
   16    -14.05102    2.00000
   17    -13.95112    2.00000
   18    -12.97561    2.00000
   19    -12.94414    2.00000
   20    -12.72856    2.00000
   21    -12.58498    2.00000
   22    -11.68410    2.00000
   23    -11.10152    2.00000
   24    -10.91590    2.00000
   25    -10.57083    2.00000
   26    -10.46057    2.00000
   27     -9.96359    2.00000
   28     -9.86983    2.00000
   29     -9.62228    2.00000
   30     -9.42339    2.00000
   31     -9.09024    2.00000
   32     -9.04437    2.00000
   33     -8.62560    2.00000
   34     -8.30957    2.00000
   35     -8.11594    2.00000
   36     -7.66735    2.00000
   37     -7.21544    2.00000
   38     -6.57566    2.00000
   39     -6.45282    2.00000
   40     -6.33357    2.00000
   41     -6.30193    2.00000
   42     -6.06522    2.00000
   43     -5.99210    2.00000
   44     -5.87920    1.99999
   45     -5.17299    1.99416
   46     -5.02609    1.97487
   47     -4.67390    1.39795
   48     -4.51042    0.62332
   49     -4.02924    0.00734
   50     -3.87612    0.00159
   51     -3.80448    0.00078
   52     -3.04992    0.00000
   53     -2.53231    0.00000
   54     -2.14552    0.00000
   55     -1.15087    0.00000
   56     -1.10818    0.00000
   57     -1.06274    0.00000
   58     -0.64774    0.00000
   59     -0.47592    0.00000
   60      0.24479    0.00000
   61      1.40720    0.00000
   62      2.02984    0.00000
   63      2.42600    0.00000
   64      2.56379    0.00000
   65      3.28468    0.00000
   66      3.95842    0.00000
   67      4.09600    0.00000
   68      4.40520    0.00000
   69      4.47808    0.00000
   70      5.16624    0.00000
   71      5.51001    0.00000
   72      5.72335    0.00000
   73      5.78627    0.00000
   74      5.98092    0.00000
   75      6.16835    0.00000
   76      6.68155    0.00000
   77      6.89902    0.00000
   78      7.65286    0.00000
   79      8.16469    0.00000
   80      8.33674    0.00000
   81      8.40012    0.00000
   82      8.64258    0.00000
   83      8.76611    0.00000
   84      8.90020    0.00000
   85      9.00242    0.00000
   86      9.06080    0.00000
   87      9.16072    0.00000
   88      9.38143    0.00000
   89      9.41713    0.00000
   90      9.66538    0.00000
   91      9.92911    0.00000
   92      9.97170    0.00000
   93     10.14542    0.00000
   94     10.18278    0.00000
   95     10.21100    0.00000
   96     10.41315    0.00000
   97     10.45196    0.00000


Forces in eV/Ang:
  0 C     0.02128   -0.04396   -0.00575
  1 C    -0.05240    0.04832    0.00953
  2 C    -0.00123   -0.06131   -0.00346
  3 C     0.00043   -0.01075   -0.01792
  4 C    -0.02114   -0.02512    0.02895
  5 C    -0.03629   -0.02910    0.01669
  6 C     0.02908   -0.06263   -0.00172
  7 C    -0.00772    0.04240    0.00363
  8 C     0.01517    0.02351   -0.00170
  9 C     0.03913    0.01012    0.00083
 10 C     0.03108    0.01640   -0.00106
 11 C     0.04059    0.03014   -0.02627
 12 C     0.02589    0.00961   -0.02754
 13 C    -0.02212   -0.00949    0.02074
 14 C     0.02270    0.03522   -0.01531
 15 C    -0.05464   -0.01501    0.00772
 16 C     0.03957   -0.03630    0.01220
 17 C    -0.02432    0.05399   -0.00139
 18 C    -0.01539   -0.04093    0.00119
 19 C    -0.05555    0.07601   -0.00307
 20 C    -0.00784   -0.01373   -0.02705
 21 C     0.03097   -0.00661    0.01967
 22 C    -0.02417   -0.00126   -0.01515
 23 C     0.01231    0.03082    0.01360

