
  ___ ___ ___ _ _ _  
 |   |   |_  | | | | 
 | | | | | . | | | | 
 |__ |  _|___|_____|  1.3.0b1
 |___|_|             

User:   esb@s65n31.grendel.cscaa.dk
Date:   Wed Nov  8 14:13:01 2017
Arch:   x86_64
Pid:    5986
Python: 2.7.13
gpaw:   /home/esb/DFT/gpaw_git/gpaw
_gpaw:  /home/esb/DFT/gpaw_git/build/bin.linux-x86_64-2.7/gpaw-python
ase:    /home/esb/DFT/ase_git/ase (version 3.15.0b1)
numpy:  /comm/swstack/core/python/2.7.13/lib/python2.7/site-packages/numpy (version 1.13.3)
scipy:  /comm/swstack/core/python/2.7.13/lib/python2.7/site-packages/scipy (version 0.19.1)
units:  Angstrom and eV
cores:  16
Extra parameters: {'blacs': True}

Input parameters:
  basis: dzp
  gpts: [80 80 48]
  kpts: [1 1 1]
  maxiter: 99
  mixer: {backend: pulay,
          beta: 0.05,
          method: separate,
          nmaxold: 5,
          weight: 75}
  mode: lcao
  nbands: -50
  occupations: {name: fermi-dirac,
                width: 0.1}
  poissonsolver: {eps: 1e-07,
                  name: fd,
                  nn: 3,
                  relax: GS}
  xc: PBE

System changes: positions, numbers, cell, pbc, initial_charges, initial_magmoms 

Initialize ...

C-setup:
  name: Carbon
  id: 4aa54d4b901d75f77cc0ea3eec22967b
  Z: 6
  valence: 4
  core: 2
  charge: 0.0
  file: /home/esb/DFT/gpaw-setups-0.8.7929/C.PBE.gz
  cutoffs: 0.64(comp), 1.14(filt), 1.14(core), lmax=2
  valence states:
                energy  radius
    2s(2.00)   -13.751   0.635
    2p(2.00)    -5.284   0.635
    *s          13.461   0.635
    *p          21.927   0.635
    *d           0.000   0.635

  LCAO basis set for C:
    Name: dzp
    File: /home/esb/DFT/gpaw-setups-0.8.7929/C.dzp.basis.gz
    Number of radial functions: 5
    Number of spherical harmonics: 13
      l=0, rc=5.5469 Bohr: 2s-sz confined orbital
      l=1, rc=6.6719 Bohr: 2p-sz confined orbital
      l=0, rc=3.0312 Bohr: 2s-dz split-valence wave
      l=1, rc=3.7500 Bohr: 2p-dz split-valence wave
      l=2, rc=6.6719 Bohr: d-type Gaussian polarization

Reference energy: -24663.074771

Spin-paired calculation

Occupation numbers:
  Fermi-Dirac: width=0.1000 eV

Convergence criteria:
  Maximum total energy change: 0.0005 eV / electron
  Maximum integral of absolute density change: 0.0001 electrons
  Maximum integral of absolute eigenstate change: 4e-08 eV^2
  Maximum number of iterations: 99

Symmetries present (total): 1

  ( 1  0  0)
  ( 0  1  0)
  ( 0  0  1)

1 k-point (Gamma)
1 k-point in the irreducible part of the Brillouin zone
       k-points in crystal coordinates                weights
   0:     0.00000000    0.00000000    0.00000000          1/1

Wave functions: LCAO
  Diagonalizer: Serial LAPACK
  Atomic Correction: dense with blas
  Datatype: float
  Eigensolver: None 

LCAO using direct dense diagonalizer 

Densities:
  Coarse grid: 80*80*48 grid
  Fine grid: 160*160*96 grid
  Total Charge: 0.000000 

Density mixing:
  Method: separate
  Backend: pulay
  Linear mixing parameter: 0.05
  Mixing with 5 old densities
  Damping of long wave oscillations: 75 

Hamiltonian:
  XC and Coulomb potentials evaluated on a 160*160*96 grid
  Using the PBE Exchange-Correlation functional
  Interpolation: tri-quintic (5. degree polynomial)
  Poisson solver: Gauss-Seidel solver with 6 multi-grid levels
    Coarsest grid: 5 x 5 x 3 points
    Stencil: 6*3+1=19 point O(h^6) finite-difference Laplacian
    Max iterations: 1000
    Tolerance: 1.000000e-07 

Memory estimate:
  Process memory now: 79.59 MiB
  Calculator: 15.59 MiB
    Density: 6.13 MiB
      Arrays: 3.81 MiB
      Localized functions: 0.86 MiB
      Mixer: 1.46 MiB
    Hamiltonian: 5.40 MiB
      Arrays: 2.49 MiB
      XC: 0.00 MiB
      Poisson: 2.85 MiB
      vbar: 0.07 MiB
    Wavefunctions: 4.05 MiB
      C [qnM]: 0.23 MiB
      S, T [2 x qmm]: 1.49 MiB
      P [aqMi]: 0.01 MiB
      TCI: 0.00 MiB
      BasisFunctions: 2.33 MiB
      Eigensolver: 0.00 MiB

Total number of cores used: 16
Domain decomposition: 2 x 4 x 2

Number of atoms: 24
Number of atomic orbitals: 312
Number of bands in calculation: 98
Bands to converge: occupied states only
Number of valence electrons: 96

... initialized

Initializing position-dependent things.

Density initialized from atomic densities
           .--------------------------------------.  
          /|                                      |  
         / |                                      |  
        /  |                                      |  
       /   |                                      |  
      /    |                                      |  
     /     |                                      |  
    /      |                                      |  
   /       |                                      |  
  /        |        C      C      C               |  
 *         |     C     C  C    C                  |  
 |         |   CC    C       CC C                 |  
 |         .------C-C-----------C-----------------.  
 |        /     C     C C   C   C                /   
 |       /       C      C                       /    
 |      /                                      /     
 |     /                                      /      
 |    /                                      /       
 |   /                                      /        
 |  /                                      /         
 | /                                      /          
 |/                                      /           
 *--------------------------------------*            

Positions:
   0 C     11.352004    5.454652    4.449275
   1 C      4.440964    6.045058    5.724440
   2 C     10.991048    6.854136    5.007197
   3 C      7.979632    9.077355    5.023508
   4 C      8.470675    3.888168    4.266049
   5 C      3.649857    8.094819    4.801734
   6 C      5.924390   11.574839    4.351587
   7 C      7.904668   11.194754    5.089456
   8 C      4.805589    4.680468    5.087588
   9 C     10.580297    8.105453    4.573901
  10 C      9.882024    8.951151    5.492571
  11 C      7.737845    3.432072    5.441691
  12 C      8.333080    4.776241    4.874431
  13 C      9.530467    9.947856    4.323897
  14 C      9.923195    5.190644    4.727425
  15 C      3.959513    7.041450    5.309146
  16 C      3.870161   10.085772    4.637641
  17 C     10.732446   10.260624    5.435131
  18 C      6.069084    8.338064    4.975318
  19 C      9.286904    7.786224    4.824494
  20 C      4.951638   10.509224    5.412680
  21 C      5.867297    3.320757    4.701593
  22 C      5.119620    6.565507    4.779922
  23 C      6.364618    5.536236    5.289577

Unit cell:
           periodic     x           y           z      points  spacing
  1. axis:    yes   16.000000    0.000000    0.000000    80     0.2000
  2. axis:    yes    0.000000   16.000000    0.000000    80     0.2000
  3. axis:    yes    0.000000    0.000000   10.000000    48     0.2083

Effective grid spacing dv^(1/3) = 0.2027

                     log10-error:    total        iterations:
           time      wfs    density  energy       fermi  poisson
iter:   1  14:13:03          +inf  -131.614123    2      6      
iter:   2  14:13:04         -0.89  -129.239072    4      3      
iter:   3  14:13:04         -0.95  -127.117017    4      3      
iter:   4  14:13:05         -1.04  -126.776974    4      3      
iter:   5  14:13:05         -1.10  -126.158861    2      3      
iter:   6  14:13:06         -1.19  -125.847021    4      3      
iter:   7  14:13:06         -1.38  -125.714595    4      3      
iter:   8  14:13:07         -1.67  -125.694205    3      3      
iter:   9  14:13:07         -1.83  -125.671641    3      3      
iter:  10  14:13:08         -1.98  -125.669368    3      2      
iter:  11  14:13:08         -2.06  -125.663071    3      2      
iter:  12  14:13:09         -2.27  -125.659264    3      2      
iter:  13  14:13:09         -2.42  -125.655930    3      2      
iter:  14  14:13:10         -2.57  -125.654222    3      2      
iter:  15  14:13:10         -2.73  -125.660872    3      1      
iter:  16  14:13:11         -2.84  -125.660327    3      1      
iter:  17  14:13:11         -2.98  -125.652272    3      2      
iter:  18  14:13:12         -3.20  -125.652726    2      1      
iter:  19  14:13:12         -3.33  -125.652549    2      1      
iter:  20  14:13:13         -3.48  -125.649890    2      1      
iter:  21  14:13:13         -3.67  -125.650406    2      1      
iter:  22  14:13:14         -3.91  -125.651739    2      1      
iter:  23  14:13:14         -4.04  -125.651366    2      1      

Converged after 23 iterations.

Dipole moment: (-0.191068, -0.140449, 0.233735) |e|*Ang

Energy contributions relative to reference atoms: (reference = -24663.074771)

Kinetic:       +108.172867
Potential:     -100.954726
External:        +0.000000
XC:            -135.258481
Entropy (-ST):   -0.464354
Local:           +2.621152
--------------------------
Free energy:   -125.883543
Extrapolated:  -125.651366

Fermi level: -4.68085

 Band  Eigenvalues  Occupancy
    0    -27.72066    2.00000
    1    -25.95687    2.00000
    2    -24.29386    2.00000
    3    -21.21893    2.00000
    4    -20.93446    2.00000
    5    -19.64668    2.00000
    6    -18.85424    2.00000
    7    -18.29115    2.00000
    8    -17.72127    2.00000
    9    -16.63538    2.00000
   10    -16.07864    2.00000
   11    -15.67990    2.00000
   12    -14.82729    2.00000
   13    -14.46001    2.00000
   14    -13.81553    2.00000
   15    -13.58123    2.00000
   16    -13.04023    2.00000
   17    -12.76930    2.00000
   18    -12.52436    2.00000
   19    -12.21938    2.00000
   20    -11.83609    2.00000
   21    -11.20910    2.00000
   22    -10.70974    2.00000
   23    -10.55567    2.00000
   24    -10.39051    2.00000
   25    -10.21421    2.00000
   26     -9.69240    2.00000
   27     -9.32948    2.00000
   28     -9.14356    2.00000
   29     -8.85536    2.00000
   30     -8.63921    2.00000
   31     -8.26781    2.00000
   32     -7.93965    2.00000
   33     -7.75872    2.00000
   34     -7.56055    2.00000
   35     -7.35234    2.00000
   36     -7.22335    2.00000
   37     -7.11343    2.00000
   38     -6.98947    2.00000
   39     -6.48700    2.00000
   40     -6.22032    2.00000
   41     -6.06384    2.00000
   42     -5.68954    1.99992
   43     -5.62436    1.99984
   44     -5.06643    1.95857
   45     -4.89714    1.79373
   46     -4.86838    1.73413
   47     -4.80795    1.56182
   48     -4.64240    0.81010
   49     -4.40730    0.12182
   50     -4.16429    0.01135
   51     -4.11651    0.00706
   52     -3.96016    0.00148
   53     -3.73995    0.00016
   54     -3.49688    0.00001
   55     -3.47548    0.00001
   56     -3.20705    0.00000
   57     -2.97553    0.00000
   58     -2.77328    0.00000
   59     -2.53233    0.00000
   60     -2.35972    0.00000
   61     -2.24064    0.00000
   62     -1.92300    0.00000
   63     -1.73721    0.00000
   64     -1.45655    0.00000
   65     -1.37335    0.00000
   66     -1.01414    0.00000
   67     -0.55427    0.00000
   68      0.00811    0.00000
   69      0.08856    0.00000
   70      0.43886    0.00000
   71      0.68100    0.00000
   72      0.95797    0.00000
   73      1.20191    0.00000
   74      1.44712    0.00000
   75      1.95656    0.00000
   76      2.33872    0.00000
   77      2.88275    0.00000
   78      2.96361    0.00000
   79      3.22931    0.00000
   80      3.71753    0.00000
   81      3.78271    0.00000
   82      4.11153    0.00000
   83      4.90839    0.00000
   84      5.68464    0.00000
   85      5.78407    0.00000
   86      6.05610    0.00000
   87      6.76990    0.00000
   88      7.18407    0.00000
   89      7.51262    0.00000
   90      7.76254    0.00000
   91      7.84747    0.00000
   92      8.55405    0.00000
   93      8.82147    0.00000
   94      8.92748    0.00000
   95      9.05862    0.00000
   96      9.20615    0.00000
   97      9.39481    0.00000


Forces in eV/Ang:
  0 C    -4.88716    2.08477    2.15847
  1 C     1.00193  -20.20342   11.25082
  2 C     1.52001   -4.33327   -2.50059
  3 C    -0.25777    0.22931   -1.17917
  4 C     3.26303  -26.85237  -17.78377
  5 C    -2.89735   11.07899   -3.72778
  6 C     0.40607   -3.28854    3.83702
  7 C    -1.01541   -2.77272   -0.86790
  8 C     4.24829   -2.30796    1.28808
  9 C     5.47091   -1.95920   -2.17334
 10 C     0.53204    4.85073    3.92834
 11 C    -2.37071   -0.75617   -0.79932
 12 C     1.29570   27.36901   16.22145
 13 C    -1.22295    3.73456    0.57523
 14 C     0.32419    1.14454    0.70222
 15 C   -11.03488    9.69994   -0.34894
 16 C     0.58278   -2.54777    1.57552
 17 C    -3.36673   -2.03985   -1.42494
 18 C     2.16330    0.64719    0.07501
 19 C    -6.75859   -1.31474    1.11371
 20 C     1.75701    1.27647   -4.69549
 21 C    -0.96170    3.38348    1.82509
 22 C    14.32518    3.41367   -7.71671
 23 C    -2.19790   -0.56514   -1.40774

System changes: positions 

Initializing position-dependent things.

Density initialized from wave functions
           .--------------------------------------.  
          /|                                      |  
         / |                                      |  
        /  |                                      |  
       /   |                                      |  
      /    |                                      |  
     /     |                                      |  
    /      |                                      |  
   /       |                                      |  
  /        |        C      C      C               |  
 *         |     C     C  C    C                  |  
 |         |   CC    C      C C C                 |  
 |         .------C-C-----------C-----------------.  
 |        /     C     C C   C   C                /   
 |       /       C      C                       /    
 |      /                                      /     
 |     /                                      /      
 |    /                                      /       
 |   /                                      /        
 |  /                                      /         
 | /                                      /          
 |/                                      /           
 *--------------------------------------*            

Positions:
   0 C     11.345965    5.457228    4.451942
   1 C      4.442202    6.020094    5.738342
   2 C     10.992926    6.848781    5.004107
   3 C      7.979314    9.077639    5.022051
   4 C      8.474706    3.854988    4.244074
   5 C      3.646277    8.108508    4.797128
   6 C      5.924892   11.570776    4.356328
   7 C      7.903413   11.191328    5.088384
   8 C      4.810838    4.677616    5.089180
   9 C     10.587057    8.103032    4.571216
  10 C      9.882681    8.957145    5.497425
  11 C      7.734915    3.431138    5.440703
  12 C      8.334681    4.810059    4.894475
  13 C      9.528955    9.952470    4.324608
  14 C      9.923596    5.192059    4.728292
  15 C      3.945878    7.053436    5.308715
  16 C      3.870881   10.082624    4.639588
  17 C     10.728286   10.258104    5.433371
  18 C      6.071757    8.338864    4.975411
  19 C      9.278553    7.784599    4.825870
  20 C      4.953809   10.510802    5.406878
  21 C      5.866108    3.324938    4.703848
  22 C      5.137320    6.569725    4.770387
  23 C      6.361903    5.535537    5.287837

Unit cell:
           periodic     x           y           z      points  spacing
  1. axis:    yes   16.000000    0.000000    0.000000    80     0.2000
  2. axis:    yes    0.000000   16.000000    0.000000    80     0.2000
  3. axis:    yes    0.000000    0.000000   10.000000    48     0.2083

Effective grid spacing dv^(1/3) = 0.2027

                     log10-error:    total        iterations:
           time      wfs    density  energy       fermi  poisson
iter:   1  14:13:16          +inf  -129.552879    3      5      
iter:   2  14:13:16         -1.74  -129.442386    3      2      
iter:   3  14:13:17         -1.97  -129.420486    3      2      
iter:   4  14:13:17         -2.07  -129.400961    3      2      
iter:   5  14:13:18         -2.23  -129.389781    3      2      
iter:   6  14:13:18         -2.37  -129.379322    3      2      
iter:   7  14:13:19         -2.57  -129.375285    2      2      
iter:   8  14:13:19         -2.71  -129.374954    2      2      
iter:   9  14:13:20         -2.90  -129.377402    2      1      
iter:  10  14:13:20         -3.01  -129.373940    2      2      
iter:  11  14:13:21         -3.14  -129.374250    2      1      
iter:  12  14:13:21         -3.27  -129.374485    2      1      
iter:  13  14:13:21         -3.42  -129.373550    2      1      
iter:  14  14:13:22         -3.64  -129.373281    2      1      
iter:  15  14:13:22         -3.76  -129.372835    2      1      
iter:  16  14:13:23         -3.97  -129.373476    2      1      
iter:  17  14:13:23         -4.05  -129.373637    2      1      

Converged after 17 iterations.

Dipole moment: (-0.176068, -0.121884, 0.250658) |e|*Ang

Energy contributions relative to reference atoms: (reference = -24663.074771)

Kinetic:        +85.288199
Potential:      -85.103512
External:        +0.000000
XC:            -131.850922
Entropy (-ST):   -0.438024
Local:           +2.511609
--------------------------
Free energy:   -129.592649
Extrapolated:  -129.373637

Fermi level: -4.68227

 Band  Eigenvalues  Occupancy
    0    -27.09654    2.00000
    1    -25.79664    2.00000
    2    -23.76554    2.00000
    3    -21.24799    2.00000
    4    -20.87602    2.00000
    5    -19.70437    2.00000
    6    -18.78332    2.00000
    7    -18.25201    2.00000
    8    -17.72743    2.00000
    9    -16.48728    2.00000
   10    -16.04820    2.00000
   11    -15.61494    2.00000
   12    -14.76762    2.00000
   13    -14.47339    2.00000
   14    -13.79817    2.00000
   15    -13.39133    2.00000
   16    -13.01064    2.00000
   17    -12.75620    2.00000
   18    -12.40080    2.00000
   19    -12.04677    2.00000
   20    -11.69458    2.00000
   21    -11.24979    2.00000
   22    -10.65677    2.00000
   23    -10.53342    2.00000
   24    -10.36374    2.00000
   25    -10.18016    2.00000
   26     -9.69429    2.00000
   27     -9.35569    2.00000
   28     -9.10802    2.00000
   29     -8.83867    2.00000
   30     -8.62978    2.00000
   31     -8.27190    2.00000
   32     -7.92614    2.00000
   33     -7.77950    2.00000
   34     -7.57626    2.00000
   35     -7.36022    2.00000
   36     -7.22780    2.00000
   37     -7.12121    2.00000
   38     -7.00095    2.00000
   39     -6.47139    2.00000
   40     -6.18868    2.00000
   41     -6.04854    2.00000
   42     -5.69559    1.99992
   43     -5.62760    1.99984
   44     -5.06926    1.95913
   45     -4.94622    1.86673
   46     -4.87591    1.74792
   47     -4.81683    1.58683
   48     -4.61647    0.68240
   49     -4.42212    0.13808
   50     -4.15097    0.00981
   51     -4.12840    0.00783
   52     -3.95253    0.00135
   53     -3.72278    0.00014
   54     -3.49286    0.00001
   55     -3.48161    0.00001
   56     -3.24655    0.00000
   57     -2.95875    0.00000
   58     -2.76343    0.00000
   59     -2.53402    0.00000
   60     -2.32729    0.00000
   61     -2.22336    0.00000
   62     -1.94027    0.00000
   63     -1.74709    0.00000
   64     -1.39145    0.00000
   65     -1.36136    0.00000
   66     -1.02331    0.00000
   67     -0.55219    0.00000
   68      0.02144    0.00000
   69      0.12906    0.00000
   70      0.45522    0.00000
   71      0.70647    0.00000
   72      1.02621    0.00000
   73      1.18306    0.00000
   74      1.47387    0.00000
   75      1.94989    0.00000
   76      1.99794    0.00000
   77      2.86447    0.00000
   78      2.95024    0.00000
   79      3.25925    0.00000
   80      3.74458    0.00000
   81      3.76892    0.00000
   82      3.88491    0.00000
   83      4.71121    0.00000
   84      5.60803    0.00000
   85      5.67937    0.00000
   86      5.97689    0.00000
   87      6.70623    0.00000
   88      7.20931    0.00000
   89      7.44152    0.00000
   90      7.77622    0.00000
   91      7.83729    0.00000
   92      8.50947    0.00000
   93      8.81681    0.00000
   94      8.99492    0.00000
   95      9.04027    0.00000
   96      9.20051    0.00000
   97      9.38037    0.00000


Forces in eV/Ang:
  0 C    -4.74059    2.20409    2.16311
  1 C     0.16672  -15.23153    7.96736
  2 C     1.48048   -4.20047   -2.54920
  3 C    -0.25393    0.17204   -1.18286
  4 C     1.54879  -16.44410  -10.19440
  5 C    -2.72080   10.95315   -3.50376
  6 C     0.41892   -3.30363    3.82295
  7 C    -1.01477   -2.75802   -0.84024
  8 C     4.28556   -2.44400    1.28863
  9 C     4.65030   -1.90729   -1.77595
 10 C     0.63225    4.30979    3.50640
 11 C    -1.90110   -0.20259   -1.33386
 12 C     2.91421   16.54928    9.21788
 13 C    -1.27297    3.70459    0.58689
 14 C    -0.32651    0.75390    0.71248
 15 C    -8.17149    5.47330    0.61704
 16 C     0.48755   -2.73622    1.59637
 17 C    -3.30118   -1.95088   -1.37527
 18 C     2.08655    0.47073    0.02901
 19 C    -5.97827   -0.89074    1.10483
 20 C     1.76204    1.34727   -4.73110
 21 C    -1.08934    3.38841    1.80818
 22 C    12.35057    3.14480   -5.45461
 23 C    -2.05627   -0.46772   -1.49266

System changes: positions 

Initializing position-dependent things.

Density initialized from wave functions
           .--------------------------------------.  
          /|                                      |  
         / |                                      |  
        /  |                                      |  
       /   |                                      |  
      /    |                                      |  
     /     |                                      |  
    /      |                                      |  
   /       |                                      |  
  /        |        C      C      C               |  
 *         |     C     C  C    C                  |  
 |         |   CC    C      C C C                 |  
 |         .------C-C-----------C-----------------.  
 |        /     C     C C   C   C                /   
 |       /       C                              /    
 |      /               C                      /     
 |     /                                      /      
 |    /                                      /       
 |   /                                      /        
 |  /                                      /         
 | /                                      /          
 |/                                      /           
 *--------------------------------------*            

Positions:
   0 C     11.330181    5.465415    4.459468
   1 C      4.438998    5.989763    5.751116
   2 C     10.997883    6.834809    4.995042
   3 C      7.978450    9.077976    5.017931
   4 C      8.472317    3.845068    4.243073
   5 C      3.637636    8.145941    4.785986
   6 C      5.926403   11.559246    4.369528
   7 C      7.899895   11.181826    5.085594
   8 C      4.825876    4.668520    5.093653
   9 C     10.599475    8.096650    4.566854
  10 C      9.885328    8.969649    5.507680
  11 C      7.730446    3.432942    5.433655
  12 C      8.352121    4.818480    4.894741
  13 C      9.524312    9.965188    4.326697
  14 C      9.919516    5.192905    4.730811
  15 C      3.930494    7.053285    5.315230
  16 C      3.872141   10.072277    4.645221
  17 C     10.717129   10.251738    5.428824
  18 C      6.078649    8.339698    4.975303
  19 C      9.261345    7.783429    4.829663
  20 C      4.959946   10.515797    5.390302
  21 C      5.861751    3.336716    4.710045
  22 C      5.171229    6.579419    4.761705
  23 C      6.355410    5.534356    5.282274

Unit cell:
           periodic     x           y           z      points  spacing
  1. axis:    yes   16.000000    0.000000    0.000000    80     0.2000
  2. axis:    yes    0.000000   16.000000    0.000000    80     0.2000
  3. axis:    yes    0.000000    0.000000   10.000000    48     0.2083

Effective grid spacing dv^(1/3) = 0.2027

                     log10-error:    total        iterations:
           time      wfs    density  energy       fermi  poisson
iter:   1  14:13:25          +inf  -132.571598    3      5      
iter:   2  14:13:25         -1.63  -132.348486    3      2      
iter:   3  14:13:26         -1.83  -132.277185    3      2      
iter:   4  14:13:26         -1.97  -132.229744    2      2      
iter:   5  14:13:27         -2.15  -132.218907    2      2      
iter:   6  14:13:27         -2.29  -132.211087    3      2      
iter:   7  14:13:28         -2.44  -132.208894    2      2      
iter:   8  14:13:28         -2.55  -132.207249    2      2      
iter:   9  14:13:29         -2.83  -132.207245    2      2      
iter:  10  14:13:29         -2.94  -132.207269    2      2      
iter:  11  14:13:30         -3.09  -132.207734    2      1      
iter:  12  14:13:30         -3.23  -132.207762    2      1      
iter:  13  14:13:31         -3.44  -132.207264    2      1      
iter:  14  14:13:31         -3.52  -132.207248    2      1      
iter:  15  14:13:31         -3.64  -132.207314    2      1      
iter:  16  14:13:32         -3.79  -132.207099    2      1      
iter:  17  14:13:32         -4.04  -132.207079    2      1      

Converged after 17 iterations.

Dipole moment: (-0.147856, -0.153789, 0.254778) |e|*Ang

Energy contributions relative to reference atoms: (reference = -24663.074771)

Kinetic:        +69.318326
Potential:      -73.853683
External:        +0.000000
XC:            -129.985788
Entropy (-ST):   -0.418354
Local:           +2.523242
--------------------------
Free energy:   -132.416256
Extrapolated:  -132.207079

Fermi level: -4.66438

 Band  Eigenvalues  Occupancy
    0    -26.39736    2.00000
    1    -25.46230    2.00000
    2    -23.70616    2.00000
    3    -21.30738    2.00000
    4    -20.68839    2.00000
    5    -19.81954    2.00000
    6    -18.76877    2.00000
    7    -18.06529    2.00000
    8    -17.74146    2.00000
    9    -16.54042    2.00000
   10    -16.06749    2.00000
   11    -15.60544    2.00000
   12    -14.78861    2.00000
   13    -14.51842    2.00000
   14    -13.79077    2.00000
   15    -13.19205    2.00000
   16    -12.98353    2.00000
   17    -12.71147    2.00000
   18    -12.38302    2.00000
   19    -11.82115    2.00000
   20    -11.66795    2.00000
   21    -11.30008    2.00000
   22    -10.74758    2.00000
   23    -10.53690    2.00000
   24    -10.41169    2.00000
   25    -10.18314    2.00000
   26     -9.71291    2.00000
   27     -9.38825    2.00000
   28     -9.13490    2.00000
   29     -8.78879    2.00000
   30     -8.60831    2.00000
   31     -8.27891    2.00000
   32     -7.93913    2.00000
   33     -7.81764    2.00000
   34     -7.58419    2.00000
   35     -7.35200    2.00000
   36     -7.24953    2.00000
   37     -7.14211    2.00000
   38     -7.00785    2.00000
   39     -6.45682    2.00000
   40     -6.18712    2.00000
   41     -6.02135    2.00000
   42     -5.68472    1.99993
   43     -5.62792    1.99987
   44     -5.07102    1.96630
   45     -4.93557    1.87545
   46     -4.88331    1.79857
   47     -4.79963    1.58909
   48     -4.57998    0.60139
   49     -4.41468    0.15215
   50     -4.14919    0.01151
   51     -4.05276    0.00440
   52     -3.92342    0.00121
   53     -3.67548    0.00010
   54     -3.47150    0.00001
   55     -3.44628    0.00001
   56     -3.23505    0.00000
   57     -2.95605    0.00000
   58     -2.73590    0.00000
   59     -2.51282    0.00000
   60     -2.24548    0.00000
   61     -2.12666    0.00000
   62     -1.93466    0.00000
   63     -1.67387    0.00000
   64     -1.33926    0.00000
   65     -1.25263    0.00000
   66     -1.02981    0.00000
   67     -0.52182    0.00000
   68      0.09678    0.00000
   69      0.19729    0.00000
   70      0.44966    0.00000
   71      0.83511    0.00000
   72      1.10658    0.00000
   73      1.24244    0.00000
   74      1.56292    0.00000
   75      1.94098    0.00000
   76      2.08047    0.00000
   77      2.81622    0.00000
   78      2.97695    0.00000
   79      3.50304    0.00000
   80      3.71672    0.00000
   81      3.77809    0.00000
   82      3.97918    0.00000
   83      4.65764    0.00000
   84      5.29984    0.00000
   85      5.69412    0.00000
   86      6.05958    0.00000
   87      6.61762    0.00000
   88      7.24174    0.00000
   89      7.46255    0.00000
   90      7.83809    0.00000
   91      7.85083    0.00000
   92      8.47108    0.00000
   93      8.81549    0.00000
   94      9.02944    0.00000
   95      9.09455    0.00000
   96      9.21854    0.00000
   97      9.39067    0.00000


Forces in eV/Ang:
  0 C    -4.57698    2.01544    2.06734
  1 C     0.00626  -11.68261    5.14220
  2 C     1.33287   -3.62923   -2.42527
  3 C    -0.28197    0.07811   -1.14874
  4 C     0.86745  -15.30178   -9.06701
  5 C    -1.63758    7.97856   -1.91808
  6 C     0.44171   -3.34613    3.82326
  7 C    -1.00134   -2.76984   -0.81630
  8 C     4.31669   -2.63976    1.29940
  9 C     3.19105   -1.90588   -1.08686
 10 C     0.77918    3.20988    2.73601
 11 C    -1.78757   -0.11200   -1.37804
 12 C     3.60791   15.26124    8.14319
 13 C    -1.33053    3.58923    0.57962
 14 C    -0.56621    0.70410    0.77758
 15 C    -6.34965    5.47449   -0.39598
 16 C     0.31456   -3.09937    1.65435
 17 C    -3.12021   -1.66929   -1.26198
 18 C     1.91671    0.14375   -0.06166
 19 C    -4.68071   -0.11041    1.10457
 20 C     1.78446    1.50831   -4.76131
 21 C    -1.33362    3.52037    1.80090
 22 C    10.33873    3.02493   -3.11037
 23 C    -2.28854   -0.22608   -1.64905

System changes: positions 

Initializing position-dependent things.

Density initialized from wave functions
           .--------------------------------------.  
          /|                                      |  
         / |                                      |  
        /  |                                      |  
       /   |                                      |  
      /    |                                      |  
     /     |                                      |  
    /      |                                      |  
   /       |                                      |  
  /        |        C      C     C                |  
 *         |     C     C  C    C                  |  
 |         |   CC    C      C C C                 |  
 |         .------C-C-----------C-----------------.  
 |        /     C     C C   C   C                /   
 |       /       C                              /    
 |      /               C                      /     
 |     /                                      /      
 |    /                                      /       
 |   /                                      /        
 |  /                                      /         
 | /                                      /          
 |/                                      /           
 *--------------------------------------*            

Positions:
   0 C     11.306444    5.476305    4.470470
   1 C      4.433680    5.969602    5.747838
   2 C     11.004326    6.818231    4.981955
   3 C      7.976773    9.077637    5.011718
   4 C      8.464417    3.822880    4.239903
   5 C      3.634820    8.174912    4.784327
   6 C      5.929030   11.540433    4.390617
   7 C      7.894421   11.166515    5.081343
   8 C      4.850127    4.652208    5.100902
   9 C     10.605533    8.086390    4.566372
  10 C      9.890907    8.979093    5.516760
  11 C      7.723674    3.435793    5.422886
  12 C      8.384332    4.837482    4.896260
  13 C      9.516392    9.984330    4.329934
  14 C      9.911653    5.194423    4.735489
  15 C      3.919896    7.060471    5.313382
  16 C      3.872518   10.052318    4.654776
  17 C     10.701098   10.244357    5.422662
  18 C      6.088011    8.337933    4.974268
  19 C      9.246031    7.788943    4.835728
  20 C      4.969961   10.525319    5.363602
  21 C      5.852479    3.356874    4.719886
  22 C      5.207846    6.594108    4.768297
  23 C      6.342383    5.534816    5.271918

Unit cell:
           periodic     x           y           z      points  spacing
  1. axis:    yes   16.000000    0.000000    0.000000    80     0.2000
  2. axis:    yes    0.000000   16.000000    0.000000    80     0.2000
  3. axis:    yes    0.000000    0.000000   10.000000    48     0.2083

Effective grid spacing dv^(1/3) = 0.2027

                     log10-error:    total        iterations:
           time      wfs    density  energy       fermi  poisson
iter:   1  14:13:34          +inf  -135.545272    2      5      
iter:   2  14:13:34         -1.67  -135.395007    3      2      
iter:   3  14:13:35         -1.81  -135.315907    2      2      
iter:   4  14:13:35         -1.97  -135.278987    2      2      
iter:   5  14:13:36         -2.11  -135.265899    2      2      
iter:   6  14:13:36         -2.27  -135.259218    2      2      
iter:   7  14:13:37         -2.40  -135.256886    2      2      
iter:   8  14:13:37         -2.55  -135.255658    2      2      
iter:   9  14:13:38         -2.83  -135.256430    2      2      
iter:  10  14:13:38         -2.93  -135.256416    2      2      
iter:  11  14:13:39         -3.14  -135.256408    2      1      
iter:  12  14:13:39         -3.24  -135.256640    2      1      
iter:  13  14:13:40         -3.44  -135.256336    2      1      
iter:  14  14:13:40         -3.55  -135.255940    2      1      
iter:  15  14:13:41         -3.69  -135.255998    2      1      
iter:  16  14:13:41         -3.89  -135.256250    2      1      
iter:  17  14:13:42         -4.04  -135.256427    2      1      

Converged after 17 iterations.

Dipole moment: (-0.119696, -0.200402, 0.254292) |e|*Ang

Energy contributions relative to reference atoms: (reference = -24663.074771)

Kinetic:        +58.261185
Potential:      -66.174001
External:        +0.000000
XC:            -129.707530
Entropy (-ST):   -0.366639
Local:           +2.547239
--------------------------
Free energy:   -135.439746
Extrapolated:  -135.256427

Fermi level: -4.63395

 Band  Eigenvalues  Occupancy
    0    -25.90988    2.00000
    1    -25.21861    2.00000
    2    -23.52707    2.00000
    3    -21.41781    2.00000
    4    -20.61500    2.00000
    5    -19.96138    2.00000
    6    -18.84582    2.00000
    7    -17.96971    2.00000
    8    -17.76462    2.00000
    9    -16.65722    2.00000
   10    -16.14909    2.00000
   11    -15.65003    2.00000
   12    -14.88434    2.00000
   13    -14.62611    2.00000
   14    -13.78567    2.00000
   15    -13.14453    2.00000
   16    -12.92701    2.00000
   17    -12.66014    2.00000
   18    -12.37113    2.00000
   19    -11.68670    2.00000
   20    -11.59928    2.00000
   21    -11.38287    2.00000
   22    -10.88651    2.00000
   23    -10.56142    2.00000
   24    -10.44414    2.00000
   25    -10.18940    2.00000
   26     -9.75526    2.00000
   27     -9.42495    2.00000
   28     -9.19026    2.00000
   29     -8.79805    2.00000
   30     -8.59594    2.00000
   31     -8.29834    2.00000
   32     -8.04036    2.00000
   33     -7.82868    2.00000
   34     -7.59015    2.00000
   35     -7.35120    2.00000
   36     -7.29820    2.00000
   37     -7.18850    2.00000
   38     -6.97875    2.00000
   39     -6.43366    2.00000
   40     -6.20034    2.00000
   41     -5.97537    2.00000
   42     -5.67421    1.99994
   43     -5.61426    1.99989
   44     -5.08789    1.97887
   45     -4.93343    1.90468
   46     -4.90201    1.87174
   47     -4.78281    1.63174
   48     -4.50179    0.42110
   49     -4.39928    0.17466
   50     -4.13812    0.01395
   51     -3.97259    0.00268
   52     -3.83486    0.00068
   53     -3.59419    0.00006
   54     -3.43135    0.00001
   55     -3.32349    0.00000
   56     -3.19023    0.00000
   57     -2.92828    0.00000
   58     -2.65939    0.00000
   59     -2.48503    0.00000
   60     -2.13612    0.00000
   61     -2.01693    0.00000
   62     -1.91424    0.00000
   63     -1.56001    0.00000
   64     -1.27428    0.00000
   65     -1.11318    0.00000
   66     -0.99500    0.00000
   67     -0.46660    0.00000
   68      0.21445    0.00000
   69      0.29802    0.00000
   70      0.53241    0.00000
   71      0.99903    0.00000
   72      1.22770    0.00000
   73      1.42452    0.00000
   74      1.66888    0.00000
   75      1.89624    0.00000
   76      2.29217    0.00000
   77      2.78887    0.00000
   78      3.07851    0.00000
   79      3.52992    0.00000
   80      3.85320    0.00000
   81      4.14442    0.00000
   82      4.18367    0.00000
   83      4.75637    0.00000
   84      5.31390    0.00000
   85      5.85604    0.00000
   86      6.20853    0.00000
   87      6.63848    0.00000
   88      7.32048    0.00000
   89      7.46886    0.00000
   90      7.90034    0.00000
   91      7.95146    0.00000
   92      8.45858    0.00000
   93      8.85252    0.00000
   94      9.04376    0.00000
   95      9.16471    0.00000
   96      9.24334    0.00000
   97      9.41710    0.00000


Forces in eV/Ang:
  0 C    -4.29935    1.74349    1.86082
  1 C    -0.22201   -9.59617    3.50621
  2 C     1.24851   -2.83981   -2.19641
  3 C    -0.37847   -0.07849   -1.13858
  4 C    -0.24630  -12.66463   -6.73883
  5 C    -1.10582    7.07580   -1.23507
  6 C     0.39452   -3.40135    3.80096
  7 C    -0.98657   -2.78025   -0.75673
  8 C     4.37461   -2.82942    1.20218
  9 C     2.33789   -2.07068   -0.69300
 10 C     0.90573    2.47093    2.19395
 11 C    -1.50286    0.01840   -1.46504
 12 C     4.57618   12.32841    5.93130
 13 C    -1.41203    3.45347    0.68829
 14 C    -0.91950    0.57999    0.83383
 15 C    -5.06163    4.70035   -0.74242
 16 C     0.22350   -3.51706    1.75090
 17 C    -2.92261   -1.30520   -1.20153
 18 C     1.75906   -0.23777   -0.17640
 19 C    -3.97694    0.41866    1.08423
 20 C     1.77535    1.66520   -4.81982
 21 C    -1.67696    3.69618    1.86515
 22 C     9.53435    3.19164   -1.78210
 23 C    -2.42932    0.03100   -1.70442

System changes: positions 

Initializing position-dependent things.

Density initialized from wave functions
           .--------------------------------------.  
          /|                                      |  
         / |                                      |  
        /  |                                      |  
       /   |                                      |  
      /    |                                      |  
     /     |                                      |  
    /      |                                      |  
   /       |                                      |  
  /        |        C      C     C                |  
 *         |     C     C  C    C                  |  
 |         |   CC    C      C C C                 |  
 |         .------C-C-----------C-----------------.  
 |        /     C     C  C  C   C                /   
 |       /       C                              /    
 |      /               C                      /     
 |     /                                      /      
 |    /                                      /       
 |   /                                      /        
 |  /                                      /         
 | /                                      /          
 |/                                      /           
 *--------------------------------------*            

Positions:
   0 C     11.285593    5.484554    4.479392
   1 C      4.428438    5.952404    5.742163
   2 C     11.010114    6.807740    4.971255
   3 C      7.974409    9.076276    5.005821
   4 C      8.451776    3.803866    4.241274
   5 C      3.634167    8.201040    4.784972
   6 C      5.931066   11.522148    4.410549
   7 C      7.889302   11.151835    5.077701
   8 C      4.873602    4.635684    5.106965
   9 C     10.608415    8.075127    4.567185
  10 C      9.896827    8.984971    5.523092
  11 C      7.718594    3.438479    5.412895
  12 C      8.419050    4.851958    4.893185
  13 C      9.508357   10.001706    4.333932
  14 C      9.902768    5.195590    4.740275
  15 C      3.912130    7.068035    5.309054
  16 C      3.872616   10.030814    4.664546
  17 C     10.687017   10.239688    5.416990
  18 C      6.096070    8.333982    4.972571
  19 C      9.233458    7.796386    4.841351
  20 C      4.979375   10.535277    5.337785
  21 C      5.841446    3.377300    4.729852
  22 C      5.243348    6.610218    4.777244
  23 C      6.328999    5.536778    5.262039

Unit cell:
           periodic     x           y           z      points  spacing
  1. axis:    yes   16.000000    0.000000    0.000000    80     0.2000
  2. axis:    yes    0.000000   16.000000    0.000000    80     0.2000
  3. axis:    yes    0.000000    0.000000   10.000000    48     0.2083

Effective grid spacing dv^(1/3) = 0.2027

                     log10-error:    total        iterations:
           time      wfs    density  energy       fermi  poisson
iter:   1  14:13:43          +inf  -138.028388    2      5      
iter:   2  14:13:44         -1.73  -137.922527    3      2      
iter:   3  14:13:44         -1.87  -137.869283    2      2      
iter:   4  14:13:45         -2.01  -137.837881    2      2      
iter:   5  14:13:45         -2.16  -137.822936    2      2      
iter:   6  14:13:46         -2.37  -137.821328    2      2      
iter:   7  14:13:46         -2.50  -137.819886    2      2      
iter:   8  14:13:47         -2.76  -137.821005    2      2      
iter:   9  14:13:47         -2.87  -137.820515    2      2      
iter:  10  14:13:48         -3.06  -137.819041    1      1      
iter:  11  14:13:48         -3.19  -137.819755    2      1      
iter:  12  14:13:48         -3.39  -137.821523    2      1      
iter:  13  14:13:49         -3.62  -137.820392    2      1      
iter:  14  14:13:49         -3.74  -137.820626    2      1      
iter:  15  14:13:50         -3.88  -137.821442    2      1      
iter:  16  14:13:50         -4.02  -137.820994    2      1      

Converged after 16 iterations.

Dipole moment: (-0.113701, -0.241840, 0.246750) |e|*Ang

Energy contributions relative to reference atoms: (reference = -24663.074771)

Kinetic:        +51.714250
Potential:      -61.740228
External:        +0.000000
XC:            -130.202702
Entropy (-ST):   -0.320159
Local:           +2.567765
--------------------------
Free energy:   -137.981073
Extrapolated:  -137.820994

Fermi level: -4.61097

 Band  Eigenvalues  Occupancy
    0    -25.51851    2.00000
    1    -25.05164    2.00000
    2    -23.41105    2.00000
    3    -21.50596    2.00000
    4    -20.57908    2.00000
    5    -20.03772    2.00000
    6    -18.92330    2.00000
    7    -17.93058    2.00000
    8    -17.78588    2.00000
    9    -16.80987    2.00000
   10    -16.26573    2.00000
   11    -15.73076    2.00000
   12    -14.99477    2.00000
   13    -14.74805    2.00000
   14    -13.78897    2.00000
   15    -13.22180    2.00000
   16    -12.82592    2.00000
   17    -12.60965    2.00000
   18    -12.35730    2.00000
   19    -11.67757    2.00000
   20    -11.49431    2.00000
   21    -11.42783    2.00000
   22    -11.03507    2.00000
   23    -10.59438    2.00000
   24    -10.46920    2.00000
   25    -10.20149    2.00000
   26     -9.79432    2.00000
   27     -9.45575    2.00000
   28     -9.25050    2.00000
   29     -8.82671    2.00000
   30     -8.59498    2.00000
   31     -8.31230    2.00000
   32     -8.12926    2.00000
   33     -7.82008    2.00000
   34     -7.59714    2.00000
   35     -7.40515    2.00000
   36     -7.31296    2.00000
   37     -7.21631    2.00000
   38     -6.93592    2.00000
   39     -6.41143    2.00000
   40     -6.20858    2.00000
   41     -5.93039    2.00000
   42     -5.67783    1.99995
   43     -5.59834    1.99990
   44     -5.12119    1.98791
   45     -4.94739    1.93313
   46     -4.91898    1.91213
   47     -4.77114    1.66452
   48     -4.43458    0.29260
   49     -4.38838    0.19490
   50     -4.10108    0.01213
   51     -3.94240    0.00249
   52     -3.72699    0.00029
   53     -3.51638    0.00004
   54     -3.38700    0.00001
   55     -3.19125    0.00000
   56     -3.14518    0.00000
   57     -2.88346    0.00000
   58     -2.58381    0.00000
   59     -2.45558    0.00000
   60     -2.02441    0.00000
   61     -1.92809    0.00000
   62     -1.87456    0.00000
   63     -1.43446    0.00000
   64     -1.21953    0.00000
   65     -1.04612    0.00000
   66     -0.90116    0.00000
   67     -0.41185    0.00000
   68      0.28520    0.00000
   69      0.41532    0.00000
   70      0.63089    0.00000
   71      1.13845    0.00000
   72      1.32221    0.00000
   73      1.61171    0.00000
   74      1.75374    0.00000
   75      1.92971    0.00000
   76      2.51692    0.00000
   77      2.77919    0.00000
   78      3.21778    0.00000
   79      3.54790    0.00000
   80      3.94388    0.00000
   81      4.34881    0.00000
   82      4.66129    0.00000
   83      4.79803    0.00000
   84      5.58316    0.00000
   85      6.02637    0.00000
   86      6.38755    0.00000
   87      6.72712    0.00000
   88      7.39095    0.00000
   89      7.49962    0.00000
   90      7.95632    0.00000
   91      8.06747    0.00000
   92      8.49022    0.00000
   93      8.90315    0.00000
   94      9.06936    0.00000
   95      9.19873    0.00000
   96      9.28459    0.00000
   97      9.44699    0.00000


Forces in eV/Ang:
  0 C    -4.05827    1.45178    1.68378
  1 C    -0.33506   -8.02110    2.34661
  2 C     1.27093   -2.28995   -1.92887
  3 C    -0.47247   -0.24045   -1.13034
  4 C    -1.01574  -11.02881   -5.38676
  5 C    -0.66050    6.59946   -0.72859
  6 C     0.34942   -3.43811    3.73393
  7 C    -0.98317   -2.78502   -0.68231
  8 C     4.28735   -2.90890    1.11315
  9 C     1.77037   -2.13485   -0.54371
 10 C     0.98620    2.01449    1.80015
 11 C    -1.38954   -0.04473   -1.38566
 12 C     5.10208   10.52975    4.50503
 13 C    -1.43011    3.34115    0.82282
 14 C    -0.95249    0.54656    0.86119
 15 C    -4.03758    3.91384   -0.94642
 16 C     0.21447   -3.88812    1.83403
 17 C    -2.74571   -1.01256   -1.11613
 18 C     1.58355   -0.59065   -0.28982
 19 C    -3.59194    0.76772    1.04527
 20 C     1.72222    1.72754   -4.84595
 21 C    -1.92016    3.80401    1.87071
 22 C     8.95271    3.34050   -0.84034
 23 C    -2.53636    0.31505   -1.73357

System changes: positions 

Initializing position-dependent things.

Density initialized from wave functions
           .--------------------------------------.  
          /|                                      |  
         / |                                      |  
        /  |                                      |  
       /   |                                      |  
      /    |                                      |  
     /     |                                      |  
    /      |                                      |  
   /       |                                      |  
  /        |        C  C   C     C                |  
 *         |     C        C    C                  |  
 |         |   C     C      C C C                 |  
 |         .------C-C-----------C-----------------.  
 |        /     C     C  C  C   C                /   
 |       /       C                              /    
 |      /               C                      /     
 |     /                                      /      
 |    /                                      /       
 |   /                                      /        
 |  /                                      /         
 | /                                      /          
 |/                                      /           
 *--------------------------------------*            

Positions:
   0 C     11.266568    5.490587    4.487012
   1 C      4.423566    5.938314    5.734778
   2 C     11.016368    6.800170    4.962710
   3 C      7.971455    9.073911    5.000078
   4 C      8.436702    3.785653    4.243149
   5 C      3.635277    8.227315    4.787027
   6 C      5.932707   11.504105    4.429462
   7 C      7.884279   11.137462    5.074662
   8 C      4.895526    4.619521    5.112264
   9 C     10.609948    8.063854    4.567469
  10 C      9.902858    8.989645    5.527916
  11 C      7.713564    3.439688    5.404535
  12 C      8.453793    4.865338    4.888169
  13 C      9.500617   10.018087    4.338865
  14 C      9.895337    5.197051    4.745008
  15 C      3.907243    7.072932    5.304008
  16 C      3.873089   10.007752    4.674588
  17 C     10.674234   10.236695    5.411962
  18 C      6.102882    8.328124    4.970230
  19 C      9.221258    7.804623    4.846533
  20 C      4.988067   10.545019    5.312489
  21 C      5.829499    3.397744    4.739516
  22 C      5.277954    6.627317    4.787735
  23 C      6.315356    5.540476    5.252456

Unit cell:
           periodic     x           y           z      points  spacing
  1. axis:    yes   16.000000    0.000000    0.000000    80     0.2000
  2. axis:    yes    0.000000   16.000000    0.000000    80     0.2000
  3. axis:    yes    0.000000    0.000000   10.000000    48     0.2083

Effective grid spacing dv^(1/3) = 0.2027

                     log10-error:    total        iterations:
           time      wfs    density  energy       fermi  poisson
iter:   1  14:13:52          +inf  -140.305470    3      5      
iter:   2  14:13:52         -1.78  -140.226979    2      2      
iter:   3  14:13:53         -1.91  -140.173867    2      2      
iter:   4  14:13:53         -2.09  -140.156894    2      2      
iter:   5  14:13:54         -2.21  -140.144630    2      2      
iter:   6  14:13:54         -2.38  -140.141683    2      2      
iter:   7  14:13:55         -2.57  -140.142427    2      2      
iter:   8  14:13:55         -2.72  -140.142282    2      2      
iter:   9  14:13:56         -2.94  -140.142932    2      2      
iter:  10  14:13:56         -3.08  -140.142426    2      1      
iter:  11  14:13:57         -3.22  -140.142640    2      1      
iter:  12  14:13:57         -3.45  -140.142874    2      1      
iter:  13  14:13:58         -3.56  -140.142339    2      1      
iter:  14  14:13:58         -3.77  -140.142881    2      1      
iter:  15  14:13:59         -3.98  -140.143011    2      1      
iter:  16  14:13:59         -4.13  -140.143065    2      1      

Converged after 16 iterations.

Dipole moment: (-0.128341, -0.267432, 0.239393) |e|*Ang

Energy contributions relative to reference atoms: (reference = -24663.074771)

Kinetic:        +47.439882
Potential:      -58.981302
External:        +0.000000
XC:            -131.038241
Entropy (-ST):   -0.288990
Local:           +2.581091
--------------------------
Free energy:   -140.287560
Extrapolated:  -140.143065

Fermi level: -4.59968

 Band  Eigenvalues  Occupancy
    0    -25.22072    2.00000
    1    -24.91359    2.00000
    2    -23.26130    2.00000
    3    -21.56994    2.00000
    4    -20.56175    2.00000
    5    -20.08165    2.00000
    6    -19.00174    2.00000
    7    -17.94006    2.00000
    8    -17.79921    2.00000
    9    -16.95613    2.00000
   10    -16.41674    2.00000
   11    -15.81976    2.00000
   12    -15.11906    2.00000
   13    -14.87320    2.00000
   14    -13.80176    2.00000
   15    -13.31765    2.00000
   16    -12.77360    2.00000
   17    -12.56988    2.00000
   18    -12.31171    2.00000
   19    -11.70417    2.00000
   20    -11.50093    2.00000
   21    -11.38347    2.00000
   22    -11.16287    2.00000
   23    -10.61424    2.00000
   24    -10.50803    2.00000
   25    -10.19883    2.00000
   26     -9.82805    2.00000
   27     -9.48611    2.00000
   28     -9.31386    2.00000
   29     -8.85525    2.00000
   30     -8.60445    2.00000
   31     -8.32297    2.00000
   32     -8.19210    2.00000
   33     -7.80232    2.00000
   34     -7.60308    2.00000
   35     -7.49751    2.00000
   36     -7.29954    2.00000
   37     -7.22723    2.00000
   38     -6.89343    2.00000
   39     -6.38694    2.00000
   40     -6.19979    2.00000
   41     -5.89309    2.00000
   42     -5.70318    1.99997
   43     -5.58293    1.99989
   44     -5.15978    1.99264
   45     -4.98265    1.95749
   46     -4.92795    1.92766
   47     -4.76444    1.67714
   48     -4.40552    0.25095
   49     -4.37110    0.18460
   50     -4.03235    0.00685
   51     -3.93761    0.00266
   52     -3.62782    0.00012
   53     -3.44261    0.00002
   54     -3.34329    0.00001
   55     -3.11046    0.00000
   56     -3.06239    0.00000
   57     -2.81484    0.00000
   58     -2.52208    0.00000
   59     -2.42117    0.00000
   60     -1.92994    0.00000
   61     -1.85848    0.00000
   62     -1.79528    0.00000
   63     -1.30359    0.00000
   64     -1.17629    0.00000
   65     -1.01226    0.00000
   66     -0.78206    0.00000
   67     -0.35348    0.00000
   68      0.32425    0.00000
   69      0.53070    0.00000
   70      0.73452    0.00000
   71      1.25856    0.00000
   72      1.40450    0.00000
   73      1.74813    0.00000
   74      1.82882    0.00000
   75      2.02263    0.00000
   76      2.72068    0.00000
   77      2.78730    0.00000
   78      3.39674    0.00000
   79      3.68015    0.00000
   80      4.04195    0.00000
   81      4.52152    0.00000
   82      4.62257    0.00000
   83      5.39049    0.00000
   84      5.90752    0.00000
   85      6.20116    0.00000
   86      6.53834    0.00000
   87      6.85379    0.00000
   88      7.44498    0.00000
   89      7.56796    0.00000
   90      8.02686    0.00000
   91      8.18781    0.00000
   92      8.54335    0.00000
   93      8.95167    0.00000
   94      9.10839    0.00000
   95      9.21403    0.00000
   96      9.32680    0.00000
   97      9.47570    0.00000


Forces in eV/Ang:
  0 C    -3.75943    1.18993    1.52334
  1 C    -0.34991   -6.93890    1.54517
  2 C     1.31341   -1.85081   -1.65272
  3 C    -0.54602   -0.41533   -1.10640
  4 C    -1.52907   -9.42246   -4.26627
  5 C    -0.20715    6.09917   -0.27593
  6 C     0.31826   -3.43762    3.61006
  7 C    -0.96008   -2.79915   -0.59811
  8 C     4.08751   -2.80865    1.03798
  9 C     1.25194   -2.12978   -0.45588
 10 C     1.04197    1.66394    1.48129
 11 C    -1.35523   -0.16340   -1.20866
 12 C     5.19598    8.81517    3.31737
 13 C    -1.43558    3.24743    0.91484
 14 C    -0.82473    0.50098    0.85148
 15 C    -3.33755    3.60753   -1.23089
 16 C     0.22583   -4.20792    1.88740
 17 C    -2.63143   -0.73208   -1.05879
 18 C     1.35867   -0.90681   -0.37135
 19 C    -3.29122    1.05762    0.99819
 20 C     1.62025    1.73269   -4.79156
 21 C    -2.02535    3.77925    1.84859
 22 C     8.48435    3.49660   -0.23709
 23 C    -2.52383    0.65848   -1.68772

System changes: positions 

Initializing position-dependent things.

Density initialized from wave functions
           .--------------------------------------.  
          /|                                      |  
         / |                                      |  
        /  |                                      |  
       /   |                                      |  
      /    |                                      |  
     /     |                                      |  
    /      |                                      |  
   /       |                                      |  
  /        |        C  C   C     C                |  
 *         |     C        C    C                  |  
 |         |   C     C      C C C                 |  
 |         .------C-C-----------C-----------------.  
 |        /     C     C  C  C   C                /   
 |       /       C                              /    
 |      /               C                      /     
 |     /                                      /      
 |    /                                      /       
 |   /                                      /        
 |  /                                      /         
 | /                                      /          
 |/                                      /           
 *--------------------------------------*            

Positions:
   0 C     11.249695    5.494945    4.493663
   1 C      4.419739    5.924291    5.727444
   2 C     11.023203    6.794434    4.956133
   3 C      7.968126    9.070400    4.994579
   4 C      8.421117    3.770474    4.245422
   5 C      3.638702    8.252129    4.790723
   6 C      5.934170   11.486387    4.447133
   7 C      7.879501   11.123048    5.072244
   8 C      4.915256    4.605211    5.117089
   9 C     10.609781    8.053089    4.567170
  10 C      9.908930    8.993629    5.531708
  11 C      7.707902    3.439229    5.398382
  12 C      8.485277    4.875706    4.881726
  13 C      9.493088   10.033923    4.344244
  14 C      9.890423    5.198518    4.749413
  15 C      3.902878    7.080052    5.296921
  16 C      3.873978    9.983245    4.684745
  17 C     10.661881   10.235263    5.407186
  18 C      6.108035    8.320629    4.967560
  19 C      9.209267    7.813631    4.851311
  20 C      4.995740   10.554241    5.288130
  21 C      5.817829    3.417177    4.748785
  22 C      5.312080    6.645574    4.797839
  23 C      6.302465    5.546575    5.243714

Unit cell:
           periodic     x           y           z      points  spacing
  1. axis:    yes   16.000000    0.000000    0.000000    80     0.2000
  2. axis:    yes    0.000000   16.000000    0.000000    80     0.2000
  3. axis:    yes    0.000000    0.000000   10.000000    48     0.2083

Effective grid spacing dv^(1/3) = 0.2027

                     log10-error:    total        iterations:
           time      wfs    density  energy       fermi  poisson
iter:   1  14:14:01          +inf  -142.362047    3      5      
iter:   2  14:14:01         -1.81  -142.292709    2      2      
iter:   3  14:14:02         -1.95  -142.239533    2      2      
iter:   4  14:14:02         -2.17  -142.227074    2      2      
iter:   5  14:14:02         -2.30  -142.218867    2      2      
iter:   6  14:14:03         -2.48  -142.218708    2      2      
iter:   7  14:14:03         -2.63  -142.218565    2      2      
iter:   8  14:14:04         -2.83  -142.219342    2      2      
iter:   9  14:14:04         -3.01  -142.215753    2      1      
iter:  10  14:14:05         -3.14  -142.217683    2      1      
iter:  11  14:14:05         -3.34  -142.220061    2      1      
iter:  12  14:14:06         -3.52  -142.218757    2      1      
iter:  13  14:14:06         -3.70  -142.220545    2      1      
iter:  14  14:14:07         -3.80  -142.220445    2      1      
iter:  15  14:14:07         -3.89  -142.219266    2      1      
iter:  16  14:14:08         -4.10  -142.220320    2      1      

Converged after 16 iterations.

Dipole moment: (-0.151063, -0.274928, 0.229685) |e|*Ang

Energy contributions relative to reference atoms: (reference = -24663.074771)

Kinetic:        +44.948874
Potential:      -57.532084
External:        +0.000000
XC:            -132.100195
Entropy (-ST):   -0.273329
Local:           +2.599749
--------------------------
Free energy:   -142.356984
Extrapolated:  -142.220320

Fermi level: -4.59597

 Band  Eigenvalues  Occupancy
    0    -24.94138    2.00000
    1    -24.80035    2.00000
    2    -23.10382    2.00000
    3    -21.61547    2.00000
    4    -20.55864    2.00000
    5    -20.11181    2.00000
    6    -19.07478    2.00000
    7    -17.98958    2.00000
    8    -17.81698    2.00000
    9    -17.08211    2.00000
   10    -16.57671    2.00000
   11    -15.90740    2.00000
   12    -15.25948    2.00000
   13    -14.99209    2.00000
   14    -13.82794    2.00000
   15    -13.41529    2.00000
   16    -12.75992    2.00000
   17    -12.54627    2.00000
   18    -12.22767    2.00000
   19    -11.76239    2.00000
   20    -11.51371    2.00000
   21    -11.46383    2.00000
   22    -11.14656    2.00000
   23    -10.61941    2.00000
   24    -10.54395    2.00000
   25    -10.18519    2.00000
   26     -9.85736    2.00000
   27     -9.51849    2.00000
   28     -9.37486    2.00000
   29     -8.87575    2.00000
   30     -8.62829    2.00000
   31     -8.33723    2.00000
   32     -8.23284    2.00000
   33     -7.78400    2.00000
   34     -7.62827    2.00000
   35     -7.56896    2.00000
   36     -7.28315    2.00000
   37     -7.23141    2.00000
   38     -6.85499    2.00000
   39     -6.36902    2.00000
   40     -6.18045    2.00000
   41     -5.87524    1.99999
   42     -5.74910    1.99998
   43     -5.56590    1.99988
   44     -5.20036    1.99527
   45     -5.01577    1.97039
   46     -4.93887    1.93720
   47     -4.75832    1.67055
   48     -4.41218    0.27459
   49     -4.34159    0.14568
   50     -3.97389    0.00397
   51     -3.92502    0.00244
   52     -3.54657    0.00006
   53     -3.37252    0.00001
   54     -3.30148    0.00000
   55     -3.08936    0.00000
   56     -2.94264    0.00000
   57     -2.73257    0.00000
   58     -2.45677    0.00000
   59     -2.37436    0.00000
   60     -1.87230    0.00000
   61     -1.79778    0.00000
   62     -1.65919    0.00000
   63     -1.18088    0.00000
   64     -1.15073    0.00000
   65     -0.96293    0.00000
   66     -0.66022    0.00000
   67     -0.28978    0.00000
   68      0.34473    0.00000
   69      0.64156    0.00000
   70      0.83880    0.00000
   71      1.34700    0.00000
   72      1.50538    0.00000
   73      1.80076    0.00000
   74      1.91021    0.00000
   75      2.15928    0.00000
   76      2.80643    0.00000
   77      2.88642    0.00000
   78      3.60047    0.00000
   79      3.88555    0.00000
   80      4.16208    0.00000
   81      4.60785    0.00000
   82      4.71528    0.00000
   83      5.98609    0.00000
   84      6.14621    0.00000
   85      6.39947    0.00000
   86      6.66067    0.00000
   87      6.99303    0.00000
   88      7.49283    0.00000
   89      7.66282    0.00000
   90      8.11439    0.00000
   91      8.29883    0.00000
   92      8.60326    0.00000
   93      8.98461    0.00000
   94      9.15922    0.00000
   95      9.22684    0.00000
   96      9.36056    0.00000
   97      9.48885    0.00000


Forces in eV/Ang:
  0 C    -3.40317    0.95385    1.36866
  1 C    -0.41611   -5.77737    0.82190
  2 C     1.34059   -1.46482   -1.40158
  3 C    -0.59649   -0.60193   -1.07141
  4 C    -1.79304   -8.05405   -3.50534
  5 C     0.17472    5.83958    0.05765
  6 C     0.30998   -3.34586    3.43237
  7 C    -0.93806   -2.83710   -0.53369
  8 C     3.73939   -2.52088    1.01487
  9 C     0.81651   -2.08212   -0.40412
 10 C     1.07234    1.37940    1.20606
 11 C    -1.40960   -0.34053   -0.98980
 12 C     4.94347    7.44136    2.43013
 13 C    -1.41366    3.16947    1.01705
 14 C    -0.57464    0.45051    0.81319
 15 C    -2.62127    2.93873   -1.32731
 16 C     0.31321   -4.50151    1.93005
 17 C    -2.49459   -0.46506   -0.99061
 18 C     1.14458   -1.20390   -0.45134
 19 C    -3.06204    1.31498    0.96632
 20 C     1.40241    1.65288   -4.67952
 21 C    -1.97743    3.59282    1.77984
 22 C     7.95180    3.58977    0.21329
 23 C    -2.44198    0.89526   -1.59215

System changes: positions 

Initializing position-dependent things.

Density initialized from wave functions
           .--------------------------------------.  
          /|                                      |  
         / |                                      |  
        /  |                                      |  
       /   |                                      |  
      /    |                                      |  
     /     |                                      |  
    /      |                                      |  
   /       |                                      |  
  /        |        C  C   C     C                |  
 *         |     C        C   CC                  |  
 |         |   C     C      C   C                 |  
 |         .------C-C-----------C-----------------.  
 |        /     C     C  C  C   C                /   
 |       /       C                              /    
 |      /               C                      /     
 |     /                                      /      
 |    /                                      /       
 |   /                                      /        
 |  /                                      /         
 | /                                      /          
 |/                                      /           
 *--------------------------------------*            

Positions:
   0 C     11.234822    5.498126    4.499676
   1 C      4.415804    5.912901    5.719002
   2 C     11.030592    6.790065    4.950854
   3 C      7.964514    9.065473    4.989182
   4 C      8.406312    3.756968    4.246108
   5 C      3.643970    8.278639    4.795307
   6 C      5.935781   11.469176    4.463877
   7 C      7.874715   11.107664    5.070069
   8 C      4.932284    4.593877    5.122260
   9 C     10.608277    8.042657    4.566312
  10 C      9.915127    8.997267    5.534774
  11 C      7.700642    3.436744    5.394256
  12 C      8.512201    4.885158    4.875197
  13 C      9.485660   10.050067    4.350463
  14 C      9.888583    5.199890    4.753449
  15 C      3.900318    7.084268    5.289660
  16 C      3.876074    9.956324    4.695414
  17 C     10.649792   10.235266    5.402611
  18 C      6.111975    8.311268    4.964398
  19 C      9.196780    7.823831    4.856117
  20 C      5.001511   10.562570    5.264105
  21 C      5.807370    3.434871    4.757625
  22 C      5.345632    6.665007    4.807670
  23 C      6.290317    5.553986    5.235819

Unit cell:
           periodic     x           y           z      points  spacing
  1. axis:    yes   16.000000    0.000000    0.000000    80     0.2000
  2. axis:    yes    0.000000   16.000000    0.000000    80     0.2000
  3. axis:    yes    0.000000    0.000000   10.000000    48     0.2083

Effective grid spacing dv^(1/3) = 0.2027

                     log10-error:    total        iterations:
           time      wfs    density  energy       fermi  poisson
iter:   1  14:14:09          +inf  -144.237867    3      5      
iter:   2  14:14:10         -1.80  -144.155677    2      2      
iter:   3  14:14:10         -1.98  -144.118154    2      2      
iter:   4  14:14:11         -2.15  -144.103542    2      2      
iter:   5  14:14:11         -2.29  -144.095180    2      2      
iter:   6  14:14:12         -2.44  -144.091824    2      2      
iter:   7  14:14:12         -2.62  -144.092401    2      2      
iter:   8  14:14:13         -2.76  -144.092656    2      2      
iter:   9  14:14:13         -2.95  -144.093285    2      2      
iter:  10  14:14:14         -3.15  -144.091707    2      1      
iter:  11  14:14:14         -3.26  -144.092266    2      1      
iter:  12  14:14:15         -3.51  -144.094194    2      1      
iter:  13  14:14:15         -3.65  -144.093865    2      1      
iter:  14  14:14:15         -3.78  -144.093877    2      1      
iter:  15  14:14:16         -3.86  -144.093690    2      1      
iter:  16  14:14:16         -3.94  -144.093385    2      1      
iter:  17  14:14:17         -4.06  -144.093313    2      1      

Converged after 17 iterations.

Dipole moment: (-0.178044, -0.273249, 0.222875) |e|*Ang

Energy contributions relative to reference atoms: (reference = -24663.074771)

Kinetic:        +43.442370
Potential:      -56.770807
External:        +0.000000
XC:            -133.247913
Entropy (-ST):   -0.267703
Local:           +2.616888
--------------------------
Free energy:   -144.227165
Extrapolated:  -144.093313

Fermi level: -4.59017

 Band  Eigenvalues  Occupancy
    0    -24.72002    2.00000
    1    -24.70136    2.00000
    2    -22.91571    2.00000
    3    -21.64550    2.00000
    4    -20.55426    2.00000
    5    -20.13365    2.00000
    6    -19.14811    2.00000
    7    -18.04734    2.00000
    8    -17.84054    2.00000
    9    -17.17626    2.00000
   10    -16.74296    2.00000
   11    -15.98975    2.00000
   12    -15.41729    2.00000
   13    -15.09280    2.00000
   14    -13.86970    2.00000
   15    -13.50958    2.00000
   16    -12.77285    2.00000
   17    -12.54117    2.00000
   18    -12.13417    2.00000
   19    -11.86339    2.00000
   20    -11.62443    2.00000
   21    -11.48553    2.00000
   22    -11.08044    2.00000
   23    -10.60488    2.00000
   24    -10.59229    2.00000
   25    -10.16053    2.00000
   26     -9.87956    2.00000
   27     -9.55372    2.00000
   28     -9.42567    2.00000
   29     -8.88996    2.00000
   30     -8.66065    2.00000
   31     -8.35414    2.00000
   32     -8.25638    2.00000
   33     -7.77852    2.00000
   34     -7.68845    2.00000
   35     -7.57457    2.00000
   36     -7.26767    2.00000
   37     -7.22562    2.00000
   38     -6.81959    2.00000
   39     -6.35340    2.00000
   40     -6.15140    2.00000
   41     -5.89476    2.00000
   42     -5.79215    1.99999
   43     -5.54456    1.99986
   44     -5.23842    1.99694
   45     -5.03612    1.97713
   46     -4.95165    1.94757
   47     -4.74456    1.64805
   48     -4.41731    0.30154
   49     -4.31767    0.12303
   50     -3.97615    0.00430
   51     -3.87505    0.00157
   52     -3.48470    0.00003
   53     -3.30297    0.00001
   54     -3.26044    0.00000
   55     -3.07852    0.00000
   56     -2.82928    0.00000
   57     -2.65035    0.00000
   58     -2.38734    0.00000
   59     -2.30417    0.00000
   60     -1.82905    0.00000
   61     -1.73109    0.00000
   62     -1.50202    0.00000
   63     -1.13409    0.00000
   64     -1.06985    0.00000
   65     -0.89637    0.00000
   66     -0.53835    0.00000
   67     -0.21270    0.00000
   68      0.35240    0.00000
   69      0.74862    0.00000
   70      0.93676    0.00000
   71      1.41264    0.00000
   72      1.61828    0.00000
   73      1.81492    0.00000
   74      1.99369    0.00000
   75      2.29983    0.00000
   76      2.85693    0.00000
   77      2.97419    0.00000
   78      3.81903    0.00000
   79      4.09054    0.00000
   80      4.33800    0.00000
   81      4.70410    0.00000
   82      4.93419    0.00000
   83      6.31133    0.00000
   84      6.48860    0.00000
   85      6.57863    0.00000
   86      6.80907    0.00000
   87      7.12712    0.00000
   88      7.54481    0.00000
   89      7.75881    0.00000
   90      8.23018    0.00000
   91      8.41362    0.00000
   92      8.66557    0.00000
   93      9.00524    0.00000
   94      9.21650    0.00000
   95      9.23552    0.00000
   96      9.38182    0.00000
   97      9.47533    0.00000


Forces in eV/Ang:
  0 C    -2.97303    0.78346    1.24727
  1 C    -0.43031   -4.96981    0.30749
  2 C     1.35453   -1.15760   -1.20810
  3 C    -0.64302   -0.78966   -1.03532
  4 C    -1.90307   -6.75648   -2.81329
  5 C     0.54235    5.38439    0.43850
  6 C     0.34607   -3.21507    3.18585
  7 C    -0.89833   -2.88530   -0.46735
  8 C     3.31603   -2.05486    1.04832
  9 C     0.41401   -2.00077   -0.36665
 10 C     1.09614    1.12104    0.93739
 11 C    -1.48328   -0.47398   -0.88327
 12 C     4.45132    6.09076    1.69206
 13 C    -1.40772    3.09787    1.09710
 14 C    -0.36842    0.34316    0.77833
 15 C    -2.12165    2.70451   -1.52477
 16 C     0.40510   -4.75193    1.96812
 17 C    -2.37655   -0.22448   -0.93691
 18 C     0.93516   -1.45048   -0.51837
 19 C    -2.85280    1.54834    0.93975
 20 C     1.17822    1.51590   -4.48082
 21 C    -1.76852    3.24289    1.67261
 22 C     7.42484    3.76127    0.48286
 23 C    -2.25492    1.05663   -1.46593

System changes: positions 

Initializing position-dependent things.

Density initialized from wave functions
           .--------------------------------------.  
          /|                                      |  
         / |                                      |  
        /  |                                      |  
       /   |                                      |  
      /    |                                      |  
     /     |                                      |  
    /      |                                      |  
   /       |                                      |  
  /        |        C  C   C     C                |  
 *         |     C        C   CC                  |  
 |         |   C     C      C                     |  
 |         .------C-C-----------C-----------------.  
 |        /     C     C  C  C   C                /   
 |       /       C                              /    
 |      /               C                      /     
 |     /                                      /      
 |    /                                      /       
 |   /                                      /        
 |  /                                      /         
 | /                                      /          
 |/                                      /           
 *--------------------------------------*            

Positions:
   0 C     11.222574    5.500895    4.505438
   1 C      4.412187    5.901335    5.710657
   2 C     11.038300    6.786406    4.946136
   3 C      7.960620    9.059214    4.983859
   4 C      8.393046    3.745927    4.246373
   5 C      3.651049    8.303741    4.801749
   6 C      5.938007   11.452704    4.479115
   7 C      7.870105   11.091277    5.068159
   8 C      4.946292    4.586876    5.128336
   9 C     10.605416    8.032757    4.565065
  10 C      9.921475    9.000423    5.536921
  11 C      7.691969    3.433126    5.390439
  12 C      8.533410    4.891999    4.868636
  13 C      9.478051   10.066523    4.357251
  14 C      9.888579    5.200464    4.757283
  15 C      3.897838    7.090329    5.280840
  16 C      3.879180    9.927446    4.706586
  17 C     10.637801   10.236401    5.398079
  18 C      6.114862    8.300604    4.960866
  19 C      9.184084    7.835172    4.861010
  20 C      5.005655   10.569632    5.241193
  21 C      5.799480    3.449448    4.765731
  22 C      5.378221    6.686520    4.816336
  23 C      6.279824    5.561852    5.228878

Unit cell:
           periodic     x           y           z      points  spacing
  1. axis:    yes   16.000000    0.000000    0.000000    80     0.2000
  2. axis:    yes    0.000000   16.000000    0.000000    80     0.2000
  3. axis:    yes    0.000000    0.000000   10.000000    48     0.2083

Effective grid spacing dv^(1/3) = 0.2027

                     log10-error:    total        iterations:
           time      wfs    density  energy       fermi  poisson
iter:   1  14:14:18          +inf  -145.923280    3      5      
iter:   2  14:14:19         -1.77  -145.813716    2      2      
iter:   3  14:14:19         -2.02  -145.786268    3      2      
iter:   4  14:14:20         -2.16  -145.770020    2      2      
iter:   5  14:14:20         -2.33  -145.762227    2      2      
iter:   6  14:14:21         -2.49  -145.760468    2      2      
iter:   7  14:14:21         -2.65  -145.760448    2      2      
iter:   8  14:14:22         -2.78  -145.760401    2      2      
iter:   9  14:14:22         -2.95  -145.761102    2      2      
iter:  10  14:14:23         -3.11  -145.756593    2      1      
iter:  11  14:14:23         -3.27  -145.758551    2      1      
iter:  12  14:14:24         -3.41  -145.762679    2      1      
iter:  13  14:14:24         -3.57  -145.762232    2      1      
iter:  14  14:14:25         -3.71  -145.762083    2      1      
iter:  15  14:14:25         -3.78  -145.761386    2      1      
iter:  16  14:14:26         -3.88  -145.759818    2      1      
iter:  17  14:14:26         -4.22  -145.761231    2      1      

Converged after 17 iterations.

Dipole moment: (-0.203653, -0.265118, 0.215657) |e|*Ang

Energy contributions relative to reference atoms: (reference = -24663.074771)

Kinetic:        +42.744206
Potential:      -56.548207
External:        +0.000000
XC:            -134.455586
Entropy (-ST):   -0.267952
Local:           +2.632332
--------------------------
Free energy:   -145.895207
Extrapolated:  -145.761231

Fermi level: -4.57786

 Band  Eigenvalues  Occupancy
    0    -24.61792    2.00000
    1    -24.50261    2.00000
    2    -22.74929    2.00000
    3    -21.66057    2.00000
    4    -20.55076    2.00000
    5    -20.14905    2.00000
    6    -19.21493    2.00000
    7    -18.11199    2.00000
    8    -17.87547    2.00000
    9    -17.24922    2.00000
   10    -16.88564    2.00000
   11    -16.06949    2.00000
   12    -15.58254    2.00000
   13    -15.17735    2.00000
   14    -13.93163    2.00000
   15    -13.60115    2.00000
   16    -12.80094    2.00000
   17    -12.55275    2.00000
   18    -12.06200    2.00000
   19    -11.99340    2.00000
   20    -11.72441    2.00000
   21    -11.46172    2.00000
   22    -11.02277    2.00000
   23    -10.63247    2.00000
   24    -10.57766    2.00000
   25    -10.14602    2.00000
   26     -9.89033    2.00000
   27     -9.59041    2.00000
   28     -9.45840    2.00000
   29     -8.90260    2.00000
   30     -8.70157    2.00000
   31     -8.37618    2.00000
   32     -8.27228    2.00000
   33     -7.84095    2.00000
   34     -7.68944    2.00000
   35     -7.56738    2.00000
   36     -7.25429    2.00000
   37     -7.21228    2.00000
   38     -6.78744    2.00000
   39     -6.34717    2.00000
   40     -6.12364    2.00000
   41     -5.96092    2.00000
   42     -5.81223    1.99999
   43     -5.52038    1.99984
   44     -5.27478    1.99812
   45     -5.03916    1.98035
   46     -4.96263    1.95823
   47     -4.72202    1.61740
   48     -4.41424    0.32597
   49     -4.29664    0.11334
   50     -3.98955    0.00556
   51     -3.83467    0.00118
   52     -3.44365    0.00002
   53     -3.23820    0.00000
   54     -3.21674    0.00000
   55     -3.07515    0.00000
   56     -2.72793    0.00000
   57     -2.57102    0.00000
   58     -2.30096    0.00000
   59     -2.21399    0.00000
   60     -1.78811    0.00000
   61     -1.65125    0.00000
   62     -1.34483    0.00000
   63     -1.11067    0.00000
   64     -0.99321    0.00000
   65     -0.82043    0.00000
   66     -0.40930    0.00000
   67     -0.11874    0.00000
   68      0.34920    0.00000
   69      0.84942    0.00000
   70      1.02247    0.00000
   71      1.48899    0.00000
   72      1.72505    0.00000
   73      1.81158    0.00000
   74      2.07975    0.00000
   75      2.42124    0.00000
   76      2.93253    0.00000
   77      3.01208    0.00000
   78      3.98001    0.00000
   79      4.32780    0.00000
   80      4.55447    0.00000
   81      4.93197    0.00000
   82      5.16913    0.00000
   83      6.44910    0.00000
   84      6.63917    0.00000
   85      6.81165    0.00000
   86      7.08148    0.00000
   87      7.25659    0.00000
   88      7.60442    0.00000
   89      7.85017    0.00000
   90      8.34385    0.00000
   91      8.53113    0.00000
   92      8.72726    0.00000
   93      9.01902    0.00000
   94      9.23461    0.00000
   95      9.27740    0.00000
   96      9.38683    0.00000
   97      9.45668    0.00000


Forces in eV/Ang:
  0 C    -2.51840    0.60576    1.08690
  1 C    -0.51164   -4.01468   -0.12942
  2 C     1.34173   -0.86224   -1.03428
  3 C    -0.68088   -0.97607   -0.99851
  4 C    -1.94234   -5.73282   -2.28440
  5 C     0.81654    5.11531    0.65484
  6 C     0.43114   -3.04059    2.88520
  7 C    -0.84397   -2.91036   -0.38873
  8 C     2.91597   -1.55382    1.08970
  9 C     0.07725   -1.90871   -0.34294
 10 C     1.12914    0.88825    0.70410
 11 C    -1.56926   -0.58260   -0.79536
 12 C     3.92914    5.09130    1.15897
 13 C    -1.32274    3.04635    1.15741
 14 C    -0.22496    0.21356    0.76555
 15 C    -1.56776    2.17634   -1.58075
 16 C     0.52906   -4.88865    1.94355
 17 C    -2.27556    0.03097   -0.88642
 18 C     0.79967   -1.64099   -0.56907
 19 C    -2.69396    1.74610    0.93016
 20 C     0.91321    1.30711   -4.24642
 21 C    -1.44386    2.80061    1.51801
 22 C     6.81206    3.87795    0.67722
 23 C    -2.02220    1.15180   -1.32403

System changes: positions 

Initializing position-dependent things.

[...]
Local:           +3.076816
--------------------------
Free energy:   -182.000202
Extrapolated:  -181.980209

Fermi level: -4.07552

 Band  Eigenvalues  Occupancy
    0    -23.42413    2.00000
    1    -21.48215    2.00000
    2    -21.09633    2.00000
    3    -20.20454    2.00000
    4    -20.12251    2.00000
    5    -19.92695    2.00000
    6    -19.43804    2.00000
    7    -19.24493    2.00000
    8    -18.86300    2.00000
    9    -18.41487    2.00000
   10    -18.04008    2.00000
   11    -17.24469    2.00000
   12    -17.00894    2.00000
   13    -16.21751    2.00000
   14    -15.80698    2.00000
   15    -15.49550    2.00000
   16    -14.82016    2.00000
   17    -14.29337    2.00000
   18    -13.86112    2.00000
   19    -13.44339    2.00000
   20    -12.82615    2.00000
   21    -12.49326    2.00000
   22    -12.24147    2.00000
   23    -12.09372    2.00000
   24    -11.76437    2.00000
   25    -10.57128    2.00000
   26    -10.37679    2.00000
   27     -9.59782    2.00000
   28     -9.08086    2.00000
   29     -8.94362    2.00000
   30     -8.81934    2.00000
   31     -8.72754    2.00000
   32     -8.65902    2.00000
   33     -8.52601    2.00000
   34     -8.15811    2.00000
   35     -8.01211    2.00000
   36     -7.55198    2.00000
   37     -7.44458    2.00000
   38     -7.31520    2.00000
   39     -7.15432    2.00000
   40     -6.74902    2.00000
   41     -6.20640    2.00000
   42     -5.89210    2.00000
   43     -5.79418    2.00000
   44     -5.51678    2.00000
   45     -5.17860    1.99997
   46     -4.61403    1.99087
   47     -4.49979    1.97167
   48     -3.67585    0.03609
   49     -3.34659    0.00136
   50     -2.95945    0.00003
   51     -2.83382    0.00001
   52     -2.57328    0.00000
   53     -1.96904    0.00000
   54     -1.85700    0.00000
   55     -1.12993    0.00000
   56     -0.88996    0.00000
   57     -0.35811    0.00000
   58     -0.02713    0.00000
   59      0.34996    0.00000
   60      0.54872    0.00000
   61      0.76501    0.00000
   62      1.14564    0.00000
   63      1.42669    0.00000
   64      1.81624    0.00000
   65      2.70803    0.00000
   66      3.04243    0.00000
   67      3.41651    0.00000
   68      4.40425    0.00000
   69      4.87758    0.00000
   70      5.13555    0.00000
   71      5.24309    0.00000
   72      5.70711    0.00000
   73      6.09163    0.00000
   74      6.39301    0.00000
   75      6.89360    0.00000
   76      7.15639    0.00000
   77      7.35918    0.00000
   78      7.60435    0.00000
   79      7.79357    0.00000
   80      8.00286    0.00000
   81      8.31066    0.00000
   82      8.67817    0.00000
   83      8.84280    0.00000
   84      8.97617    0.00000
   85      9.11372    0.00000
   86      9.34304    0.00000
   87      9.49914    0.00000
   88      9.52022    0.00000
   89      9.60993    0.00000
   90      9.63582    0.00000
   91      9.72042    0.00000
   92      9.77050    0.00000
   93      9.87464    0.00000
   94     10.12036    0.00000
   95     10.15528    0.00000
   96     10.31492    0.00000
   97     10.35237    0.00000


Forces in eV/Ang:
  0 C     0.09188   -0.00432   -0.00851
  1 C     0.00628    0.06671    0.03394
  2 C    -0.03396    0.06097   -0.04477
  3 C    -0.07665    0.02260    0.00372
  4 C    -0.00575    0.01419    0.00524
  5 C    -0.09421   -0.11503   -0.00233
  6 C     0.06892    0.07107   -0.11062
  7 C    -0.06080   -0.03241   -0.01064
  8 C    -0.02990    0.05500   -0.00372
  9 C    -0.02517    0.01899    0.04537
 10 C     0.07107   -0.07804   -0.02522
 11 C    -0.05635   -0.00539   -0.08327
 12 C    -0.09298   -0.01165    0.02018
 13 C    -0.05648   -0.07390    0.00577
 14 C     0.02477   -0.09110    0.02067
 15 C     0.06187   -0.06141   -0.01898
 16 C     0.03641    0.11003    0.07805
 17 C    -0.00076    0.04022    0.02031
 18 C     0.05518    0.06972    0.00302
 19 C     0.05841    0.04327    0.03324
 20 C    -0.03944   -0.04744    0.03644
 21 C     0.10940    0.00511    0.02731
 22 C    -0.12516   -0.05589   -0.07945
 23 C     0.03204    0.02666    0.03941

System changes: positions 

Initializing position-dependent things.

Density initialized from wave functions
           .--------------------------------------.  
          /|                                      |  
         / |                                      |  
        /  |                                      |  
       /   |                                      |  
      /    |                                      |  
     /     |                                      |  
    /      |                                      |  
   /       |                                      |  
  /        |        C  C     C  C                 |  
 *         |  C  C        C      C                |  
 |         | C             C  C  C                |  
 |         .-C----------C-------C-C---------------.  
 |        /     CCC  C    C  C                   /   
 |       /          C  C                        /    
 |      /                                      /     
 |     /                                      /      
 |    /                                      /       
 |   /                                      /        
 |  /                                      /         
 | /                                      /          
 |/                                      /           
 *--------------------------------------*            

Positions:
   0 C     11.014671    5.903442    4.938408
   1 C      3.492886    5.645740    5.161863
   2 C     11.514597    7.103813    4.909094
   3 C      8.157306    8.996311    4.507534
   4 C      8.133518    3.513577    5.187477
   5 C      3.317350    8.181000    5.455618
   6 C      6.305845   10.434061    5.233363
   7 C      7.700965   10.377528    4.992468
   8 C      4.762797    5.078173    4.770047
   9 C     10.841022    8.285775    4.692368
  10 C     10.594753    9.709147    4.865308
  11 C      6.837101    3.662313    5.102361
  12 C      9.320879    4.055892    5.096675
  13 C      8.754585   11.266398    5.219079
  14 C     10.430642    4.731846    5.073944
  15 C      3.124447    6.846521    5.326161
  16 C      4.024904    9.225696    5.422115
  17 C      9.992208   10.902466    5.065155
  18 C      7.278142    7.949467    4.282920
  19 C      9.532060    8.762275    4.462957
  20 C      5.129834   10.004751    5.330893
  21 C      5.566654    3.954817    5.053339
  22 C      6.516030    6.933837    4.220627
  23 C      5.644998    5.954814    4.182772

Unit cell:
           periodic     x           y           z      points  spacing
  1. axis:    yes   16.000000    0.000000    0.000000    80     0.2000
  2. axis:    yes    0.000000   16.000000    0.000000    80     0.2000
  3. axis:    yes    0.000000    0.000000   10.000000    48     0.2083

Effective grid spacing dv^(1/3) = 0.2027

                     log10-error:    total        iterations:
           time      wfs    density  energy       fermi  poisson
iter:   1  14:28:24          +inf  -181.982142    2      4      
iter:   2  14:28:25         -2.92  -181.981565    2      1      
iter:   3  14:28:25         -3.10  -181.981186    2      1      
iter:   4  14:28:26         -3.51  -181.980963    2      1      
iter:   5  14:28:26         -3.69  -181.980824    2      1      
iter:   6  14:28:26         -3.84  -181.981124    2      1      
iter:   7  14:28:27         -4.03  -181.981084    2      1      

Converged after 7 iterations.

Dipole moment: (-0.061830, 0.134425, -0.135991) |e|*Ang

Energy contributions relative to reference atoms: (reference = -24663.074771)

Kinetic:       +101.912278
Potential:     -112.155613
External:        +0.000000
XC:            -174.804161
Entropy (-ST):   -0.040591
Local:           +3.086707
--------------------------
Free energy:   -182.001380
Extrapolated:  -181.981084

Fermi level: -4.07728

 Band  Eigenvalues  Occupancy
    0    -23.42963    2.00000
    1    -21.49008    2.00000
    2    -21.10166    2.00000
    3    -20.20260    2.00000
    4    -20.12132    2.00000
    5    -19.92780    2.00000
    6    -19.43649    2.00000
    7    -19.24518    2.00000
    8    -18.86776    2.00000
    9    -18.41512    2.00000
   10    -18.04067    2.00000
   11    -17.24726    2.00000
   12    -17.00969    2.00000
   13    -16.22101    2.00000
   14    -15.80769    2.00000
   15    -15.49618    2.00000
   16    -14.82008    2.00000
   17    -14.29481    2.00000
   18    -13.86286    2.00000
   19    -13.44699    2.00000
   20    -12.82244    2.00000
   21    -12.50144    2.00000
   22    -12.24567    2.00000
   23    -12.09917    2.00000
   24    -11.76669    2.00000
   25    -10.57269    2.00000
   26    -10.37638    2.00000
   27     -9.60461    2.00000
   28     -9.08105    2.00000
   29     -8.94463    2.00000
   30     -8.82005    2.00000
   31     -8.72795    2.00000
   32     -8.66008    2.00000
   33     -8.52904    2.00000
   34     -8.15879    2.00000
   35     -8.01487    2.00000
   36     -7.55058    2.00000
   37     -7.44701    2.00000
   38     -7.31590    2.00000
   39     -7.15461    2.00000
   40     -6.75169    2.00000
   41     -6.20413    2.00000
   42     -5.89012    2.00000
   43     -5.79338    2.00000
   44     -5.51939    2.00000
   45     -5.17807    1.99997
   46     -4.61076    1.99040
   47     -4.50084    1.97147
   48     -3.67947    0.03675
   49     -3.34875    0.00137
   50     -2.95876    0.00003
   51     -2.83143    0.00001
   52     -2.57487    0.00000
   53     -1.97056    0.00000
   54     -1.85338    0.00000
   55     -1.12948    0.00000
   56     -0.88482    0.00000
   57     -0.35289    0.00000
   58     -0.02924    0.00000
   59      0.35756    0.00000
   60      0.53903    0.00000
   61      0.77232    0.00000
   62      1.14849    0.00000
   63      1.42585    0.00000
   64      1.81732    0.00000
   65      2.71132    0.00000
   66      3.04928    0.00000
   67      3.41746    0.00000
   68      4.39758    0.00000
   69      4.88623    0.00000
   70      5.14638    0.00000
   71      5.24091    0.00000
   72      5.71120    0.00000
   73      6.09969    0.00000
   74      6.39457    0.00000
   75      6.90126    0.00000
   76      7.15386    0.00000
   77      7.35518    0.00000
   78      7.61650    0.00000
   79      7.79725    0.00000
   80      8.00881    0.00000
   81      8.30901    0.00000
   82      8.67815    0.00000
   83      8.84031    0.00000
   84      8.97265    0.00000
   85      9.10368    0.00000
   86      9.34106    0.00000
   87      9.49945    0.00000
   88      9.52323    0.00000
   89      9.61143    0.00000
   90      9.63947    0.00000
   91      9.72129    0.00000
   92      9.77296    0.00000
   93      9.87537    0.00000
   94     10.12042    0.00000
   95     10.15807    0.00000
   96     10.31372    0.00000
   97     10.35281    0.00000


Forces in eV/Ang:
  0 C     0.07496   -0.01799    0.00114
  1 C    -0.00185    0.04212    0.04004
  2 C    -0.00220    0.01349   -0.01795
  3 C    -0.06290    0.00138   -0.01516
  4 C     0.00308   -0.03762    0.03631
  5 C    -0.09882   -0.11139   -0.00504
  6 C     0.02020    0.06454   -0.08439
  7 C    -0.03586   -0.03912   -0.00732
  8 C    -0.01047    0.01619    0.00780
  9 C     0.00215    0.01004    0.04024
 10 C     0.04342   -0.02483   -0.00877
 11 C    -0.05998   -0.00123   -0.07800
 12 C    -0.07594    0.00490    0.00804
 13 C    -0.00454   -0.03126    0.01030
 14 C     0.06776   -0.04900    0.02141
 15 C     0.04734   -0.02170    0.00010
 16 C     0.02623    0.09504    0.07412
 17 C    -0.00974    0.02710    0.01966
 18 C     0.06160    0.06751    0.00215
 19 C     0.02091    0.04409    0.02084
 20 C    -0.01255   -0.02802    0.03431
 21 C     0.04723    0.00140    0.02607
 22 C    -0.08996   -0.02172   -0.07895
 23 C     0.02242   -0.00360    0.05531

System changes: positions 

Initializing position-dependent things.

Density initialized from wave functions
           .--------------------------------------.  
          /|                                      |  
         / |                                      |  
        /  |                                      |  
       /   |                                      |  
      /    |                                      |  
     /     |                                      |  
    /      |                                      |  
   /       |                                      |  
  /        |        C  C     C  C                 |  
 *         |  C  C        C      C                |  
 |         | C            C   C  C                |  
 |         .-C----------C-------C-C---------------.  
 |        /     CCC  C    C  C                   /   
 |       /          C  C                        /    
 |      /                                      /     
 |     /                                      /      
 |    /                                      /       
 |   /                                      /        
 |  /                                      /         
 | /                                      /          
 |/                                      /           
 *--------------------------------------*            

Positions:
   0 C     11.018861    5.898549    4.935852
   1 C      3.494879    5.646947    5.157590
   2 C     11.516983    7.100904    4.902350
   3 C      8.154275    8.995749    4.521513
   4 C      8.131852    3.513917    5.181954
   5 C      3.321391    8.181232    5.451071
   6 C      6.301023   10.443037    5.223881
   7 C      7.695759   10.379813    4.989030
   8 C      4.763503    5.073603    4.772189
   9 C     10.838546    8.281878    4.697688
  10 C     10.596033    9.708192    4.865049
  11 C      6.835482    3.655882    5.091708
  12 C      9.320646    4.053496    5.097806
  13 C      8.751582   11.266791    5.208853
  14 C     10.434850    4.724862    5.076700
  15 C      3.130963    6.847976    5.319013
  16 C      4.020475    9.233331    5.424068
  17 C      9.989359   10.902145    5.060117
  18 C      7.277075    7.948014    4.297466
  19 C      9.530624    8.761304    4.477195
  20 C      5.126119   10.011067    5.330030
  21 C      5.564430    3.946225    5.050687
  22 C      6.514374    6.932551    4.230498
  23 C      5.650033    5.950698    4.196641

Unit cell:
           periodic     x           y           z      points  spacing
  1. axis:    yes   16.000000    0.000000    0.000000    80     0.2000
  2. axis:    yes    0.000000   16.000000    0.000000    80     0.2000
  3. axis:    yes    0.000000    0.000000   10.000000    48     0.2083

Effective grid spacing dv^(1/3) = 0.2027

                     log10-error:    total        iterations:
           time      wfs    density  energy       fermi  poisson
iter:   1  14:28:28          +inf  -181.992615    3      5      
iter:   2  14:28:29         -2.50  -181.986225    2      1      
iter:   3  14:28:29         -2.70  -181.981868    3      1      
iter:   4  14:28:30         -3.13  -181.982211    2      1      
iter:   5  14:28:30         -3.11  -181.982072    2      1      
iter:   6  14:28:31         -3.33  -181.981769    2      1      
iter:   7  14:28:31         -3.09  -181.983045    3      1      
iter:   8  14:28:31         -3.03  -181.982269    3      1      
iter:   9  14:28:32         -3.40  -181.982076    2      1      
iter:  10  14:28:32         -3.95  -181.982296    2      1      
iter:  11  14:28:33         -3.89  -181.982152    2      1      
iter:  12  14:28:33         -3.71  -181.982197    2      1      
iter:  13  14:28:34         -4.24  -181.982248    2      1      

Converged after 13 iterations.

Dipole moment: (-0.064692, 0.131009, -0.134502) |e|*Ang

Energy contributions relative to reference atoms: (reference = -24663.074771)

Kinetic:       +102.010980
Potential:     -112.212145
External:        +0.000000
XC:            -174.842575
Entropy (-ST):   -0.041566
Local:           +3.082276
--------------------------
Free energy:   -182.003032
Extrapolated:  -181.982248

Fermi level: -4.07615

 Band  Eigenvalues  Occupancy
    0    -23.43723    2.00000
    1    -21.50547    2.00000
    2    -21.10987    2.00000
    3    -20.20075    2.00000
    4    -20.11705    2.00000
    5    -19.92658    2.00000
    6    -19.43613    2.00000
    7    -19.24632    2.00000
    8    -18.86965    2.00000
    9    -18.41639    2.00000
   10    -18.04270    2.00000
   11    -17.24619    2.00000
   12    -17.01308    2.00000
   13    -16.22243    2.00000
   14    -15.80936    2.00000
   15    -15.49661    2.00000
   16    -14.82013    2.00000
   17    -14.29830    2.00000
   18    -13.85891    2.00000
   19    -13.45208    2.00000
   20    -12.81709    2.00000
   21    -12.51026    2.00000
   22    -12.25088    2.00000
   23    -12.10837    2.00000
   24    -11.76623    2.00000
   25    -10.57445    2.00000
   26    -10.37104    2.00000
   27     -9.61512    2.00000
   28     -9.08109    2.00000
   29     -8.94784    2.00000
   30     -8.82140    2.00000
   31     -8.73169    2.00000
   32     -8.65873    2.00000
   33     -8.53430    2.00000
   34     -8.15836    2.00000
   35     -8.01863    2.00000
   36     -7.54719    2.00000
   37     -7.44784    2.00000
   38     -7.31769    2.00000
   39     -7.15701    2.00000
   40     -6.75152    2.00000
   41     -6.20548    2.00000
   42     -5.88650    2.00000
   43     -5.79467    2.00000
   44     -5.51838    2.00000
   45     -5.17838    1.99997
   46     -4.61092    1.99053
   47     -4.49523    1.97018
   48     -3.68124    0.03781
   49     -3.35539    0.00148
   50     -2.95156    0.00003
   51     -2.82463    0.00001
   52     -2.57325    0.00000
   53     -1.97575    0.00000
   54     -1.85885    0.00000
   55     -1.12836    0.00000
   56     -0.85169    0.00000
   57     -0.33489    0.00000
   58     -0.04554    0.00000
   59      0.35985    0.00000
   60      0.51323    0.00000
   61      0.76885    0.00000
   62      1.14806    0.00000
   63      1.42484    0.00000
   64      1.82190    0.00000
   65      2.73818    0.00000
   66      3.06065    0.00000
   67      3.41911    0.00000
   68      4.36948    0.00000
   69      4.90371    0.00000
   70      5.13722    0.00000
   71      5.23950    0.00000
   72      5.71152    0.00000
   73      6.11295    0.00000
   74      6.39319    0.00000
   75      6.89988    0.00000
   76      7.15148    0.00000
   77      7.34959    0.00000
   78      7.64113    0.00000
   79      7.79115    0.00000
   80      8.01228    0.00000
   81      8.30108    0.00000
   82      8.66719    0.00000
   83      8.83890    0.00000
   84      8.96596    0.00000
   85      9.08096    0.00000
   86      9.33716    0.00000
   87      9.49881    0.00000
   88      9.52658    0.00000
   89      9.60857    0.00000
   90      9.64553    0.00000
   91      9.71860    0.00000
   92      9.77238    0.00000
   93      9.87617    0.00000
   94     10.12322    0.00000
   95     10.16459    0.00000
   96     10.31152    0.00000
   97     10.35119    0.00000


Forces in eV/Ang:
  0 C     0.02420   -0.05150    0.01827
  1 C     0.01974   -0.06316    0.03168
  2 C    -0.03809   -0.06723   -0.00651
  3 C    -0.02480   -0.02929   -0.06975
  4 C     0.02302   -0.04159    0.03184
  5 C    -0.04387    0.01965   -0.00440
  6 C    -0.05994    0.03741   -0.06829
  7 C     0.02015   -0.02836   -0.00176
  8 C    -0.01492   -0.01625   -0.00045
  9 C     0.03167    0.00140    0.03622
 10 C     0.01622    0.04601    0.01143
 11 C    -0.04102   -0.00566   -0.04102
 12 C    -0.00986    0.04318   -0.00898
 13 C     0.05070   -0.00217    0.00659
 14 C     0.07190    0.04075    0.00762
 15 C    -0.00084    0.04009    0.02564
 16 C    -0.02315    0.00041    0.05559
 17 C     0.00995   -0.01693    0.02900
 18 C     0.04517    0.04801   -0.02178
 19 C    -0.06941    0.03461    0.00014
 20 C     0.03045   -0.01470    0.02329
 21 C     0.00935   -0.00165   -0.00093
 22 C    -0.00726    0.07140   -0.06330
 23 C    -0.02991   -0.03581    0.05018

