
  ___ ___ ___ _ _ _  
 |   |   |_  | | | | 
 | | | | | . | | | | 
 |__ |  _|___|_____|  1.3.0b1
 |___|_|             

User:   esb@s65n12.grendel.cscaa.dk
Date:   Thu Nov  9 09:52:32 2017
Arch:   x86_64
Pid:    18863
Python: 2.7.13
gpaw:   /home/esb/DFT/gpaw_git/gpaw
_gpaw:  /home/esb/DFT/gpaw_git/build/bin.linux-x86_64-2.7/gpaw-python
ase:    /home/esb/DFT/ase_git/ase (version 3.15.0b1)
numpy:  /comm/swstack/core/python/2.7.13/lib/python2.7/site-packages/numpy (version 1.13.3)
scipy:  /comm/swstack/core/python/2.7.13/lib/python2.7/site-packages/scipy (version 0.19.1)
units:  Angstrom and eV
cores:  16
Extra parameters: {'blacs': True}

Input parameters:
  basis: dzp
  gpts: [80 80 48]
  kpts: [1 1 1]
  maxiter: 99
  mixer: {backend: pulay,
          beta: 0.05,
          method: separate,
          nmaxold: 5,
          weight: 75}
  mode: lcao
  nbands: -50
  occupations: {name: fermi-dirac,
                width: 0.1}
  poissonsolver: {eps: 1e-07,
                  name: fd,
                  nn: 3,
                  relax: GS}
  xc: PBE

System changes: positions, numbers, cell, pbc, initial_charges, initial_magmoms 

Initialize ...

C-setup:
  name: Carbon
  id: 4aa54d4b901d75f77cc0ea3eec22967b
  Z: 6
  valence: 4
  core: 2
  charge: 0.0
  file: /home/esb/DFT/gpaw-setups-0.8.7929/C.PBE.gz
  cutoffs: 0.64(comp), 1.14(filt), 1.14(core), lmax=2
  valence states:
                energy  radius
    2s(2.00)   -13.751   0.635
    2p(2.00)    -5.284   0.635
    *s          13.461   0.635
    *p          21.927   0.635
    *d           0.000   0.635

  LCAO basis set for C:
    Name: dzp
    File: /home/esb/DFT/gpaw-setups-0.8.7929/C.dzp.basis.gz
    Number of radial functions: 5
    Number of spherical harmonics: 13
      l=0, rc=5.5469 Bohr: 2s-sz confined orbital
      l=1, rc=6.6719 Bohr: 2p-sz confined orbital
      l=0, rc=3.0312 Bohr: 2s-dz split-valence wave
      l=1, rc=3.7500 Bohr: 2p-dz split-valence wave
      l=2, rc=6.6719 Bohr: d-type Gaussian polarization

Reference energy: -24663.074771

Spin-paired calculation

Occupation numbers:
  Fermi-Dirac: width=0.1000 eV

Convergence criteria:
  Maximum total energy change: 0.0005 eV / electron
  Maximum integral of absolute density change: 0.0001 electrons
  Maximum integral of absolute eigenstate change: 4e-08 eV^2
  Maximum number of iterations: 99

Symmetries present (total): 1

  ( 1  0  0)
  ( 0  1  0)
  ( 0  0  1)

1 k-point (Gamma)
1 k-point in the irreducible part of the Brillouin zone
       k-points in crystal coordinates                weights
   0:     0.00000000    0.00000000    0.00000000          1/1

Wave functions: LCAO
  Diagonalizer: Serial LAPACK
  Atomic Correction: dense with blas
  Datatype: float
  Eigensolver: None 

LCAO using direct dense diagonalizer 

Densities:
  Coarse grid: 80*80*48 grid
  Fine grid: 160*160*96 grid
  Total Charge: 0.000000 

Density mixing:
  Method: separate
  Backend: pulay
  Linear mixing parameter: 0.05
  Mixing with 5 old densities
  Damping of long wave oscillations: 75 

Hamiltonian:
  XC and Coulomb potentials evaluated on a 160*160*96 grid
  Using the PBE Exchange-Correlation functional
  Interpolation: tri-quintic (5. degree polynomial)
  Poisson solver: Gauss-Seidel solver with 6 multi-grid levels
    Coarsest grid: 5 x 5 x 3 points
    Stencil: 6*3+1=19 point O(h^6) finite-difference Laplacian
    Max iterations: 1000
    Tolerance: 1.000000e-07 

Memory estimate:
  Process memory now: 77.56 MiB
  Calculator: 15.59 MiB
    Density: 6.13 MiB
      Arrays: 3.81 MiB
      Localized functions: 0.86 MiB
      Mixer: 1.46 MiB
    Hamiltonian: 5.40 MiB
      Arrays: 2.49 MiB
      XC: 0.00 MiB
      Poisson: 2.85 MiB
      vbar: 0.07 MiB
    Wavefunctions: 4.05 MiB
      C [qnM]: 0.23 MiB
      S, T [2 x qmm]: 1.49 MiB
      P [aqMi]: 0.01 MiB
      TCI: 0.00 MiB
      BasisFunctions: 2.33 MiB
      Eigensolver: 0.00 MiB

Total number of cores used: 16
Domain decomposition: 2 x 4 x 2

Number of atoms: 24
Number of atomic orbitals: 312
Number of bands in calculation: 98
Bands to converge: occupied states only
Number of valence electrons: 96

... initialized

Initializing position-dependent things.

Density initialized from atomic densities
           .--------------------------------------.  
          /|                                      |  
         / |                                      |  
        /  |                                      |  
       /   |                                      |  
      /    |                                      |  
     /     |                                      |  
    /      |                                      |  
   /       |                                      |  
  /        |           C                          |  
 *         |     C  C           CC                |  
 |         |  C          CC C C                   |  
 |         .-C-C---C-C--C--C--C-------------------.  
 |        /          C  C     C                  /   
 |       /             C  C                     /    
 |      /                                      /     
 |     /                                      /      
 |    /                                      /       
 |   /                                      /        
 |  /                                      /         
 | /                                      /          
 |/                                      /           
 *--------------------------------------*            

Positions:
   0 C      6.234102   10.583463    4.956606
   1 C      5.089952   10.068947    5.095744
   2 C      4.075351    9.228465    5.358003
   3 C      8.076811    9.132592    4.189437
   4 C     10.434076    9.421653    5.216394
   5 C      7.401878    7.872845    4.010417
   6 C      9.447729    8.806943    4.304330
   7 C     11.284718    6.998066    6.380354
   8 C      9.136253    6.350992    4.784174
   9 C     10.963267    8.034841    5.513893
  10 C      7.846957    6.713280    4.256454
  11 C      9.949949    7.491084    4.585505
  12 C      3.453317    7.613960    5.574594
  13 C     10.726437    5.232759    5.649679
  14 C      5.821230    6.144205    5.530180
  15 C      8.231229    3.193640    5.166810
  16 C      9.566873    6.171946    5.751354
  17 C      4.465677    5.535511    5.440128
  18 C      8.187501    6.278243    5.673598
  19 C      7.020895    3.892263    5.339407
  20 C      9.489486    3.319451    5.320676
  21 C      3.288245    6.325099    5.437312
  22 C      7.030295    5.348430    5.504043
  23 C     10.697761    3.903902    5.296983

Unit cell:
           periodic     x           y           z      points  spacing
  1. axis:    yes   16.000000    0.000000    0.000000    80     0.2000
  2. axis:    yes    0.000000   16.000000    0.000000    80     0.2000
  3. axis:    yes    0.000000    0.000000   10.000000    48     0.2083

Effective grid spacing dv^(1/3) = 0.2027

                     log10-error:    total        iterations:
           time      wfs    density  energy       fermi  poisson
iter:   1  09:52:34          +inf  -156.414147    3      6      
iter:   2  09:52:34         -0.92  -155.405881    3      3      
iter:   3  09:52:35         -0.96  -153.736864    4      3      
iter:   4  09:52:36         -1.07  -152.841502    35     3      
iter:   5  09:52:36         -1.26  -152.642050    4      3      
iter:   6  09:52:37         -1.46  -152.584830    3      3      
iter:   7  09:52:37         -1.57  -152.544409    3      3      
iter:   8  09:52:38         -1.75  -152.525662    3      3      
iter:   9  09:52:39         -1.88  -152.508447    3      2      
iter:  10  09:52:39         -1.99  -152.498942    3      2      
iter:  11  09:52:40         -2.19  -152.496722    3      2      
iter:  12  09:52:40         -2.34  -152.495413    3      2      
iter:  13  09:52:41         -2.57  -152.487370    3      2      
iter:  14  09:52:42         -2.68  -152.484985    2      2      
iter:  15  09:52:42         -2.89  -152.484071    2      2      
iter:  16  09:52:43         -3.23  -152.483813    2      1      
iter:  17  09:52:43         -3.28  -152.480924    2      1      
iter:  18  09:52:44         -3.35  -152.476795    2      1      
iter:  19  09:52:44         -3.47  -152.485910    2      1      
iter:  20  09:52:45         -3.64  -152.487032    2      1      
iter:  21  09:52:46         -3.80  -152.487658    2      1      
iter:  22  09:52:46         -4.26  -152.485884    2      1      

Converged after 22 iterations.

Dipole moment: (-0.136813, -0.503248, -0.250967) |e|*Ang

Energy contributions relative to reference atoms: (reference = -24663.074771)

Kinetic:       +137.680832
Potential:     -124.267574
External:        +0.000000
XC:            -168.669403
Entropy (-ST):   -0.333449
Local:           +2.936985
--------------------------
Free energy:   -152.652608
Extrapolated:  -152.485884

Fermi level: -4.54385

 Band  Eigenvalues  Occupancy
    0    -29.40577    2.00000
    1    -23.57386    2.00000
    2    -22.78983    2.00000
    3    -21.09627    2.00000
    4    -20.50887    2.00000
    5    -20.23212    2.00000
    6    -19.59215    2.00000
    7    -19.49004    2.00000
    8    -19.05633    2.00000
    9    -18.86851    2.00000
   10    -17.95210    2.00000
   11    -17.07119    2.00000
   12    -16.60013    2.00000
   13    -16.27964    2.00000
   14    -15.81632    2.00000
   15    -15.70927    2.00000
   16    -14.20433    2.00000
   17    -14.12208    2.00000
   18    -13.46509    2.00000
   19    -13.31190    2.00000
   20    -12.59967    2.00000
   21    -12.49832    2.00000
   22    -12.20832    2.00000
   23    -11.64914    2.00000
   24    -10.82386    2.00000
   25    -10.38487    2.00000
   26    -10.19332    2.00000
   27     -9.65078    2.00000
   28     -9.38026    2.00000
   29     -9.06879    2.00000
   30     -8.95487    2.00000
   31     -8.55167    2.00000
   32     -8.48531    2.00000
   33     -8.21411    2.00000
   34     -7.94804    2.00000
   35     -7.85325    2.00000
   36     -7.67006    2.00000
   37     -7.33276    2.00000
   38     -6.74230    2.00000
   39     -6.44115    2.00000
   40     -6.34308    2.00000
   41     -6.08632    2.00000
   42     -5.69711    1.99998
   43     -5.59288    1.99994
   44     -5.40578    1.99964
   45     -5.25747    1.99841
   46     -4.77015    1.81152
   47     -4.69049    1.62500
   48     -4.39058    0.35519
   49     -4.30644    0.17033
   50     -4.14513    0.03643
   51     -3.89430    0.00302
   52     -3.71576    0.00051
   53     -3.40539    0.00002
   54     -3.27663    0.00001
   55     -2.89495    0.00000
   56     -2.28252    0.00000
   57     -2.26331    0.00000
   58     -1.65213    0.00000
   59     -1.46533    0.00000
   60     -1.08577    0.00000
   61     -0.76553    0.00000
   62     -0.68940    0.00000
   63      0.01953    0.00000
   64      0.61430    0.00000
   65      1.47257    0.00000
   66      1.54815    0.00000
   67      2.44829    0.00000
   68      2.78377    0.00000
   69      2.93773    0.00000
   70      3.34058    0.00000
   71      3.69028    0.00000
   72      4.34216    0.00000
   73      4.95331    0.00000
   74      5.07970    0.00000
   75      5.63407    0.00000
   76      6.32086    0.00000
   77      6.62064    0.00000
   78      6.69452    0.00000
   79      6.92844    0.00000
   80      7.37517    0.00000
   81      7.64175    0.00000
   82      7.85164    0.00000
   83      7.91409    0.00000
   84      8.20307    0.00000
   85      8.38697    0.00000
   86      8.45339    0.00000
   87      8.66550    0.00000
   88      8.68767    0.00000
   89      8.97420    0.00000
   90      9.21801    0.00000
   91      9.33377    0.00000
   92      9.46556    0.00000
   93      9.62742    0.00000
   94      9.76771    0.00000
   95      9.81463    0.00000
   96      9.93246    0.00000
   97      9.96216    0.00000


Forces in eV/Ang:
  0 C     4.70506    2.13382   -0.79576
  1 C    -4.34546   -4.51289    1.03088
  2 C    -2.39278   -5.60582    0.22829
  3 C    -3.48705   -3.20862   -1.10226
  4 C     1.00478   -2.15469    0.35849
  5 C    -0.18562    7.41496   -0.58121
  6 C    -0.50949    2.22179    0.87130
  7 C     0.23890   -1.44440   -0.01119
  8 C    -4.82781    8.32289  -41.84274
  9 C     1.37346    0.37858   -0.13631
 10 C    -0.50786   -4.37363   -1.03329
 11 C     0.98926    4.54889   -3.42351
 12 C     2.65833    6.57692   -1.04662
 13 C     0.69534    0.72568    1.21372
 14 C    -3.68607   -4.45822   -0.25075
 15 C    -4.49371    1.64830    0.63550
 16 C    15.82842  -11.50754   34.25978
 17 C     3.16342    4.09486    0.35542
 18 C   -10.69155   -1.16189   10.32087
 19 C     3.74646   -0.30421   -0.19272
 20 C     2.01294   -0.30794   -0.72931
 21 C     1.10360    0.49851    0.25799
 22 C    -2.04409   -1.08723    0.01710
 23 C    -0.26216    1.65393    1.52748

System changes: positions 

Initializing position-dependent things.

Density initialized from wave functions
           .--------------------------------------.  
          /|                                      |  
         / |                                      |  
        /  |                                      |  
       /   |                                      |  
      /    |                                      |  
     /     |                                      |  
    /      |                                      |  
   /       |                                      |  
  /        |           C                          |  
 *         |     C  C           CC                |  
 |         |  C          CC C C                   |  
 |         .-C-C---C-C--C--C--C-------------------.  
 |        /          C  C     C                  /   
 |       /             C  C                     /    
 |      /                                      /     
 |     /                                      /      
 |    /                                      /       
 |   /                                      /        
 |  /                                      /         
 | /                                      /          
 |/                                      /           
 *--------------------------------------*            

Positions:
   0 C      6.238485   10.585451    4.955865
   1 C      5.085903   10.064743    5.096704
   2 C      4.073122    9.223242    5.358216
   3 C      8.073563    9.129603    4.188410
   4 C     10.435012    9.419645    5.216728
   5 C      7.401706    7.879753    4.009876
   6 C      9.447255    8.809013    4.305141
   7 C     11.284940    6.996720    6.380343
   8 C      9.131755    6.358746    4.745191
   9 C     10.964546    8.035193    5.513766
  10 C      7.846484    6.709205    4.255492
  11 C      9.950871    7.495322    4.582316
  12 C      3.455794    7.620088    5.573619
  13 C     10.727085    5.233435    5.650810
  14 C      5.817796    6.140052    5.529947
  15 C      8.227043    3.195176    5.167402
  16 C      9.581619    6.161225    5.783272
  17 C      4.468625    5.539326    5.440459
  18 C      8.177541    6.277160    5.683213
  19 C      7.024385    3.891979    5.339227
  20 C      9.491362    3.319164    5.319997
  21 C      3.289273    6.325563    5.437552
  22 C      7.028391    5.347417    5.504059
  23 C     10.697517    3.905443    5.298406

Unit cell:
           periodic     x           y           z      points  spacing
  1. axis:    yes   16.000000    0.000000    0.000000    80     0.2000
  2. axis:    yes    0.000000   16.000000    0.000000    80     0.2000
  3. axis:    yes    0.000000    0.000000   10.000000    48     0.2083

Effective grid spacing dv^(1/3) = 0.2027

                     log10-error:    total        iterations:
           time      wfs    density  energy       fermi  poisson
iter:   1  09:52:48          +inf  -155.734181    2      5      
iter:   2  09:52:48         -2.05  -155.701692    2      2      
iter:   3  09:52:49         -2.22  -155.694121    2      2      
iter:   4  09:52:50         -2.29  -155.682763    2      2      
iter:   5  09:52:50         -2.45  -155.677839    2      2      
iter:   6  09:52:51         -2.61  -155.675963    2      2      
iter:   7  09:52:51         -2.80  -155.674495    2      2      
iter:   8  09:52:52         -2.99  -155.673878    2      2      
iter:   9  09:52:53         -3.15  -155.674488    2      1      
iter:  10  09:52:53         -3.29  -155.673956    2      1      
iter:  11  09:52:54         -3.49  -155.672885    2      1      
iter:  12  09:52:54         -3.60  -155.672732    2      1      
iter:  13  09:52:55         -3.87  -155.672684    2      1      
iter:  14  09:52:55         -4.03  -155.673022    2      1      

Converged after 14 iterations.

Dipole moment: (-0.145588, -0.527975, -0.253757) |e|*Ang

Energy contributions relative to reference atoms: (reference = -24663.074771)

Kinetic:       +122.263685
Potential:     -113.975994
External:        +0.000000
XC:            -166.651634
Entropy (-ST):   -0.313524
Local:           +2.847683
--------------------------
Free energy:   -155.829784
Extrapolated:  -155.673022

Fermi level: -4.54299

 Band  Eigenvalues  Occupancy
    0    -28.72267    2.00000
    1    -23.43283    2.00000
    2    -22.61614    2.00000
    3    -21.08554    2.00000
    4    -20.50314    2.00000
    5    -20.19839    2.00000
    6    -19.50314    2.00000
    7    -19.38707    2.00000
    8    -18.97782    2.00000
    9    -18.79615    2.00000
   10    -17.86688    2.00000
   11    -17.04422    2.00000
   12    -16.57177    2.00000
   13    -16.19331    2.00000
   14    -15.79178    2.00000
   15    -15.61382    2.00000
   16    -14.21277    2.00000
   17    -13.93218    2.00000
   18    -13.41491    2.00000
   19    -13.20313    2.00000
   20    -12.62044    2.00000
   21    -12.42301    2.00000
   22    -12.23430    2.00000
   23    -11.66580    2.00000
   24    -10.80908    2.00000
   25    -10.38287    2.00000
   26    -10.16341    2.00000
   27     -9.63792    2.00000
   28     -9.36865    2.00000
   29     -9.06198    2.00000
   30     -8.93374    2.00000
   31     -8.54619    2.00000
   32     -8.46141    2.00000
   33     -8.21619    2.00000
   34     -7.92704    2.00000
   35     -7.83569    2.00000
   36     -7.65247    2.00000
   37     -7.33672    2.00000
   38     -6.75159    2.00000
   39     -6.44077    2.00000
   40     -6.33228    2.00000
   41     -6.08293    2.00000
   42     -5.63883    1.99997
   43     -5.59495    1.99995
   44     -5.43049    1.99972
   45     -5.25423    1.99837
   46     -4.77354    1.81867
   47     -4.70834    1.67874
   48     -4.35851    0.27298
   49     -4.32092    0.19582
   50     -4.13383    0.03288
   51     -3.87933    0.00262
   52     -3.65283    0.00027
   53     -3.36456    0.00002
   54     -3.27530    0.00001
   55     -2.85539    0.00000
   56     -2.30794    0.00000
   57     -2.24183    0.00000
   58     -1.67656    0.00000
   59     -1.45807    0.00000
   60     -1.14800    0.00000
   61     -0.72843    0.00000
   62     -0.70630    0.00000
   63      0.05161    0.00000
   64      0.59095    0.00000
   65      1.46020    0.00000
   66      1.55568    0.00000
   67      2.42208    0.00000
   68      2.82413    0.00000
   69      3.06478    0.00000
   70      3.36270    0.00000
   71      3.72518    0.00000
   72      4.46394    0.00000
   73      4.94942    0.00000
   74      5.12784    0.00000
   75      5.65760    0.00000
   76      6.34810    0.00000
   77      6.64523    0.00000
   78      6.75131    0.00000
   79      6.94139    0.00000
   80      7.37641    0.00000
   81      7.72990    0.00000
   82      7.83553    0.00000
   83      7.86025    0.00000
   84      8.18596    0.00000
   85      8.38449    0.00000
   86      8.44734    0.00000
   87      8.61681    0.00000
   88      8.64330    0.00000
   89      8.97383    0.00000
   90      9.20959    0.00000
   91      9.33135    0.00000
   92      9.44516    0.00000
   93      9.63014    0.00000
   94      9.76454    0.00000
   95      9.82710    0.00000
   96      9.93451    0.00000
   97      9.95288    0.00000


Forces in eV/Ang:
  0 C     4.01212    1.83303   -0.70953
  1 C    -3.70634   -4.18345    0.95229
  2 C    -2.35046   -5.69119    0.22720
  3 C    -3.47096   -3.19314   -1.07374
  4 C     0.98292   -2.12055    0.38258
  5 C    -0.01611    6.79361   -0.51475
  6 C    -0.39930    2.31459    0.86758
  7 C     0.06668   -1.46925   -0.07106
  8 C    -0.62012    5.72494  -28.62021
  9 C     1.38541    0.43888   -0.19344
 10 C    -0.89040   -3.72206   -1.06410
 11 C     0.74864    4.21589   -3.18129
 12 C     2.61181    6.36391   -1.08553
 13 C     0.39563    0.81680    1.27933
 14 C    -3.58406   -4.47063   -0.24450
 15 C    -4.28840    1.64487    0.62212
 16 C     9.75358   -8.65713   22.33379
 17 C     3.01690    4.11838    0.32799
 18 C    -8.01484   -1.12404    8.98259
 19 C     3.79217   -0.32768   -0.20183
 20 C     2.02504   -0.30541   -0.67262
 21 C     1.12823    0.75557    0.30328
 22 C    -2.16903   -0.97950    0.00783
 23 C    -0.37299    1.28021    1.36248

System changes: positions 

Initializing position-dependent things.

Density initialized from wave functions
           .--------------------------------------.  
          /|                                      |  
         / |                                      |  
        /  |                                      |  
       /   |                                      |  
      /    |                                      |  
     /     |                                      |  
    /      |                                      |  
   /       |                                      |  
  /        |           C                          |  
 *         |     C  C           CC                |  
 |         |  C          CC C C                   |  
 |         .-C-C---C-C--C--C--C-------------------.  
 |        /          C  C     C                  /   
 |       /             C  C                     /    
 |      /                                      /     
 |     /                                      /      
 |    /                                      /       
 |   /                                      /        
 |  /                                      /         
 | /                                      /          
 |/                                      /           
 *--------------------------------------*            

Positions:
   0 C      6.250628   10.591108    4.953466
   1 C      5.074679   10.049361    5.100181
   2 C      4.063491    9.198623    5.359168
   3 C      8.059019    9.116228    4.184074
   4 C     10.439011    9.410929    5.218510
   5 C      7.402811    7.904135    4.008162
   6 C      9.446332    8.819428    4.308779
   7 C     11.284030    6.990345    6.379629
   8 C      9.158263    6.364934    4.715882
   9 C     10.970478    8.037464    5.512554
  10 C      7.840076    6.698001    4.250786
  11 C      9.952366    7.510817    4.570561
  12 C      3.466499    7.645482    5.568767
  13 C     10.726681    5.237514    5.656665
  14 C      5.803370    6.121091    5.528958
  15 C      8.210358    3.202097    5.169936
  16 C      9.580749    6.144404    5.795014
  17 C      4.480348    5.556877    5.441654
  18 C      8.162230    6.272677    5.711875
  19 C      7.040712    3.890433    5.338312
  20 C      9.499995    3.317892    5.317549
  21 C      3.294207    6.330533    5.439146
  22 C      7.018368    5.344027    5.504028
  23 C     10.695175    3.908261    5.303017

Unit cell:
           periodic     x           y           z      points  spacing
  1. axis:    yes   16.000000    0.000000    0.000000    80     0.2000
  2. axis:    yes    0.000000   16.000000    0.000000    80     0.2000
  3. axis:    yes    0.000000    0.000000   10.000000    48     0.2083

Effective grid spacing dv^(1/3) = 0.2027

                     log10-error:    total        iterations:
           time      wfs    density  energy       fermi  poisson
iter:   1  09:52:57          +inf  -158.795163    3      5      
iter:   2  09:52:58         -1.69  -158.639085    3      2      
iter:   3  09:52:58         -1.84  -158.553786    3      2      
iter:   4  09:52:59         -2.10  -158.541144    2      2      
iter:   5  09:52:59         -2.26  -158.536555    2      2      
iter:   6  09:53:00         -2.36  -158.534670    2      2      
iter:   7  09:53:01         -2.48  -158.533643    2      2      
iter:   8  09:53:01         -2.67  -158.532579    2      2      
iter:   9  09:53:02         -2.90  -158.532240    2      2      
iter:  10  09:53:02         -3.10  -158.533363    2      1      
iter:  11  09:53:03         -3.31  -158.533141    2      1      
iter:  12  09:53:04         -3.46  -158.532584    2      1      
iter:  13  09:53:04         -3.55  -158.533140    2      1      
iter:  14  09:53:05         -3.82  -158.532293    2      1      
iter:  15  09:53:05         -3.91  -158.532114    1      1      
iter:  16  09:53:06         -3.99  -158.532210    2      1      
iter:  17  09:53:06         -4.14  -158.532011    2      1      

Converged after 17 iterations.

Dipole moment: (-0.112048, -0.577942, -0.252739) |e|*Ang

Energy contributions relative to reference atoms: (reference = -24663.074771)

Kinetic:       +109.702868
Potential:     -105.770439
External:        +0.000000
XC:            -165.199750
Entropy (-ST):   -0.281639
Local:           +2.876129
--------------------------
Free energy:   -158.672831
Extrapolated:  -158.532011

Fermi level: -4.53205

 Band  Eigenvalues  Occupancy
    0    -27.91098    2.00000
    1    -23.27612    2.00000
    2    -22.33341    2.00000
    3    -21.10427    2.00000
    4    -20.49491    2.00000
    5    -20.13868    2.00000
    6    -19.36175    2.00000
    7    -19.23172    2.00000
    8    -18.93337    2.00000
    9    -18.62121    2.00000
   10    -17.79314    2.00000
   11    -17.05768    2.00000
   12    -16.51324    2.00000
   13    -16.05742    2.00000
   14    -15.64163    2.00000
   15    -15.48269    2.00000
   16    -14.21270    2.00000
   17    -13.82142    2.00000
   18    -13.49140    2.00000
   19    -13.09098    2.00000
   20    -12.70197    2.00000
   21    -12.30632    2.00000
   22    -12.27436    2.00000
   23    -11.59961    2.00000
   24    -10.88935    2.00000
   25    -10.46071    2.00000
   26    -10.12359    2.00000
   27     -9.57426    2.00000
   28     -9.36949    2.00000
   29     -9.07709    2.00000
   30     -8.93363    2.00000
   31     -8.52882    2.00000
   32     -8.43085    2.00000
   33     -8.21033    2.00000
   34     -7.86801    2.00000
   35     -7.84614    2.00000
   36     -7.57747    2.00000
   37     -7.33007    2.00000
   38     -6.76452    2.00000
   39     -6.45006    2.00000
   40     -6.30310    2.00000
   41     -6.03444    2.00000
   42     -5.59945    1.99995
   43     -5.58535    1.99995
   44     -5.45455    1.99980
   45     -5.28929    1.99897
   46     -4.80001    1.87162
   47     -4.69984    1.68524
   48     -4.33994    0.25547
   49     -4.29502    0.17093
   50     -4.05264    0.01642
   51     -3.81318    0.00151
   52     -3.57158    0.00013
   53     -3.29080    0.00001
   54     -3.16011    0.00000
   55     -2.67131    0.00000
   56     -2.32319    0.00000
   57     -2.18658    0.00000
   58     -1.67898    0.00000
   59     -1.45068    0.00000
   60     -1.22032    0.00000
   61     -0.72794    0.00000
   62     -0.52357    0.00000
   63      0.12324    0.00000
   64      0.60594    0.00000
   65      1.45553    0.00000
   66      1.60761    0.00000
   67      2.39588    0.00000
   68      2.88396    0.00000
   69      3.28439    0.00000
   70      3.53953    0.00000
   71      3.76462    0.00000
   72      4.55597    0.00000
   73      4.91256    0.00000
   74      5.24996    0.00000
   75      5.67023    0.00000
   76      6.36009    0.00000
   77      6.67623    0.00000
   78      6.90191    0.00000
   79      7.01586    0.00000
   80      7.50065    0.00000
   81      7.67108    0.00000
   82      7.76262    0.00000
   83      7.93350    0.00000
   84      8.14755    0.00000
   85      8.38970    0.00000
   86      8.51549    0.00000
   87      8.55770    0.00000
   88      8.64939    0.00000
   89      8.96146    0.00000
   90      9.18886    0.00000
   91      9.33110    0.00000
   92      9.37550    0.00000
   93      9.60306    0.00000
   94      9.76369    0.00000
   95      9.82301    0.00000
   96      9.92592    0.00000
   97      9.98237    0.00000


Forces in eV/Ang:
  0 C     2.11971    0.94923   -0.49226
  1 C    -2.19108   -3.37816    0.76134
  2 C    -2.01958   -5.85330    0.20477
  3 C    -2.93680   -2.51491   -0.95912
  4 C     0.90205   -1.79912    0.45131
  5 C     0.33636    4.57743   -0.21552
  6 C    -0.40932    2.26837    0.81106
  7 C    -0.05407   -1.41960   -0.37994
  8 C    -0.91056    5.30861  -23.20099
  9 C     1.33785    0.04727   -0.06907
 10 C    -0.90565   -2.72313   -0.58880
 11 C     0.61455    3.95090   -3.04063
 12 C     2.49967    5.68045   -1.24412
 13 C     0.35148    1.22264    1.49869
 14 C    -3.12814   -4.34647   -0.25170
 15 C    -2.71989    1.38960    0.54231
 16 C     6.97972   -7.85413   18.47717
 17 C     2.38955    4.04093    0.29417
 18 C    -5.61765   -0.77917    6.59369
 19 C     3.39396   -0.16441   -0.09413
 20 C     1.12809   -0.36867   -0.67184
 21 C     1.20734    1.58352    0.40225
 22 C    -1.89151   -0.63458   -0.07951
 23 C    -0.50646    0.80759    1.16675

System changes: positions 

Initializing position-dependent things.

Density initialized from wave functions
           .--------------------------------------.  
          /|                                      |  
         / |                                      |  
        /  |                                      |  
       /   |                                      |  
      /    |                                      |  
     /     |                                      |  
    /      |                                      |  
   /       |                                      |  
  /        |           C                          |  
 *         |     C  C           CC                |  
 |         |  C          CC C C                   |  
 |         .-C-C---C-C--C--C--C-------------------.  
 |        /          C  C     C                  /   
 |       /             C  C                     /    
 |      /                                      /     
 |     /                                      /      
 |    /                                      /       
 |   /                                      /        
 |  /                                      /         
 | /                                      /          
 |/                                      /           
 *--------------------------------------*            

Positions:
   0 C      6.248682   10.590092    4.952158
   1 C      5.073667   10.034740    5.103393
   2 C      4.052871    9.160076    5.360329
   3 C      8.043577    9.104274    4.178843
   4 C     10.444116    9.401596    5.221918
   5 C      7.408070    7.916377    4.008943
   6 C      9.444411    8.834139    4.313567
   7 C     11.281861    6.981476    6.375067
   8 C      9.178638    6.379008    4.687235
   9 C     10.978757    8.035929    5.512448
  10 C      7.831728    6.690759    4.249564
  11 C      9.953903    7.532120    4.553712
  12 C      3.481378    7.676143    5.559729
  13 C     10.726674    5.248171    5.667838
  14 C      5.786838    6.094198    5.527364
  15 C      8.203436    3.209417    5.172826
  16 C      9.568995    6.118086    5.811227
  17 C      4.490932    5.582175    5.443143
  18 C      8.158012    6.269960    5.731161
  19 C      7.060232    3.890168    5.338270
  20 C      9.502104    3.315214    5.313674
  21 C      3.302465    6.346977    5.442556
  22 C      7.007149    5.342687    5.502965
  23 C     10.690475    3.908211    5.308198

Unit cell:
           periodic     x           y           z      points  spacing
  1. axis:    yes   16.000000    0.000000    0.000000    80     0.2000
  2. axis:    yes    0.000000   16.000000    0.000000    80     0.2000
  3. axis:    yes    0.000000    0.000000   10.000000    48     0.2083

Effective grid spacing dv^(1/3) = 0.2027

                     log10-error:    total        iterations:
           time      wfs    density  energy       fermi  poisson
iter:   1  09:53:08          +inf  -161.405857    3      5      
iter:   2  09:53:09         -1.65  -161.188270    3      2      
iter:   3  09:53:09         -1.84  -161.101628    3      2      
iter:   4  09:53:10         -2.02  -161.072361    3      2      
iter:   5  09:53:10         -2.18  -161.064667    3      2      
iter:   6  09:53:11         -2.36  -161.061798    3      2      
iter:   7  09:53:12         -2.53  -161.062226    2      2      
iter:   8  09:53:12         -2.65  -161.061020    2      2      
iter:   9  09:53:13         -2.88  -161.060850    2      2      
iter:  10  09:53:13         -3.02  -161.060746    2      2      
iter:  11  09:53:14         -3.33  -161.061029    2      1      
iter:  12  09:53:15         -3.41  -161.061843    2      1      
iter:  13  09:53:15         -3.53  -161.062291    2      1      
iter:  14  09:53:16         -3.66  -161.062001    2      1      
iter:  15  09:53:16         -3.99  -161.060962    2      1      
iter:  16  09:53:17         -4.06  -161.060599    2      1      

Converged after 16 iterations.

Dipole moment: (-0.061561, -0.635977, -0.244197) |e|*Ang

Energy contributions relative to reference atoms: (reference = -24663.074771)

Kinetic:       +103.242419
Potential:     -101.995853
External:        +0.000000
XC:            -165.060991
Entropy (-ST):   -0.264813
Local:           +2.886232
--------------------------
Free energy:   -161.193006
Extrapolated:  -161.060599

Fermi level: -4.52491

 Band  Eigenvalues  Occupancy
    0    -27.27791    2.00000
    1    -23.19341    2.00000
    2    -22.12705    2.00000
    3    -21.13471    2.00000
    4    -20.51456    2.00000
    5    -20.13080    2.00000
    6    -19.27620    2.00000
    7    -19.11214    2.00000
    8    -18.86768    2.00000
    9    -18.49953    2.00000
   10    -17.76351    2.00000
   11    -17.12761    2.00000
   12    -16.51571    2.00000
   13    -16.01778    2.00000
   14    -15.54477    2.00000
   15    -15.35131    2.00000
   16    -14.22935    2.00000
   17    -13.74887    2.00000
   18    -13.56218    2.00000
   19    -13.02301    2.00000
   20    -12.76784    2.00000
   21    -12.33261    2.00000
   22    -12.17184    2.00000
   23    -11.56610    2.00000
   24    -11.02928    2.00000
   25    -10.57229    2.00000
   26    -10.12709    2.00000
   27     -9.57843    2.00000
   28     -9.39635    2.00000
   29     -9.09904    2.00000
   30     -8.94177    2.00000
   31     -8.54062    2.00000
   32     -8.43008    2.00000
   33     -8.24140    2.00000
   34     -7.91022    2.00000
   35     -7.84062    2.00000
   36     -7.48831    2.00000
   37     -7.28145    2.00000
   38     -6.76284    2.00000
   39     -6.46970    2.00000
   40     -6.29329    2.00000
   41     -6.00541    2.00000
   42     -5.62121    1.99997
   43     -5.59501    1.99995
   44     -5.48266    1.99986
   45     -5.28673    1.99902
   46     -4.87785    1.94303
   47     -4.67012    1.62066
   48     -4.34137    0.27521
   49     -4.27515    0.15205
   50     -3.98830    0.00930
   51     -3.75255    0.00088
   52     -3.49563    0.00007
   53     -3.18284    0.00000
   54     -3.06852    0.00000
   55     -2.40688    0.00000
   56     -2.30634    0.00000
   57     -2.12014    0.00000
   58     -1.65026    0.00000
   59     -1.41023    0.00000
   60     -1.22984    0.00000
   61     -0.70001    0.00000
   62     -0.29492    0.00000
   63      0.29009    0.00000
   64      0.62193    0.00000
   65      1.52099    0.00000
   66      1.65301    0.00000
   67      2.52181    0.00000
   68      2.99149    0.00000
   69      3.49822    0.00000
   70      3.81361    0.00000
   71      4.00214    0.00000
   72      4.62599    0.00000
   73      4.87568    0.00000
   74      5.31888    0.00000
   75      5.64322    0.00000
   76      6.39286    0.00000
   77      6.73357    0.00000
   78      6.92952    0.00000
   79      7.14292    0.00000
   80      7.53872    0.00000
   81      7.60474    0.00000
   82      7.72927    0.00000
   83      8.02108    0.00000
   84      8.09151    0.00000
   85      8.41636    0.00000
   86      8.50075    0.00000
   87      8.57982    0.00000
   88      8.75582    0.00000
   89      8.93983    0.00000
   90      9.18899    0.00000
   91      9.30787    0.00000
   92      9.35711    0.00000
   93      9.57271    0.00000
   94      9.75581    0.00000
   95      9.79058    0.00000
   96      9.90468    0.00000
   97      9.98115    0.00000


Forces in eV/Ang:
  0 C     1.48443    0.54322   -0.46129
  1 C    -2.29411   -3.42652    0.86196
  2 C    -1.33005   -5.49863    0.10942
  3 C    -2.17683   -1.78234   -0.85513
  4 C     0.93034   -1.55080    0.56305
  5 C     0.15969    3.34462   -0.13659
  6 C    -0.57254    2.16093    0.65217
  7 C    -0.09333   -1.54638   -0.59601
  8 C    -0.23147    4.82034  -18.30533
  9 C     1.14849   -0.11728   -0.04644
 10 C    -0.67908   -2.40821   -0.21683
 11 C     0.51095    3.49290   -2.69910
 12 C     2.43850    5.46613   -1.32103
 13 C     0.37094    1.18683    1.52216
 14 C    -2.42504   -3.98624   -0.18717
 15 C    -2.09055    1.00294    0.37087
 16 C     4.74804   -6.73733   14.20184
 17 C     1.47175    3.85855    0.27403
 18 C    -4.73920   -0.86830    5.31097
 19 C     2.86868    0.14563    0.01096
 20 C     1.33562   -0.26137   -0.55931
 21 C     1.20263    1.83035    0.43023
 22 C    -1.40861   -0.42606   -0.09729
 23 C    -0.63014    0.68832    1.10199

System changes: positions 

Initializing position-dependent things.

Density initialized from wave functions
           .--------------------------------------.  
          /|                                      |  
         / |                                      |  
        /  |                                      |  
       /   |                                      |  
      /    |                                      |  
     /     |                                      |  
    /      |                                      |  
   /       |                                      |  
  /        |           C                          |  
 *         |     C  C           CC                |  
 |         | CC          CC C C                   |  
 |         .---C---C-C--C--C--C-------------------.  
 |        /          C  C    C                   /   
 |       /             C  C                     /    
 |      /                                      /     
 |     /                                      /      
 |    /                                      /       
 |   /                                      /        
 |  /                                      /         
 | /                                      /          
 |/                                      /           
 *--------------------------------------*            

Positions:
   0 C      6.245324   10.587037    4.950274
   1 C      5.065906   10.014616    5.108936
   2 C      4.048027    9.120844    5.360579
   3 C      8.033646    9.097664    4.173748
   4 C     10.450544    9.393019    5.226914
   5 C      7.410671    7.922705    4.009877
   6 C      9.439992    8.849536    4.317296
   7 C     11.279678    6.969776    6.368182
   8 C      9.199105    6.397449    4.663340
   9 C     10.986049    8.032984    5.512458
  10 C      7.825971    6.682046    4.251545
  11 C      9.955411    7.552579    4.537508
  12 C      3.498060    7.710869    5.548965
  13 C     10.727831    5.258710    5.680187
  14 C      5.774934    6.067474    5.526310
  15 C      8.198702    3.213804    5.174317
  16 C      9.552370    6.091506    5.820982
  17 C      4.494013    5.609050    5.444761
  18 C      8.150540    6.264865    5.747340
  19 C      7.077124    3.893230    5.339241
  20 C      9.509092    3.313572    5.310425
  21 C      3.311594    6.366032    5.446428
  22 C      6.999751    5.342517    5.501773
  23 C     10.684254    3.908893    5.314273

Unit cell:
           periodic     x           y           z      points  spacing
  1. axis:    yes   16.000000    0.000000    0.000000    80     0.2000
  2. axis:    yes    0.000000   16.000000    0.000000    80     0.2000
  3. axis:    yes    0.000000    0.000000   10.000000    48     0.2083

Effective grid spacing dv^(1/3) = 0.2027

                     log10-error:    total        iterations:
           time      wfs    density  energy       fermi  poisson
iter:   1  09:53:19          +inf  -163.477667    3      5      
iter:   2  09:53:19         -1.64  -163.210234    3      2      
iter:   3  09:53:20         -1.88  -163.131557    3      2      
iter:   4  09:53:20         -2.04  -163.097337    3      2      
iter:   5  09:53:21         -2.23  -163.091640    3      2      
iter:   6  09:53:22         -2.39  -163.089607    2      2      
iter:   7  09:53:22         -2.50  -163.088387    3      2      
iter:   8  09:53:23         -2.67  -163.088107    3      2      
iter:   9  09:53:23         -2.87  -163.087547    2      2      
iter:  10  09:53:24         -3.09  -163.088175    2      1      
iter:  11  09:53:24         -3.22  -163.088533    2      1      
iter:  12  09:53:25         -3.34  -163.088171    2      1      
iter:  13  09:53:26         -3.55  -163.088583    2      1      
iter:  14  09:53:26         -3.72  -163.087964    2      1      
iter:  15  09:53:27         -3.79  -163.088331    2      1      
iter:  16  09:53:27         -3.96  -163.088285    2      1      
iter:  17  09:53:28         -4.15  -163.087814    2      1      

Converged after 17 iterations.

Dipole moment: (-0.007375, -0.686457, -0.229815) |e|*Ang

Energy contributions relative to reference atoms: (reference = -24663.074771)

Kinetic:       +100.370772
Potential:     -100.775215
External:        +0.000000
XC:            -165.458014
Entropy (-ST):   -0.254731
Local:           +2.902009
--------------------------
Free energy:   -163.215179
Extrapolated:  -163.087814

Fermi level: -4.51402

 Band  Eigenvalues  Occupancy
    0    -26.75475    2.00000
    1    -23.13884    2.00000
    2    -21.97047    2.00000
    3    -21.16852    2.00000
    4    -20.53450    2.00000
    5    -20.14348    2.00000
    6    -19.26094    2.00000
    7    -19.00060    2.00000
    8    -18.82157    2.00000
    9    -18.39053    2.00000
   10    -17.75835    2.00000
   11    -17.18013    2.00000
   12    -16.54130    2.00000
   13    -16.00051    2.00000
   14    -15.48794    2.00000
   15    -15.21535    2.00000
   16    -14.26842    2.00000
   17    -13.70551    2.00000
   18    -13.60317    2.00000
   19    -13.00819    2.00000
   20    -12.81641    2.00000
   21    -12.33829    2.00000
   22    -12.05668    2.00000
   23    -11.56585    2.00000
   24    -11.16511    2.00000
   25    -10.66757    2.00000
   26    -10.13013    2.00000
   27     -9.60751    2.00000
   28     -9.42744    2.00000
   29     -9.10833    2.00000
   30     -8.94602    2.00000
   31     -8.56974    2.00000
   32     -8.44168    2.00000
   33     -8.28042    2.00000
   34     -7.95766    2.00000
   35     -7.83732    2.00000
   36     -7.41794    2.00000
   37     -7.24223    2.00000
   38     -6.75079    2.00000
   39     -6.49843    2.00000
   40     -6.28327    2.00000
   41     -5.96390    2.00000
   42     -5.64725    1.99998
   43     -5.59313    1.99996
   44     -5.48944    1.99988
   45     -5.27479    1.99901
   46     -4.93848    1.97172
   47     -4.64847    1.58643
   48     -4.34813    0.31982
   49     -4.23619    0.11701
   50     -3.92524    0.00553
   51     -3.70440    0.00061
   52     -3.43729    0.00004
   53     -3.08366    0.00000
   54     -2.93948    0.00000
   55     -2.27655    0.00000
   56     -2.20017    0.00000
   57     -1.99557    0.00000
   58     -1.62560    0.00000
   59     -1.35315    0.00000
   60     -1.21934    0.00000
   61     -0.64686    0.00000
   62     -0.17018    0.00000
   63      0.49262    0.00000
   64      0.62714    0.00000
   65      1.58361    0.00000
   66      1.69393    0.00000
   67      2.69509    0.00000
   68      3.09121    0.00000
   69      3.62194    0.00000
   70      3.89689    0.00000
   71      4.57129    0.00000
   72      4.69237    0.00000
   73      4.83200    0.00000
   74      5.40103    0.00000
   75      5.65822    0.00000
   76      6.43201    0.00000
   77      6.82604    0.00000
   78      6.94785    0.00000
   79      7.19703    0.00000
   80      7.45649    0.00000
   81      7.66309    0.00000
   82      7.71760    0.00000
   83      8.05446    0.00000
   84      8.11244    0.00000
   85      8.43303    0.00000
   86      8.49865    0.00000
   87      8.61461    0.00000
   88      8.87434    0.00000
   89      8.91890    0.00000
   90      9.20366    0.00000
   91      9.27822    0.00000
   92      9.39259    0.00000
   93      9.54570    0.00000
   94      9.73399    0.00000
   95      9.78042    0.00000
   96      9.88924    0.00000
   97     10.00980    0.00000


Forces in eV/Ang:
  0 C     0.60061    0.03847   -0.37076
  1 C    -1.66087   -2.97198    0.75581
  2 C    -0.96790   -5.05455    0.12110
  3 C    -1.69528   -1.27465   -0.76471
  4 C     0.93776   -1.40184    0.66179
  5 C     0.04528    2.41897   -0.07744
  6 C    -0.55049    2.02583    0.56071
  7 C    -0.10956   -1.70247   -0.81629
  8 C    -0.04308    4.27838  -14.84215
  9 C     0.97570   -0.20879   -0.00660
 10 C    -0.45379   -1.98450   -0.03073
 11 C     0.50638    3.20617   -2.31619
 12 C     2.22022    4.79236   -1.31312
 13 C     0.48885    1.29901    1.53823
 14 C    -1.83621   -3.55608   -0.14791
 15 C    -1.39605    0.72004    0.27998
 16 C     3.27966   -5.78408   11.15710
 17 C     0.82756    3.51703    0.26227
 18 C    -4.08893   -0.87271    4.43104
 19 C     2.47010    0.29319    0.07251
 20 C     0.94748   -0.36797   -0.52330
 21 C     1.02328    2.14861    0.40992
 22 C    -1.11413   -0.37971   -0.10928
 23 C    -0.44309    0.74863    1.09092

System changes: positions 

Initializing position-dependent things.

Density initialized from wave functions
           .--------------------------------------.  
          /|                                      |  
         / |                                      |  
        /  |                                      |  
       /   |                                      |  
      /    |                                      |  
     /     |                                      |  
    /      |                                      |  
   /       |                                      |  
  /        |           C                          |  
 *         |     C  C           CC                |  
 |         | CC          CC C C                   |  
 |         .---C---C-C--C--C--C-------------------.  
 |        /          C  C    C                   /   
 |       /             C  C                     /    
 |      /                                      /     
 |     /                                      /      
 |    /                                      /       
 |   /                                      /        
 |  /                                      /         
 | /                                      /          
 |/                                      /           
 *--------------------------------------*            

Positions:
   0 C      6.235890   10.579871    4.948657
   1 C      5.061527    9.995304    5.114240
   2 C      4.045026    9.080963    5.361281
   3 C      8.025810    9.093796    4.168542
   4 C     10.458246    9.383807    5.233622
   5 C      7.411549    7.925816    4.010865
   6 C      9.435367    8.865783    4.320863
   7 C     11.277522    6.954303    6.358425
   8 C      9.218133    6.417441    4.640218
   9 C     10.992683    8.029411    5.512784
  10 C      7.822438    6.673885    4.254601
  11 C      9.957969    7.574527    4.522443
  12 C      3.514927    7.744328    5.537129
  13 C     10.731264    5.271553    5.694137
  14 C      5.766405    6.041211    5.525480
  15 C      8.197618    3.216466    5.175385
  16 C      9.533148    6.065045    5.826759
  17 C      4.492442    5.636181    5.446638
  18 C      8.139668    6.258312    5.764059
  19 C      7.093272    3.897793    5.340758
  20 C      9.513372    3.310127    5.306804
  21 C      3.319589    6.389794    5.450314
  22 C      6.993687    5.341611    5.500460
  23 C     10.680261    3.912302    5.321976

Unit cell:
           periodic     x           y           z      points  spacing
  1. axis:    yes   16.000000    0.000000    0.000000    80     0.2000
  2. axis:    yes    0.000000   16.000000    0.000000    80     0.2000
  3. axis:    yes    0.000000    0.000000   10.000000    48     0.2083

Effective grid spacing dv^(1/3) = 0.2027

                     log10-error:    total        iterations:
           time      wfs    density  energy       fermi  poisson
iter:   1  09:53:30          +inf  -165.256559    3      5      
iter:   2  09:53:30         -1.61  -164.911499    3      2      
iter:   3  09:53:31         -1.91  -164.837149    3      2      
iter:   4  09:53:31         -2.06  -164.803144    3      2      
iter:   5  09:53:32         -2.25  -164.796835    3      2      
iter:   6  09:53:32         -2.37  -164.793813    2      2      
iter:   7  09:53:33         -2.51  -164.792101    3      2      
iter:   8  09:53:34         -2.68  -164.791846    3      2      
iter:   9  09:53:34         -2.88  -164.791745    2      2      
iter:  10  09:53:35         -3.08  -164.792044    2      1      
iter:  11  09:53:35         -3.19  -164.792223    2      1      
iter:  12  09:53:36         -3.35  -164.791702    1      1      
iter:  13  09:53:36         -3.62  -164.792154    2      1      
iter:  14  09:53:37         -3.70  -164.792452    2      1      
iter:  15  09:53:38         -3.78  -164.793188    2      1      
iter:  16  09:53:38         -4.00  -164.791693    2      1      
iter:  17  09:53:39         -4.08  -164.791521    2      1      

Converged after 17 iterations.

Dipole moment: (0.045801, -0.731800, -0.213854) |e|*Ang

Energy contributions relative to reference atoms: (reference = -24663.074771)

Kinetic:        +99.740891
Potential:     -101.128520
External:        +0.000000
XC:            -166.195157
Entropy (-ST):   -0.246828
Local:           +2.914679
--------------------------
Free energy:   -164.914935
Extrapolated:  -164.791521

Fermi level: -4.51459

 Band  Eigenvalues  Occupancy
    0    -26.27649    2.00000
    1    -23.11256    2.00000
    2    -21.84643    2.00000
    3    -21.19706    2.00000
    4    -20.54850    2.00000
    5    -20.17830    2.00000
    6    -19.28065    2.00000
    7    -18.92551    2.00000
    8    -18.77574    2.00000
    9    -18.29125    2.00000
   10    -17.76627    2.00000
   11    -17.24326    2.00000
   12    -16.58445    2.00000
   13    -16.00422    2.00000
   14    -15.45418    2.00000
   15    -15.09645    2.00000
   16    -14.28458    2.00000
   17    -13.69032    2.00000
   18    -13.61750    2.00000
   19    -13.02410    2.00000
   20    -12.83936    2.00000
   21    -12.31083    2.00000
   22    -11.95408    2.00000
   23    -11.59506    2.00000
   24    -11.27357    2.00000
   25    -10.76232    2.00000
   26    -10.14338    2.00000
   27     -9.65538    2.00000
   28     -9.47786    2.00000
   29     -9.10460    2.00000
   30     -8.93728    2.00000
   31     -8.61675    2.00000
   32     -8.46668    2.00000
   33     -8.34071    2.00000
   34     -8.00196    2.00000
   35     -7.83907    2.00000
   36     -7.36885    2.00000
   37     -7.20452    2.00000
   38     -6.73027    2.00000
   39     -6.52329    2.00000
   40     -6.27830    2.00000
   41     -5.92188    2.00000
   42     -5.68424    1.99998
   43     -5.59361    1.99996
   44     -5.48912    1.99988
   45     -5.25786    1.99882
   46     -4.97752    1.98067
   47     -4.64520    1.57372
   48     -4.36425    0.36384
   49     -4.19601    0.07941
   50     -3.87203    0.00323
   51     -3.67510    0.00045
   52     -3.40066    0.00003
   53     -3.03589    0.00000
   54     -2.76690    0.00000
   55     -2.22963    0.00000
   56     -2.15534    0.00000
   57     -1.75879    0.00000
   58     -1.56252    0.00000
   59     -1.27542    0.00000
   60     -1.16910    0.00000
   61     -0.54783    0.00000
   62     -0.10097    0.00000
   63      0.62127    0.00000
   64      0.71708    0.00000
   65      1.64544    0.00000
   66      1.73634    0.00000
   67      2.89447    0.00000
   68      3.20061    0.00000
   69      3.62778    0.00000
   70      3.93899    0.00000
   71      4.65029    0.00000
   72      4.79870    0.00000
   73      5.23330    0.00000
   74      5.52215    0.00000
   75      5.74570    0.00000
   76      6.49212    0.00000
   77      6.90136    0.00000
   78      6.96740    0.00000
   79      7.25617    0.00000
   80      7.39093    0.00000
   81      7.69406    0.00000
   82      7.74701    0.00000
   83      8.05042    0.00000
   84      8.18849    0.00000
   85      8.43225    0.00000
   86      8.52609    0.00000
   87      8.63626    0.00000
   88      8.89640    0.00000
   89      8.95554    0.00000
   90      9.22228    0.00000
   91      9.24711    0.00000
   92      9.44820    0.00000
   93      9.53633    0.00000
   94      9.72229    0.00000
   95      9.78309    0.00000
   96      9.88090    0.00000
   97     10.06566    0.00000


Forces in eV/Ang:
  0 C     0.20050   -0.27453   -0.33434
  1 C    -1.44779   -2.71345    0.67878
  2 C    -0.39795   -3.96263    0.03417
  3 C    -1.31310   -0.92140   -0.68630
  4 C     0.91787   -1.25218    0.70723
  5 C    -0.02347    1.74318   -0.01970
  6 C    -0.60586    1.97005    0.52655
  7 C    -0.12392   -1.84546   -1.01913
  8 C    -0.07290    3.64130  -11.99716
  9 C     0.87702   -0.31709    0.08078
 10 C    -0.21804   -1.55398    0.07499
 11 C     0.51398    2.86548   -2.00789
 12 C     1.81820    3.82924   -1.19148
 13 C     0.63622    1.38533    1.52437
 14 C    -1.47276   -3.10474   -0.12075
 15 C    -1.00894    0.48343    0.19693
 16 C     2.14523   -4.84996    8.51643
 17 C     0.35497    3.14244    0.24328
 18 C    -3.47917   -0.89754    3.76610
 19 C     2.12148    0.37107    0.10946
 20 C     1.02711   -0.32327   -0.46747
 21 C     0.81323    2.14992    0.37570
 22 C    -0.87162   -0.43421   -0.08209
 23 C    -0.43218    0.78008    1.10195

System changes: positions 

Initializing position-dependent things.

Density initialized from wave functions
           .--------------------------------------.  
          /|                                      |  
         / |                                      |  
        /  |                                      |  
       /   |                                      |  
      /    |                                      |  
     /     |                                      |  
    /      |                                      |  
   /       |                                      |  
  /        |           C                          |  
 *         |     C  C           CC                |  
 |         | CC          CC C C                   |  
 |         .---C---C-C--C---C-C-------------------.  
 |        /          C  C    C                   /   
 |       /             C  C                     /    
 |      /                                      /     
 |     /                                      /      
 |    /                                      /       
 |   /                                      /        
 |  /                                      /         
 | /                                      /          
 |/                                      /           
 *--------------------------------------*            

Positions:
   0 C      6.223178   10.568554    4.946410
   1 C      5.055077    9.971001    5.120550
   2 C      4.047595    9.043396    5.360997
   3 C      8.018154    9.090854    4.162188
   4 C     10.468383    9.372529    5.242856
   5 C      7.411592    7.927100    4.012403
   6 C      9.428334    8.887296    4.325730
   7 C     11.274867    6.931666    6.343334
   8 C      9.236136    6.440411    4.612863
   9 C     11.000869    8.023733    5.514442
  10 C      7.821059    6.666162    4.258768
  11 C      9.962249    7.600990    4.505011
  12 C      3.532018    7.777008    5.523484
  13 C     10.738444    5.289512    5.712332
  14 C      5.757328    6.011195    5.524579
  15 C      8.197430    3.217951    5.176140
  16 C      9.508191    6.035154    5.828171
  17 C      4.486903    5.667989    5.449010
  18 C      8.125140    6.248780    5.785083
  19 C      7.111807    3.904110    5.342943
  20 C      9.522037    3.306324    5.302437
  21 C      3.327294    6.419351    5.454827
  22 C      6.987639    5.338431    5.499309
  23 C     10.675131    3.918571    5.333172

Unit cell:
           periodic     x           y           z      points  spacing
  1. axis:    yes   16.000000    0.000000    0.000000    80     0.2000
  2. axis:    yes    0.000000   16.000000    0.000000    80     0.2000
  3. axis:    yes    0.000000    0.000000   10.000000    48     0.2083

Effective grid spacing dv^(1/3) = 0.2027

                     log10-error:    total        iterations:
           time      wfs    density  energy       fermi  poisson
iter:   1  09:53:41          +inf  -167.040795    3      5      
iter:   2  09:53:41         -1.56  -166.548416    3      2      
iter:   3  09:53:42         -1.86  -166.446333    2      2      
iter:   4  09:53:42         -2.03  -166.416938    3      2      
iter:   5  09:53:43         -2.19  -166.401974    3      2      
iter:   6  09:53:44         -2.32  -166.397892    2      2      
iter:   7  09:53:44         -2.47  -166.395434    2      2      
iter:   8  09:53:45         -2.63  -166.394416    2      2      
iter:   9  09:53:45         -2.88  -166.395003    2      2      
iter:  10  09:53:46         -3.03  -166.395234    2      1      
iter:  11  09:53:46         -3.15  -166.395602    2      1      
iter:  12  09:53:47         -3.34  -166.394805    2      1      
iter:  13  09:53:48         -3.55  -166.395274    2      1      
iter:  14  09:53:48         -3.66  -166.396171    2      1      
iter:  15  09:53:49         -3.78  -166.395516    2      1      
iter:  16  09:53:49         -3.89  -166.394963    2      1      
iter:  17  09:53:50         -4.19  -166.394979    2      1      

Converged after 17 iterations.

Dipole moment: (0.084827, -0.762502, -0.193283) |e|*Ang

Energy contributions relative to reference atoms: (reference = -24663.074771)

Kinetic:       +100.973208
Potential:     -102.875899
External:        +0.000000
XC:            -167.304476
Entropy (-ST):   -0.234474
Local:           +2.929425
--------------------------
Free energy:   -166.512217
Extrapolated:  -166.394979

Fermi level: -4.51236

 Band  Eigenvalues  Occupancy
    0    -25.77199    2.00000
    1    -23.07066    2.00000
    2    -21.72034    2.00000
    3    -21.20603    2.00000
    4    -20.55843    2.00000
    5    -20.23648    2.00000
    6    -19.31789    2.00000
    7    -18.91331    2.00000
    8    -18.72339    2.00000
    9    -18.17906    2.00000
   10    -17.77574    2.00000
   11    -17.29580    2.00000
   12    -16.60739    2.00000
   13    -16.03190    2.00000
   14    -15.40959    2.00000
   15    -14.99106    2.00000
   16    -14.29953    2.00000
   17    -13.70908    2.00000
   18    -13.59298    2.00000
   19    -13.05516    2.00000
   20    -12.83316    2.00000
   21    -12.24791    2.00000
   22    -11.85533    2.00000
   23    -11.64759    2.00000
   24    -11.33964    2.00000
   25    -10.85259    2.00000
   26    -10.16162    2.00000
   27     -9.70248    2.00000
   28     -9.54015    2.00000
   29     -9.08198    2.00000
   30     -8.90369    2.00000
   31     -8.69531    2.00000
   32     -8.51841    2.00000
   33     -8.41277    2.00000
   34     -8.03349    2.00000
   35     -7.84866    2.00000
   36     -7.35984    2.00000
   37     -7.19357    2.00000
   38     -6.70606    2.00000
   39     -6.54623    2.00000
   40     -6.27247    2.00000
   41     -5.87301    2.00000
   42     -5.71482    1.99999
   43     -5.61318    1.99997
   44     -5.47071    1.99986
   45     -5.21943    1.99830
   46     -4.98173    1.98186
   47     -4.64591    1.58350
   48     -4.37244    0.39587
   49     -4.11996    0.03876
   50     -3.79344    0.00151
   51     -3.65181    0.00037
   52     -3.35077    0.00002
   53     -2.99502    0.00000
   54     -2.55317    0.00000
   55     -2.18186    0.00000
   56     -2.14324    0.00000
   57     -1.70833    0.00000
   58     -1.29179    0.00000
   59     -1.19686    0.00000
   60     -1.06218    0.00000
   61     -0.35912    0.00000
   62     -0.03887    0.00000
   63      0.62215    0.00000
   64      0.94566    0.00000
   65      1.68787    0.00000
   66      1.81847    0.00000
   67      3.06795    0.00000
   68      3.29503    0.00000
   69      3.61231    0.00000
   70      3.95373    0.00000
   71      4.63012    0.00000
   72      4.79064    0.00000
   73      5.55731    0.00000
   74      5.75919    0.00000
   75      6.10734    0.00000
   76      6.58879    0.00000
   77      6.94812    0.00000
   78      7.01858    0.00000
   79      7.31911    0.00000
   80      7.35168    0.00000
   81      7.70412    0.00000
   82      7.84113    0.00000
   83      8.12469    0.00000
   84      8.28449    0.00000
   85      8.44417    0.00000
   86      8.57193    0.00000
   87      8.68333    0.00000
   88      8.87903    0.00000
   89      9.00720    0.00000
   90      9.21353    0.00000
   91      9.27365    0.00000
   92      9.47265    0.00000
   93      9.58044    0.00000
   94      9.73000    0.00000
   95      9.79982    0.00000
   96      9.89004    0.00000
   97     10.12369    0.00000


Forces in eV/Ang:
  0 C    -0.06727   -0.49702   -0.28698
  1 C    -1.05653   -2.28140    0.56156
  2 C     0.23020   -2.21818   -0.13697
  3 C    -0.99205   -0.59122   -0.60992
  4 C     0.87075   -1.10351    0.75167
  5 C    -0.08806    1.15886    0.03592
  6 C    -0.50301    1.74639    0.51447
  7 C    -0.11019   -2.05192   -1.26708
  8 C    -0.15870    2.95210   -9.25475
  9 C     0.75281   -0.45557    0.15764
 10 C    -0.02564   -1.10227    0.14688
 11 C     0.45285    2.44483   -1.62913
 12 C     1.05668    2.20877   -0.91449
 13 C     0.68804    1.61315    1.55992
 14 C    -1.13799   -2.63978   -0.10620
 15 C    -0.45714    0.26224    0.13618
 16 C     1.35476   -3.80419    5.94122
 17 C     0.07079    2.65613    0.21087
 18 C    -2.95032   -0.86488    3.08197
 19 C     1.75937    0.32411    0.12172
 20 C     0.80004   -0.34851   -0.41348
 21 C     0.47296    2.07572    0.32186
 22 C    -0.68573   -0.45004   -0.00812
 23 C    -0.28268    0.92640    1.13568

System changes: positions 

Initializing position-dependent things.

Density initialized from wave functions
           .--------------------------------------.  
          /|                                      |  
         / |                                      |  
        /  |                                      |  
       /   |                                      |  
      /    |                                      |  
     /     |                                      |  
    /      |                                      |  
   /       |                                      |  
  /        |           C                          |  
 *         |     C  C           CC                |  
 |         | C C         CC C C                   |  
 |         .---C---C-C--C---C-CC------------------.  
 |        /          C  C    C                   /   
 |       /             C  C                     /    
 |      /                                      /     
 |     /                                      /      
 |    /                                      /       
 |   /                                      /        
 |  /                                      /         
 | /                                      /          
 |/                                      /           
 *--------------------------------------*            

Positions:
   0 C      6.210094   10.555402    4.943896
   1 C      5.049562    9.946189    5.126820
   2 C      4.056180    9.019966    5.358584
   3 C      8.010554    9.088836    4.155226
   4 C     10.479660    9.360217    5.253768
   5 C      7.410907    7.927517    4.014344
   6 C      9.421734    8.909774    4.331724
   7 C     11.272313    6.903123    6.323708
   8 C      9.251479    6.463518    4.584042
   9 C     11.009516    8.016033    5.517074
  10 C      7.821186    6.659810    4.263295
  11 C      9.966795    7.628456    4.487694
  12 C      3.543021    7.797345    5.511308
  13 C     10.747201    5.312885    5.733855
  14 C      5.748130    5.980115    5.523515
  15 C      8.200533    3.218364    5.176816
  16 C      9.483650    6.006204    5.824688
  17 C      4.480516    5.700258    5.451471
  18 C      8.107566    6.237968    5.807863
  19 C      7.130904    3.909923    5.345270
  20 C      9.530002    3.301559    5.297706
  21 C      3.332379    6.451116    5.459337
  22 C      6.981362    5.333993    5.499043
  23 C     10.671147    3.928549    5.347080

Unit cell:
           periodic     x           y           z      points  spacing
  1. axis:    yes   16.000000    0.000000    0.000000    80     0.2000
  2. axis:    yes    0.000000   16.000000    0.000000    80     0.2000
  3. axis:    yes    0.000000    0.000000   10.000000    48     0.2083

Effective grid spacing dv^(1/3) = 0.2027

                     log10-error:    total        iterations:
           time      wfs    density  energy       fermi  poisson
iter:   1  09:53:52          +inf  -168.276572    3      5      
iter:   2  09:53:52         -1.57  -167.813351    2      2      
iter:   3  09:53:53         -1.88  -167.718448    2      2      
iter:   4  09:53:53         -2.09  -167.699353    2      2      
iter:   5  09:53:54         -2.23  -167.682183    2      2      
iter:   6  09:53:55         -2.37  -167.678835    2      2      
iter:   7  09:53:55         -2.53  -167.677230    2      2      
iter:   8  09:53:56         -2.70  -167.676151    2      2      
iter:   9  09:53:56         -2.97  -167.674684    2      1      
iter:  10  09:53:57         -3.08  -167.676948    2      1      
iter:  11  09:53:57         -3.23  -167.677978    2      1      
iter:  12  09:53:58         -3.43  -167.675735    2      1      
iter:  13  09:53:59         -3.60  -167.677546    2      1      
iter:  14  09:53:59         -3.68  -167.678240    2      1      
iter:  15  09:54:00         -3.79  -167.677572    2      1      
iter:  16  09:54:00         -4.05  -167.677209    2      1      

Converged after 16 iterations.

Dipole moment: (0.084161, -0.754186, -0.171165) |e|*Ang

Energy contributions relative to reference atoms: (reference = -24663.074771)

Kinetic:       +103.155844
Potential:     -105.185802
External:        +0.000000
XC:            -168.479265
Entropy (-ST):   -0.224481
Local:           +2.944254
--------------------------
Free energy:   -167.789449
Extrapolated:  -167.677209

Fermi level: -4.50220

 Band  Eigenvalues  Occupancy
    0    -25.30216    2.00000
    1    -23.01426    2.00000
    2    -21.61254    2.00000
    3    -21.18269    2.00000
    4    -20.57653    2.00000
    5    -20.28931    2.00000
    6    -19.36869    2.00000
    7    -18.96016    2.00000
    8    -18.66018    2.00000
    9    -18.05696    2.00000
   10    -17.80484    2.00000
   11    -17.31871    2.00000
   12    -16.59624    2.00000
   13    -16.08006    2.00000
   14    -15.36866    2.00000
   15    -14.91995    2.00000
   16    -14.33861    2.00000
   17    -13.72882    2.00000
   18    -13.54799    2.00000
   19    -13.09304    2.00000
   20    -12.79150    2.00000
   21    -12.17578    2.00000
   22    -11.80580    2.00000
   23    -11.68202    2.00000
   24    -11.36049    2.00000
   25    -10.90142    2.00000
   26    -10.19163    2.00000
   27     -9.71913    2.00000
   28     -9.59798    2.00000
   29     -9.04059    2.00000
   30     -8.85424    2.00000
   31     -8.79960    2.00000
   32     -8.60272    2.00000
   33     -8.46722    2.00000
   34     -8.03562    2.00000
   35     -7.86790    2.00000
   36     -7.38690    2.00000
   37     -7.21306    2.00000
   38     -6.68830    2.00000
   39     -6.54336    2.00000
   40     -6.27569    2.00000
   41     -5.83950    2.00000
   42     -5.74213    1.99999
   43     -5.63900    1.99998
   44     -5.44501    1.99984
   45     -5.16128    1.99726
   46     -4.94831    1.97716
   47     -4.64301    1.60691
   48     -4.36416    0.40187
   49     -4.01990    0.01596
   50     -3.70913    0.00072
   51     -3.62223    0.00030
   52     -3.28138    0.00001
   53     -2.95024    0.00000
   54     -2.34912    0.00000
   55     -2.16949    0.00000
   56     -2.08060    0.00000
   57     -1.72312    0.00000
   58     -1.11295    0.00000
   59     -1.07414    0.00000
   60     -0.96637    0.00000
   61     -0.09187    0.00000
   62      0.04575    0.00000
   63      0.62617    0.00000
   64      1.13591    0.00000
   65      1.71430    0.00000
   66      1.92858    0.00000
   67      3.09161    0.00000
   68      3.28282    0.00000
   69      3.71090    0.00000
   70      4.00751    0.00000
   71      4.61256    0.00000
   72      4.80153    0.00000
   73      5.72524    0.00000
   74      5.95640    0.00000
   75      6.52676    0.00000
   76      6.69364    0.00000
   77      6.92474    0.00000
   78      7.10245    0.00000
   79      7.29590    0.00000
   80      7.44251    0.00000
   81      7.74924    0.00000
   82      7.93829    0.00000
   83      8.25317    0.00000
   84      8.38776    0.00000
   85      8.50453    0.00000
   86      8.61106    0.00000
   87      8.77744    0.00000
   88      8.87324    0.00000
   89      9.05198    0.00000
   90      9.21069    0.00000
   91      9.30861    0.00000
   92      9.48818    0.00000
   93      9.62249    0.00000
   94      9.76689    0.00000
   95      9.82433    0.00000
   96      9.91876    0.00000
   97     10.15288    0.00000


Forces in eV/Ang:
  0 C    -0.09468   -0.54014   -0.27307
  1 C    -0.63104   -1.80047    0.40905
  2 C     0.53474   -0.84176   -0.19406
  3 C    -0.69114   -0.29697   -0.53958
  4 C     0.77851   -0.94984    0.74235
  5 C    -0.14629    0.68516    0.08172
  6 C    -0.46598    1.57506    0.53149
  7 C    -0.11160   -2.22814   -1.50282
  8 C    -0.31138    2.20761   -6.94687
  9 C     0.61840   -0.63941    0.22608
 10 C     0.11686   -0.67549    0.20262
 11 C     0.38650    1.96126   -1.31511
 12 C     0.38600    1.08317   -0.61174
 13 C     0.67822    1.75402    1.59108
 14 C    -0.95053   -2.16787   -0.07160
 15 C    -0.07877    0.07038    0.06750
 16 C     0.83627   -2.78983    3.72082
 17 C    -0.10871    2.09342    0.19570
 18 C    -2.38596   -0.80619    2.48011
 19 C     1.37865    0.22752    0.10192
 20 C     0.91299   -0.24298   -0.33702
 21 C     0.11072    1.70694    0.22889
 22 C    -0.48857   -0.50141    0.07604
 23 C    -0.27259    1.04303    1.16061

System changes: positions 

Initializing position-dependent things.

Density initialized from wave functions
           .--------------------------------------.  
          /|                                      |  
         / |                                      |  
        /  |                                      |  
       /   |                                      |  
      /    |                                      |  
     /     |                                      |  
    /      |                                      |  
   /       |                                      |  
  /        |           C                          |  
 *         |     C  C           CC                |  
 |         | C C         CC C C                   |  
 |         .---C---C-C--C---C-CC------------------.  
 |        /          C  C    C                   /   
 |       /             C  C                     /    
 |      /                                      /     
 |     /                                      /      
 |    /                                      /       
 |   /                                      /        
 |  /                                      /         
 | /                                      /          
 |/                                      /           
 *--------------------------------------*            

Positions:
   0 C      6.199470   10.542946    4.940931
   1 C      5.046564    9.923560    5.132076
   2 C      4.066527    9.007846    5.355683
   3 C      8.003887    9.088102    4.148120
   4 C     10.490770    9.347942    5.265086
   5 C      7.409583    7.926975    4.016585
   6 C      9.415013    8.932474    4.338783
   7 C     11.269747    6.870613    6.300545
   8 C      9.262569    6.483792    4.555207
   9 C     11.017789    8.005919    5.520507
  10 C      7.822390    6.655608    4.268024
  11 C      9.971210    7.653961    4.471082
  12 C      3.548164    7.809854    5.501689
  13 C     10.756293    5.339296    5.757432
  14 C      5.738063    5.950448    5.522669
  15 C      8.205419    3.217687    5.177126
  16 C      9.462180    5.980902    5.816513
  17 C      4.474208    5.729617    5.454084
  18 C      8.089907    6.226926    5.830554
  19 C      7.148606    3.914414    5.347257
  20 C      9.541110    3.297877    5.293269
  21 C      3.334061    6.479585    5.463045
  22 C      6.975808    5.328195    5.499802
  23 C     10.666683    3.941145    5.362694

Unit cell:
           periodic     x           y           z      points  spacing
  1. axis:    yes   16.000000    0.000000    0.000000    80     0.2000
  2. axis:    yes    0.000000   16.000000    0.000000    80     0.2000
  3. axis:    yes    0.000000    0.000000   10.000000    48     0.2083

Effective grid spacing dv^(1/3) = 0.2027

                     log10-error:    total        iterations:
           time      wfs    density  energy       fermi  poisson
iter:   1  09:54:02          +inf  -169.119483    2      5      
iter:   2  09:54:03         -1.62  -168.782408    2      2      
iter:   3  09:54:03         -1.94  -168.713206    2      2      
iter:   4  09:54:04         -2.15  -168.693939    3      2      
iter:   5  09:54:04         -2.30  -168.683721    2      2      
iter:   6  09:54:05         -2.42  -168.680033    3      2      
iter:   7  09:54:06         -2.60  -168.678972    2      2      
iter:   8  09:54:06         -2.82  -168.678779    2      2      
iter:   9  09:54:07         -3.05  -168.677568    2      1      
iter:  10  09:54:07         -3.21  -168.678065    2      1      
iter:  11  09:54:08         -3.36  -168.680199    2      1      
iter:  12  09:54:08         -3.55  -168.680285    2      1      
iter:  13  09:54:09         -3.63  -168.679763    2      1      
iter:  14  09:54:10         -3.66  -168.679892    2      1      
iter:  15  09:54:10         -3.79  -168.679128    2      1      
iter:  16  09:54:11         -3.98  -168.678931    2      1      
iter:  17  09:54:11         -4.08  -168.678891    2      1      

Converged after 17 iterations.

Dipole moment: (0.075535, -0.725625, -0.147507) |e|*Ang

Energy contributions relative to reference atoms: (reference = -24663.074771)

Kinetic:       +105.070209
Potential:     -107.106181
External:        +0.000000
XC:            -169.484452
Entropy (-ST):   -0.221208
Local:           +2.952137
--------------------------
Free energy:   -168.789495
Extrapolated:  -168.678891

Fermi level: -4.48571

 Band  Eigenvalues  Occupancy
    0    -24.92034    2.00000
    1    -22.94256    2.00000
    2    -21.53639    2.00000
    3    -21.14190    2.00000
    4    -20.61855    2.00000
    5    -20.29866    2.00000
    6    -19.41721    2.00000
    7    -19.01168    2.00000
    8    -18.60887    2.00000
    9    -17.94935    2.00000
   10    -17.84415    2.00000
   11    -17.31708    2.00000
   12    -16.56503    2.00000
   13    -16.12738    2.00000
   14    -15.33556    2.00000
   15    -14.88725    2.00000
   16    -14.38481    2.00000
   17    -13.74783    2.00000
   18    -13.50792    2.00000
   19    -13.11755    2.00000
   20    -12.73523    2.00000
   21    -12.12797    2.00000
   22    -11.84309    2.00000
   23    -11.65435    2.00000
   24    -11.36183    2.00000
   25    -10.91259    2.00000
   26    -10.25342    2.00000
   27     -9.70486    2.00000
   28     -9.64087    2.00000
   29     -8.99846    2.00000
   30     -8.89947    2.00000
   31     -8.83702    2.00000
   32     -8.64690    2.00000
   33     -8.50111    2.00000
   34     -8.01502    2.00000
   35     -7.88883    2.00000
   36     -7.42337    2.00000
   37     -7.23712    2.00000
   38     -6.67767    2.00000
   39     -6.53090    2.00000
   40     -6.28742    2.00000
   41     -5.82111    2.00000
   42     -5.77330    1.99999
   43     -5.65715    1.99998
   44     -5.42403    1.99983
   45     -5.10093    1.99575
   46     -4.89381    1.96678
   47     -4.63404    1.63015
   48     -4.34707    0.39997
   49     -3.91865    0.00687
   50     -3.66201    0.00053
   51     -3.52583    0.00014
   52     -3.20663    0.00001
   53     -2.91241    0.00000
   54     -2.22113    0.00000
   55     -2.16710    0.00000
   56     -1.98793    0.00000
   57     -1.71559    0.00000
   58     -1.03164    0.00000
   59     -0.94928    0.00000
   60     -0.90121    0.00000
   61     -0.01669    0.00000
   62      0.36832    0.00000
   63      0.63596    0.00000
   64      1.27201    0.00000
   65      1.73716    0.00000
   66      2.04150    0.00000
   67      2.97535    0.00000
   68      3.33604    0.00000
   69      3.74161    0.00000
   70      4.14609    0.00000
   71      4.61333    0.00000
   72      4.79572    0.00000
   73      5.84941    0.00000
   74      6.16340    0.00000
   75      6.69610    0.00000
   76      6.76507    0.00000
   77      6.92408    0.00000
   78      7.19757    0.00000
   79      7.31552    0.00000
   80      7.48382    0.00000
   81      7.85212    0.00000
   82      8.03166    0.00000
   83      8.33078    0.00000
   84      8.46167    0.00000
   85      8.62662    0.00000
   86      8.66157    0.00000
   87      8.83963    0.00000
   88      8.93241    0.00000
   89      9.11368    0.00000
   90      9.21588    0.00000
   91      9.34068    0.00000
   92      9.50912    0.00000
   93      9.66789    0.00000
   94      9.81156    0.00000
   95      9.84709    0.00000
   96      9.95436    0.00000
   97     10.16368    0.00000


Forces in eV/Ang:
  0 C     0.02650   -0.47949   -0.28016
  1 C    -0.22502   -1.29614    0.26375
  2 C     0.48656   -0.16624   -0.19267
  3 C    -0.47352   -0.07128   -0.45467
  4 C     0.69674   -0.80363    0.72719
  5 C    -0.17628    0.39317    0.12177
  6 C    -0.36587    1.35356    0.58129
  7 C    -0.07812   -2.28522   -1.67905
  8 C    -0.46709    1.62725   -5.15820
  9 C     0.46946   -0.82525    0.26682
 10 C     0.18193   -0.32369    0.26057
 11 C     0.29823    1.48315   -1.06152
 12 C    -0.04451    0.64486   -0.41978
 13 C     0.58269    1.87725    1.62565
 14 C    -0.72571   -1.83671   -0.05671
 15 C     0.29083   -0.04495    0.03028
 16 C     0.49742   -1.93158    2.02038
 17 C    -0.27489    1.55991    0.17085
 18 C    -1.84545   -0.69967    1.94262
 19 C     1.10322    0.07610    0.08857
 20 C     0.82483   -0.20847   -0.27139
 21 C    -0.22176    1.22861    0.19292
 22 C    -0.38446   -0.51429    0.16013
 23 C    -0.13067    1.21118    1.16050

System changes: positions 

Initializing position-dependent things.

Density initialized from wave functions
           .--------------------------------------.  
          /|                                      |  
[...]
External:        +0.000000
XC:            -177.682943
Entropy (-ST):   -0.087803
Local:           +3.030556
--------------------------
Free energy:   -180.605408
Extrapolated:  -180.561506

Fermi level: -3.92991

 Band  Eigenvalues  Occupancy
    0    -23.42343    2.00000
    1    -22.32979    2.00000
    2    -21.97016    2.00000
    3    -20.74983    2.00000
    4    -20.50367    2.00000
    5    -20.37542    2.00000
    6    -19.46930    2.00000
    7    -19.26442    2.00000
    8    -18.23270    2.00000
    9    -17.95031    2.00000
   10    -17.57367    2.00000
   11    -17.28819    2.00000
   12    -16.50849    2.00000
   13    -16.07110    2.00000
   14    -15.79139    2.00000
   15    -14.68784    2.00000
   16    -14.31575    2.00000
   17    -13.94898    2.00000
   18    -13.33514    2.00000
   19    -12.97481    2.00000
   20    -12.61000    2.00000
   21    -12.30046    2.00000
   22    -11.96425    2.00000
   23    -11.03881    2.00000
   24    -10.77071    2.00000
   25    -10.62193    2.00000
   26    -10.34126    2.00000
   27     -9.84689    2.00000
   28     -9.59777    2.00000
   29     -9.38909    2.00000
   30     -9.25919    2.00000
   31     -8.91415    2.00000
   32     -8.73970    2.00000
   33     -8.53608    2.00000
   34     -8.43474    2.00000
   35     -8.10046    2.00000
   36     -8.03549    2.00000
   37     -7.59455    2.00000
   38     -7.20440    2.00000
   39     -7.12456    2.00000
   40     -6.85269    2.00000
   41     -5.69061    2.00000
   42     -5.61011    2.00000
   43     -5.46098    2.00000
   44     -5.33996    2.00000
   45     -4.97715    1.99994
   46     -4.82237    1.99973
   47     -4.21232    1.88793
   48     -3.64602    0.11051
   49     -3.22852    0.00180
   50     -2.90970    0.00007
   51     -2.74893    0.00001
   52     -2.54209    0.00000
   53     -2.36707    0.00000
   54     -1.65626    0.00000
   55     -1.59999    0.00000
   56     -1.35798    0.00000
   57     -0.62377    0.00000
   58     -0.05815    0.00000
   59      0.09136    0.00000
   60      0.12771    0.00000
   61      1.03265    0.00000
   62      1.64184    0.00000
   63      2.11770    0.00000
   64      2.48035    0.00000
   65      3.49454    0.00000
   66      3.65023    0.00000
   67      3.93570    0.00000
   68      4.36916    0.00000
   69      4.74990    0.00000
   70      4.85730    0.00000
   71      5.64119    0.00000
   72      5.80245    0.00000
   73      6.09504    0.00000
   74      6.45660    0.00000
   75      6.93420    0.00000
   76      7.39796    0.00000
   77      7.66443    0.00000
   78      7.82647    0.00000
   79      8.02953    0.00000
   80      8.38547    0.00000
   81      8.66122    0.00000
   82      8.70174    0.00000
   83      8.95994    0.00000
   84      9.20794    0.00000
   85      9.36261    0.00000
   86      9.50998    0.00000
   87      9.54769    0.00000
   88      9.62379    0.00000
   89      9.71812    0.00000
   90      9.85823    0.00000
   91      9.86436    0.00000
   92     10.11037    0.00000
   93     10.17748    0.00000
   94     10.29560    0.00000
   95     10.41976    0.00000
   96     10.50185    0.00000
   97     10.58402    0.00000


Forces in eV/Ang:
  0 C     0.05512    0.07793    0.03208
  1 C     0.01733    0.04689    0.00858
  2 C    -0.05211   -0.02691    0.06740
  3 C     0.00919    0.01834   -0.07324
  4 C    -0.04033    0.02067    0.06080
  5 C    -0.02487    0.00775   -0.00626
  6 C    -0.00787   -0.02653   -0.00553
  7 C    -0.03310    0.03306   -0.02569
  8 C    -0.04019   -0.03498   -0.04737
  9 C    -0.04352    0.01988    0.01148
 10 C    -0.01795   -0.00904    0.01190
 11 C     0.01059    0.00362   -0.02092
 12 C     0.09187    0.00841   -0.01695
 13 C     0.01996    0.01313    0.03234
 14 C    -0.00812   -0.03423   -0.03205
 15 C    -0.03028   -0.00848    0.03631
 16 C     0.10485   -0.02499    0.06046
 17 C     0.00541   -0.03372    0.01910
 18 C     0.00924   -0.01749   -0.06623
 19 C     0.00263    0.02412   -0.01922
 20 C     0.04075    0.08920   -0.00871
 21 C    -0.07414   -0.01248   -0.02307
 22 C    -0.01542   -0.03262   -0.02167
 23 C    -0.04584   -0.03912   -0.01603

System changes: positions 

Initializing position-dependent things.

Density initialized from wave functions
           .--------------------------------------.  
          /|                                      |  
         / |                                      |  
        /  |                                      |  
       /   |                                      |  
      /    |                                      |  
     /     |                                      |  
    /      |                                      |  
   /       |                                      |  
  /        |                     C                |  
 *         |   C C  C  C                          |  
 |         |  C           C   C CC                |  
 |         .---C--C-----C--C-CC-------------------.  
 |        /          C CC  CC                    /   
 |       /                                      /    
 |      /                                      /     
 |     /                                      /      
 |    /                                      /       
 |   /                                      /        
 |  /                                      /         
 | /                                      /          
 |/                                      /           
 *--------------------------------------*            

Positions:
   0 C      6.573314    9.489369    4.761041
   1 C      5.346870    9.924846    5.212662
   2 C      4.295102    9.233316    5.468629
   3 C      7.976923    9.476192    4.495814
   4 C     10.588521    9.393505    5.598240
   5 C      7.176346    8.298070    4.169315
   6 C      9.382333    9.362712    4.674296
   7 C     11.172428    6.731673    5.772052
   8 C      9.136661    6.994334    3.989293
   9 C     10.926901    8.003549    5.395537
  10 C      7.666420    6.998487    4.035746
  11 C      9.870912    8.111191    4.249024
  12 C      3.468766    8.195020    5.626142
  13 C     10.472102    5.543871    5.498743
  14 C      5.494779    5.134772    5.399091
  15 C      8.503715    3.038779    6.110249
  16 C      9.244482    5.727104    4.654341
  17 C      4.420379    5.803996    5.507196
  18 C      7.770075    5.633987    4.668597
  19 C      7.378216    3.521378    5.818571
  20 C      9.837248    3.255495    6.266280
  21 C      3.741077    6.935731    5.646494
  22 C      6.809299    4.707409    5.274366
  23 C     10.602859    4.237311    6.052653

Unit cell:
           periodic     x           y           z      points  spacing
  1. axis:    yes   16.000000    0.000000    0.000000    80     0.2000
  2. axis:    yes    0.000000   16.000000    0.000000    80     0.2000
  3. axis:    yes    0.000000    0.000000   10.000000    48     0.2083

Effective grid spacing dv^(1/3) = 0.2027

                     log10-error:    total        iterations:
           time      wfs    density  energy       fermi  poisson
iter:   1  10:04:47          +inf  -180.560667    3      5      
iter:   2  10:04:47         -2.66  -180.558785    2      1      
iter:   3  10:04:48         -2.85  -180.558500    2      1      
iter:   4  10:04:48         -3.03  -180.556716    2      1      
iter:   5  10:04:49         -3.19  -180.562133    2      2      
iter:   6  10:04:49         -2.93  -180.560302    2      1      
iter:   7  10:04:50         -3.64  -180.559556    2      1      
iter:   8  10:04:50         -3.45  -180.559715    2      1      
iter:   9  10:04:51         -4.00  -180.559923    2      1      
iter:  10  10:04:51         -4.05  -180.559911    2      1      

Converged after 10 iterations.

Dipole moment: (-0.241786, -0.096178, -0.131443) |e|*Ang

Energy contributions relative to reference atoms: (reference = -24663.074771)

Kinetic:       +106.081854
Potential:     -111.932219
External:        +0.000000
XC:            -177.692037
Entropy (-ST):   -0.095077
Local:           +3.030028
--------------------------
Free energy:   -180.607450
Extrapolated:  -180.559911

Fermi level: -3.93877

 Band  Eigenvalues  Occupancy
    0    -23.41169    2.00000
    1    -22.32086    2.00000
    2    -21.95656    2.00000
    3    -20.74948    2.00000
    4    -20.50803    2.00000
    5    -20.37511    2.00000
    6    -19.46928    2.00000
    7    -19.26646    2.00000
    8    -18.22887    2.00000
    9    -17.94435    2.00000
   10    -17.56731    2.00000
   11    -17.28637    2.00000
   12    -16.50536    2.00000
   13    -16.07138    2.00000
   14    -15.78735    2.00000
   15    -14.68707    2.00000
   16    -14.30741    2.00000
   17    -13.95384    2.00000
   18    -13.33643    2.00000
   19    -12.98761    2.00000
   20    -12.61460    2.00000
   21    -12.30244    2.00000
   22    -11.97179    2.00000
   23    -11.02369    2.00000
   24    -10.75937    2.00000
   25    -10.61784    2.00000
   26    -10.33391    2.00000
   27     -9.84086    2.00000
   28     -9.59370    2.00000
   29     -9.38542    2.00000
   30     -9.26273    2.00000
   31     -8.91646    2.00000
   32     -8.74046    2.00000
   33     -8.53773    2.00000
   34     -8.43586    2.00000
   35     -8.10198    2.00000
   36     -8.03624    2.00000
   37     -7.59600    2.00000
   38     -7.20377    2.00000
   39     -7.12805    2.00000
   40     -6.85471    2.00000
   41     -5.68918    2.00000
   42     -5.60288    2.00000
   43     -5.45568    2.00000
   44     -5.34403    2.00000
   45     -4.97450    1.99994
   46     -4.82810    1.99973
   47     -4.20931    1.87469
   48     -3.66705    0.12394
   49     -3.22758    0.00163
   50     -2.90763    0.00007
   51     -2.74155    0.00001
   52     -2.53977    0.00000
   53     -2.34733    0.00000
   54     -1.65631    0.00000
   55     -1.59300    0.00000
   56     -1.35416    0.00000
   57     -0.62817    0.00000
   58     -0.08337    0.00000
   59      0.08357    0.00000
   60      0.12508    0.00000
   61      1.02782    0.00000
   62      1.63297    0.00000
   63      2.12066    0.00000
   64      2.47220    0.00000
   65      3.48228    0.00000
   66      3.65494    0.00000
   67      3.94031    0.00000
   68      4.37578    0.00000
   69      4.74781    0.00000
   70      4.87232    0.00000
   71      5.66219    0.00000
   72      5.82692    0.00000
   73      6.10338    0.00000
   74      6.44580    0.00000
   75      6.93749    0.00000
   76      7.42959    0.00000
   77      7.63769    0.00000
   78      7.83965    0.00000
   79      8.03529    0.00000
   80      8.40412    0.00000
   81      8.67198    0.00000
   82      8.71071    0.00000
   83      8.95312    0.00000
   84      9.21466    0.00000
   85      9.37403    0.00000
   86      9.52189    0.00000
   87      9.54937    0.00000
   88      9.63532    0.00000
   89      9.72947    0.00000
   90      9.85964    0.00000
   91      9.87161    0.00000
   92     10.12011    0.00000
   93     10.17574    0.00000
   94     10.29316    0.00000
   95     10.42221    0.00000
   96     10.49972    0.00000
   97     10.58160    0.00000


Forces in eV/Ang:
  0 C     0.04824    0.08711    0.02988
  1 C     0.02118    0.00564    0.02329
  2 C     0.00728    0.00826    0.05866
  3 C     0.00150   -0.00844   -0.03454
  4 C    -0.07674    0.02130   -0.01844
  5 C    -0.00319    0.02466   -0.00618
  6 C    -0.02462   -0.04449    0.01740
  7 C     0.00479    0.01904   -0.01814
  8 C    -0.00618   -0.03334   -0.04091
  9 C    -0.05126    0.01305    0.02282
 10 C    -0.05435   -0.01007    0.02483
 11 C     0.01763   -0.02836   -0.00487
 12 C     0.01864    0.02697   -0.01781
 13 C     0.01098    0.01602    0.02886
 14 C     0.01888   -0.05195   -0.06474
 15 C    -0.01436   -0.02661    0.04305
 16 C     0.04860   -0.01027    0.05043
 17 C    -0.02171   -0.01804    0.03700
 18 C     0.00125    0.03410   -0.06498
 19 C    -0.01378   -0.04233   -0.01086
 20 C    -0.02021    0.04163    0.00475
 21 C    -0.03211   -0.04643   -0.02958
 22 C    -0.00057    0.00100   -0.02574
 23 C     0.05268    0.00346   -0.04387

System changes: positions 

Initializing position-dependent things.

Density initialized from wave functions
           .--------------------------------------.  
          /|                                      |  
         / |                                      |  
        /  |                                      |  
       /   |                                      |  
      /    |                                      |  
     /     |                                      |  
    /      |                                      |  
   /       |                                      |  
  /        |                     C                |  
 *         |   C C  C  C                          |  
 |         |  C           C   C CC                |  
 |         .---C--C-----C--C-CC-------------------.  
 |        /          C CC  CC                    /   
 |       /                                      /    
 |      /                                      /     
 |     /                                      /      
 |    /                                      /       
 |   /                                      /        
 |  /                                      /         
 | /                                      /          
 |/                                      /           
 *--------------------------------------*            

Positions:
   0 C      6.574307    9.490624    4.761632
   1 C      5.347547    9.924878    5.214262
   2 C      4.294354    9.235447    5.470909
   3 C      7.976964    9.476208    4.493692
   4 C     10.586889    9.393848    5.599240
   5 C      7.176032    8.297578    4.169973
   6 C      9.382087    9.362136    4.674173
   7 C     11.172403    6.732734    5.772591
   8 C      9.136403    6.993110    3.988826
   9 C     10.925538    8.004258    5.396021
  10 C      7.666185    6.997713    4.036054
  11 C      9.870179    8.110458    4.250011
  12 C      3.471672    8.194347    5.624896
  13 C     10.473597    5.544398    5.498890
  14 C      5.493739    5.133664    5.398411
  15 C      8.502862    3.038220    6.111362
  16 C      9.246489    5.726779    4.654709
  17 C      4.420421    5.804344    5.508050
  18 C      7.771085    5.632514    4.666411
  19 C      7.378803    3.522707    5.817611
  20 C      9.836022    3.257922    6.266143
  21 C      3.736771    6.933861    5.645999
  22 C      6.808699    4.707181    5.272603
  23 C     10.603457    4.237578    6.051116

Unit cell:
           periodic     x           y           z      points  spacing
  1. axis:    yes   16.000000    0.000000    0.000000    80     0.2000
  2. axis:    yes    0.000000   16.000000    0.000000    80     0.2000
  3. axis:    yes    0.000000    0.000000   10.000000    48     0.2083

Effective grid spacing dv^(1/3) = 0.2027

                     log10-error:    total        iterations:
           time      wfs    density  energy       fermi  poisson
iter:   1  10:04:53          +inf  -180.562752    2      4      
iter:   2  10:04:53         -3.06  -180.561670    2      1      
iter:   3  10:04:54         -3.22  -180.560580    2      1      
iter:   4  10:04:54         -3.41  -180.560104    2      1      
iter:   5  10:04:55         -3.58  -180.559646    2      1      
iter:   6  10:04:55         -3.64  -180.561638    2      1      
iter:   7  10:04:56         -3.37  -180.560652    2      1      
iter:   8  10:04:56         -3.98  -180.560777    2      1      
iter:   9  10:04:57         -4.28  -180.561059    2      1      

Converged after 9 iterations.

Dipole moment: (-0.245904, -0.095527, -0.131818) |e|*Ang

Energy contributions relative to reference atoms: (reference = -24663.074771)

Kinetic:       +106.095183
Potential:     -111.931452
External:        +0.000000
XC:            -177.708258
Entropy (-ST):   -0.095301
Local:           +3.031117
--------------------------
Free energy:   -180.608709
Extrapolated:  -180.561059

Fermi level: -3.93697

 Band  Eigenvalues  Occupancy
    0    -23.41033    2.00000
    1    -22.31915    2.00000
    2    -21.95580    2.00000
    3    -20.74492    2.00000
    4    -20.50768    2.00000
    5    -20.37342    2.00000
    6    -19.46724    2.00000
    7    -19.26385    2.00000
    8    -18.22600    2.00000
    9    -17.94196    2.00000
   10    -17.56415    2.00000
   11    -17.28451    2.00000
   12    -16.50237    2.00000
   13    -16.07308    2.00000
   14    -15.78629    2.00000
   15    -14.68977    2.00000
   16    -14.30596    2.00000
   17    -13.95358    2.00000
   18    -13.33742    2.00000
   19    -12.99572    2.00000
   20    -12.61581    2.00000
   21    -12.30411    2.00000
   22    -11.97209    2.00000
   23    -11.02227    2.00000
   24    -10.75703    2.00000
   25    -10.61593    2.00000
   26    -10.33336    2.00000
   27     -9.84294    2.00000
   28     -9.59017    2.00000
   29     -9.38304    2.00000
   30     -9.25800    2.00000
   31     -8.91387    2.00000
   32     -8.73838    2.00000
   33     -8.53711    2.00000
   34     -8.43726    2.00000
   35     -8.10206    2.00000
   36     -8.03706    2.00000
   37     -7.59378    2.00000
   38     -7.20360    2.00000
   39     -7.12593    2.00000
   40     -6.85354    2.00000
   41     -5.68792    2.00000
   42     -5.60099    2.00000
   43     -5.45315    2.00000
   44     -5.34201    2.00000
   45     -4.97342    1.99994
   46     -4.82678    1.99973
   47     -4.20717    1.87429
   48     -3.66558    0.12432
   49     -3.22700    0.00165
   50     -2.90759    0.00007
   51     -2.73674    0.00001
   52     -2.53881    0.00000
   53     -2.33951    0.00000
   54     -1.65498    0.00000
   55     -1.59682    0.00000
   56     -1.35665    0.00000
   57     -0.62704    0.00000
   58     -0.09097    0.00000
   59      0.08406    0.00000
   60      0.13094    0.00000
   61      1.02561    0.00000
   62      1.63789    0.00000
   63      2.12461    0.00000
   64      2.47271    0.00000
   65      3.48774    0.00000
   66      3.65530    0.00000
   67      3.94069    0.00000
   68      4.38316    0.00000
   69      4.74314    0.00000
   70      4.87712    0.00000
   71      5.66633    0.00000
   72      5.83054    0.00000
   73      6.11566    0.00000
   74      6.44278    0.00000
   75      6.93313    0.00000
   76      7.45790    0.00000
   77      7.64163    0.00000
   78      7.84706    0.00000
   79      8.04155    0.00000
   80      8.41660    0.00000
   81      8.67834    0.00000
   82      8.71794    0.00000
   83      8.95695    0.00000
   84      9.21605    0.00000
   85      9.37560    0.00000
   86      9.52552    0.00000
   87      9.55266    0.00000
   88      9.63937    0.00000
   89      9.73457    0.00000
   90      9.86561    0.00000
   91      9.87562    0.00000
   92     10.12391    0.00000
   93     10.17959    0.00000
   94     10.29279    0.00000
   95     10.42441    0.00000
   96     10.50072    0.00000
   97     10.58293    0.00000


Forces in eV/Ang:
  0 C     0.01851    0.07068    0.02761
  1 C     0.02916   -0.00556    0.02107
  2 C     0.03373    0.00843    0.04779
  3 C     0.00723   -0.01808   -0.01924
  4 C    -0.06529    0.04482   -0.00986
  5 C     0.00092    0.02585   -0.01504
  6 C    -0.03302   -0.03037    0.01176
  7 C     0.00707    0.01805   -0.01548
  8 C     0.02407    0.01044   -0.03072
  9 C    -0.03897    0.00969    0.03341
 10 C    -0.04573   -0.00597    0.02002
 11 C     0.02134   -0.02926   -0.02506
 12 C     0.00469    0.02322   -0.00791
 13 C    -0.00314    0.01635    0.01674
 14 C     0.01630   -0.04257   -0.06553
 15 C    -0.00687   -0.02579    0.03583
 16 C    -0.01408   -0.00423    0.02114
 17 C    -0.01492   -0.02448    0.03205
 18 C    -0.00845    0.02409   -0.03765
 19 C    -0.01073   -0.05513   -0.00449
 20 C    -0.03205    0.01887    0.01015
 21 C    -0.01429   -0.03847   -0.02917
 22 C     0.00613    0.00627   -0.02686
 23 C     0.06890   -0.00380   -0.02911

