
  ___ ___ ___ _ _ _  
 |   |   |_  | | | | 
 | | | | | . | | | | 
 |__ |  _|___|_____|  1.3.0b1
 |___|_|             

User:   esb@s65n31.grendel.cscaa.dk
Date:   Thu Nov  9 09:22:32 2017
Arch:   x86_64
Pid:    15353
Python: 2.7.13
gpaw:   /home/esb/DFT/gpaw_git/gpaw
_gpaw:  /home/esb/DFT/gpaw_git/build/bin.linux-x86_64-2.7/gpaw-python
ase:    /home/esb/DFT/ase_git/ase (version 3.15.0b1)
numpy:  /comm/swstack/core/python/2.7.13/lib/python2.7/site-packages/numpy (version 1.13.3)
scipy:  /comm/swstack/core/python/2.7.13/lib/python2.7/site-packages/scipy (version 0.19.1)
units:  Angstrom and eV
cores:  16
Extra parameters: {'blacs': True}

Input parameters:
  basis: dzp
  gpts: [80 80 48]
  kpts: [1 1 1]
  maxiter: 99
  mixer: {backend: pulay,
          beta: 0.05,
          method: separate,
          nmaxold: 5,
          weight: 75}
  mode: lcao
  nbands: -50
  occupations: {name: fermi-dirac,
                width: 0.1}
  poissonsolver: {eps: 1e-07,
                  name: fd,
                  nn: 3,
                  relax: GS}
  xc: PBE

System changes: positions, numbers, cell, pbc, initial_charges, initial_magmoms 

Initialize ...

C-setup:
  name: Carbon
  id: 4aa54d4b901d75f77cc0ea3eec22967b
  Z: 6
  valence: 4
  core: 2
  charge: 0.0
  file: /home/esb/DFT/gpaw-setups-0.8.7929/C.PBE.gz
  cutoffs: 0.64(comp), 1.14(filt), 1.14(core), lmax=2
  valence states:
                energy  radius
    2s(2.00)   -13.751   0.635
    2p(2.00)    -5.284   0.635
    *s          13.461   0.635
    *p          21.927   0.635
    *d           0.000   0.635

  LCAO basis set for C:
    Name: dzp
    File: /home/esb/DFT/gpaw-setups-0.8.7929/C.dzp.basis.gz
    Number of radial functions: 5
    Number of spherical harmonics: 13
      l=0, rc=5.5469 Bohr: 2s-sz confined orbital
      l=1, rc=6.6719 Bohr: 2p-sz confined orbital
      l=0, rc=3.0312 Bohr: 2s-dz split-valence wave
      l=1, rc=3.7500 Bohr: 2p-dz split-valence wave
      l=2, rc=6.6719 Bohr: d-type Gaussian polarization

Reference energy: -24663.074771

Spin-paired calculation

Occupation numbers:
  Fermi-Dirac: width=0.1000 eV

Convergence criteria:
  Maximum total energy change: 0.0005 eV / electron
  Maximum integral of absolute density change: 0.0001 electrons
  Maximum integral of absolute eigenstate change: 4e-08 eV^2
  Maximum number of iterations: 99

Symmetries present (total): 1

  ( 1  0  0)
  ( 0  1  0)
  ( 0  0  1)

1 k-point (Gamma)
1 k-point in the irreducible part of the Brillouin zone
       k-points in crystal coordinates                weights
   0:     0.00000000    0.00000000    0.00000000          1/1

Wave functions: LCAO
  Diagonalizer: Serial LAPACK
  Atomic Correction: dense with blas
  Datatype: float
  Eigensolver: None 

LCAO using direct dense diagonalizer 

Densities:
  Coarse grid: 80*80*48 grid
  Fine grid: 160*160*96 grid
  Total Charge: 0.000000 

Density mixing:
  Method: separate
  Backend: pulay
  Linear mixing parameter: 0.05
  Mixing with 5 old densities
  Damping of long wave oscillations: 75 

Hamiltonian:
  XC and Coulomb potentials evaluated on a 160*160*96 grid
  Using the PBE Exchange-Correlation functional
  Interpolation: tri-quintic (5. degree polynomial)
  Poisson solver: Gauss-Seidel solver with 6 multi-grid levels
    Coarsest grid: 5 x 5 x 3 points
    Stencil: 6*3+1=19 point O(h^6) finite-difference Laplacian
    Max iterations: 1000
    Tolerance: 1.000000e-07 

Memory estimate:
  Process memory now: 77.57 MiB
  Calculator: 15.59 MiB
    Density: 6.13 MiB
      Arrays: 3.81 MiB
      Localized functions: 0.86 MiB
      Mixer: 1.46 MiB
    Hamiltonian: 5.40 MiB
      Arrays: 2.49 MiB
      XC: 0.00 MiB
      Poisson: 2.85 MiB
      vbar: 0.07 MiB
    Wavefunctions: 4.05 MiB
      C [qnM]: 0.23 MiB
      S, T [2 x qmm]: 1.49 MiB
      P [aqMi]: 0.01 MiB
      TCI: 0.00 MiB
      BasisFunctions: 2.33 MiB
      Eigensolver: 0.00 MiB

Total number of cores used: 16
Domain decomposition: 2 x 4 x 2

Number of atoms: 24
Number of atomic orbitals: 312
Number of bands in calculation: 98
Bands to converge: occupied states only
Number of valence electrons: 96

... initialized

Initializing position-dependent things.

Density initialized from atomic densities
           .--------------------------------------.  
          /|                                      |  
         / |                                      |  
        /  |                                      |  
       /   |                                      |  
      /    |                                      |  
     /     |                                      |  
    /      |                                      |  
   /       |                                      |  
  /        |            C                         |  
 *         |    C   CC     C C                    |  
 |         |  C         C  C     C                |  
 |         .-C-C---C---C-C----C--C----------------.  
 |        /    C C          C                    /   
 |       /          C  C  C  C                  /    
 |      /                                      /     
 |     /                                      /      
 |    /                                      /       
 |   /                                      /        
 |  /                                      /         
 | /                                      /          
 |/                                      /           
 *--------------------------------------*            

Positions:
   0 C      7.416336    7.588807    5.330246
   1 C     10.334750    4.483668    4.384499
   2 C      7.317255    6.156252    5.479013
   3 C      8.742426    8.055700    5.031690
   4 C      6.926071   10.479970    5.018803
   5 C     10.599348    9.365001    4.436524
   6 C      9.395154    3.594231    4.445904
   7 C      6.707423    3.863389    5.030805
   8 C     10.914834    8.132074    4.308480
   9 C      9.900048    7.178060    4.739915
  10 C      9.743938    5.767010    4.798098
  11 C      8.079911    3.958384    4.966523
  12 C      8.429532    5.376545    5.252974
  13 C      8.179097   10.388685    4.888688
  14 C      9.208450    9.466950    4.782842
  15 C      5.392185    8.824464    5.777172
  16 C      5.679253    3.437032    5.309392
  17 C      3.453317    7.613960    5.574594
  18 C      5.821230    6.144205    5.530180
  19 C      4.465677    5.535511    5.440128
  20 C      6.199631    7.574717    5.690599
  21 C      3.974626    8.810581    5.679516
  22 C      4.628810    4.129828    5.354420
  23 C      3.288245    6.325099    5.437312

Unit cell:
           periodic     x           y           z      points  spacing
  1. axis:    yes   16.000000    0.000000    0.000000    80     0.2000
  2. axis:    yes    0.000000   16.000000    0.000000    80     0.2000
  3. axis:    yes    0.000000    0.000000   10.000000    48     0.2083

Effective grid spacing dv^(1/3) = 0.2027

                     log10-error:    total        iterations:
           time      wfs    density  energy       fermi  poisson
iter:   1  09:22:34          +inf  -178.595000    2      6      
iter:   2  09:22:35         -0.89  -177.466266    3      3      
iter:   3  09:22:35         -0.93  -174.442960    35     3      
iter:   4  09:22:36         -1.11  -173.824723    30     3      
iter:   5  09:22:37         -1.22  -173.490366    34     4      
iter:   6  09:22:37         -1.52  -173.416042    3      3      
iter:   7  09:22:38         -1.68  -173.425457    3      3      
iter:   8  09:22:39         -1.78  -173.402158    3      2      
iter:   9  09:22:39         -1.85  -173.359654    3      3      
iter:  10  09:22:40         -2.17  -173.348056    3      2      
iter:  11  09:22:40         -2.39  -173.342669    3      2      
iter:  12  09:22:41         -2.63  -173.355094    2      1      
iter:  13  09:22:42         -2.71  -173.341926    3      2      
iter:  14  09:22:42         -2.94  -173.343569    2      1      
iter:  15  09:22:43         -3.03  -173.344324    2      1      
iter:  16  09:22:43         -3.10  -173.331138    2      1      
iter:  17  09:22:44         -3.26  -173.334133    2      1      
iter:  18  09:22:44         -3.40  -173.337670    2      1      
iter:  19  09:22:45         -3.64  -173.338253    2      1      
iter:  20  09:22:46         -3.77  -173.338619    2      1      
iter:  21  09:22:46         -3.91  -173.337672    2      1      
iter:  22  09:22:47         -4.00  -173.336660    2      1      
iter:  23  09:22:47         -4.15  -173.337109    2      1      

Converged after 23 iterations.

Dipole moment: (0.007848, -0.507165, 0.181475) |e|*Ang

Energy contributions relative to reference atoms: (reference = -24663.074771)

Kinetic:       +145.882786
Potential:     -141.142479
External:        +0.000000
XC:            -180.905814
Entropy (-ST):   -0.375369
Local:           +3.016083
--------------------------
Free energy:   -173.524794
Extrapolated:  -173.337109

Fermi level: -4.40797

 Band  Eigenvalues  Occupancy
    0    -24.29042    2.00000
    1    -22.48412    2.00000
    2    -22.23325    2.00000
    3    -21.80579    2.00000
    4    -20.89468    2.00000
    5    -19.82977    2.00000
    6    -19.37533    2.00000
    7    -19.12755    2.00000
    8    -19.04601    2.00000
    9    -17.84440    2.00000
   10    -17.37938    2.00000
   11    -17.24162    2.00000
   12    -16.58041    2.00000
   13    -16.17604    2.00000
   14    -15.29323    2.00000
   15    -14.84913    2.00000
   16    -14.14337    2.00000
   17    -13.75382    2.00000
   18    -13.25082    2.00000
   19    -13.06211    2.00000
   20    -12.83898    2.00000
   21    -12.16028    2.00000
   22    -11.71828    2.00000
   23    -11.29323    2.00000
   24    -11.25872    2.00000
   25    -10.95415    2.00000
   26    -10.70978    2.00000
   27    -10.04524    2.00000
   28     -9.86936    2.00000
   29     -9.76870    2.00000
   30     -9.53926    2.00000
   31     -9.20004    2.00000
   32     -8.79777    2.00000
   33     -8.63507    2.00000
   34     -8.18122    2.00000
   35     -8.02129    2.00000
   36     -7.71929    2.00000
   37     -7.27233    2.00000
   38     -6.96966    2.00000
   39     -6.48578    2.00000
   40     -6.40987    2.00000
   41     -6.25136    2.00000
   42     -5.91738    2.00000
   43     -5.85715    2.00000
   44     -5.77734    2.00000
   45     -5.16008    1.99892
   46     -4.66110    1.85261
   47     -4.45679    1.23936
   48     -4.36341    0.78078
   49     -4.11849    0.10482
   50     -3.94806    0.01992
   51     -3.73491    0.00238
   52     -3.64435    0.00096
   53     -3.50669    0.00024
   54     -1.88840    0.00000
   55     -1.56640    0.00000
   56     -1.49058    0.00000
   57     -1.15086    0.00000
   58     -0.34272    0.00000
   59      0.24994    0.00000
   60      0.69503    0.00000
   61      1.23727    0.00000
   62      1.72434    0.00000
   63      2.35628    0.00000
   64      2.81417    0.00000
   65      3.06909    0.00000
   66      3.33492    0.00000
   67      3.50543    0.00000
   68      4.00810    0.00000
   69      4.44287    0.00000
   70      4.71378    0.00000
   71      5.10890    0.00000
   72      5.54306    0.00000
   73      6.03019    0.00000
   74      6.44964    0.00000
   75      6.65023    0.00000
   76      6.95568    0.00000
   77      7.27569    0.00000
   78      7.63107    0.00000
   79      7.90671    0.00000
   80      8.28251    0.00000
   81      8.48605    0.00000
   82      8.63712    0.00000
   83      8.73705    0.00000
   84      9.11463    0.00000
   85      9.13853    0.00000
   86      9.25885    0.00000
   87      9.40559    0.00000
   88      9.52352    0.00000
   89      9.58314    0.00000
   90      9.69903    0.00000
   91      9.78172    0.00000
   92      9.96870    0.00000
   93     10.13438    0.00000
   94     10.22363    0.00000
   95     10.28706    0.00000
   96     10.50237    0.00000
   97     10.58169    0.00000


Forces in eV/Ang:
  0 C    11.19158   -1.51057   -1.38758
  1 C    -0.33659    0.44702    0.13342
  2 C     2.36976   -1.69974   -1.34696
  3 C    -0.88219    1.08730    0.05927
  4 C    -2.07082   -0.75282    0.89717
  5 C    -0.32060    0.16582    0.02847
  6 C    -0.27398   -0.41357   -0.40375
  7 C    17.69779    0.66717   -4.00019
  8 C    -0.23144   -0.97771    0.35134
  9 C     1.03519   -0.62535   -0.41788
 10 C     0.40404    0.40989   -0.06726
 11 C     0.65546    0.80542    0.06872
 12 C    -2.39293   -1.00039    0.42892
 13 C     0.15828    0.03368   -0.01482
 14 C    -0.33572   -0.37916    0.00857
 15 C    -3.44317   -0.60797   -0.65076
 16 C   -11.45174   -6.10757    3.13526
 17 C    -0.42411   -1.12669    0.21695
 18 C    -1.07796    2.61556    0.82489
 19 C     1.82941   -0.33403    0.46861
 20 C   -11.02346    5.51732    1.27890
 21 C     4.25542    1.49220    0.17878
 22 C    -5.13063    1.45452    0.36248
 23 C    -0.14367    0.70349   -0.05588

System changes: positions 

Initializing position-dependent things.

Density initialized from wave functions
           .--------------------------------------.  
          /|                                      |  
         / |                                      |  
        /  |                                      |  
       /   |                                      |  
      /    |                                      |  
     /     |                                      |  
    /      |                                      |  
   /       |                                      |  
  /        |            C                         |  
 *         |    C   CC     C C                    |  
 |         |  C         C  C     C                |  
 |         .-C-C---C---C-C----C--C----------------.  
 |        /    C C          C                    /   
 |       /          C  C  C  C                  /    
 |      /                                      /     
 |     /                                      /      
 |    /                                      /       
 |   /                                      /        
 |  /                                      /         
 | /                                      /          
 |/                                      /           
 *--------------------------------------*            

Positions:
   0 C      7.440992    7.585479    5.327189
   1 C     10.334008    4.484653    4.384793
   2 C      7.322476    6.152507    5.476046
   3 C      8.740482    8.058096    5.031820
   4 C      6.921509   10.478312    5.020779
   5 C     10.598641    9.365367    4.436587
   6 C      9.394550    3.593320    4.445014
   7 C      6.746413    3.864858    5.021992
   8 C     10.914324    8.129920    4.309254
   9 C      9.902329    7.176682    4.738995
  10 C      9.744828    5.767913    4.797950
  11 C      8.081355    3.960158    4.966674
  12 C      8.424260    5.374341    5.253919
  13 C      8.179446   10.388759    4.888656
  14 C      9.207710    9.466114    4.782861
  15 C      5.384600    8.823125    5.775738
  16 C      5.654024    3.423577    5.316299
  17 C      3.452383    7.611478    5.575072
  18 C      5.818856    6.149967    5.531998
  19 C      4.469708    5.534775    5.441161
  20 C      6.175346    7.586872    5.693417
  21 C      3.984001    8.813868    5.679910
  22 C      4.617507    4.133033    5.355219
  23 C      3.287928    6.326649    5.437189

Unit cell:
           periodic     x           y           z      points  spacing
  1. axis:    yes   16.000000    0.000000    0.000000    80     0.2000
  2. axis:    yes    0.000000   16.000000    0.000000    80     0.2000
  3. axis:    yes    0.000000    0.000000   10.000000    48     0.2083

Effective grid spacing dv^(1/3) = 0.2027

                     log10-error:    total        iterations:
           time      wfs    density  energy       fermi  poisson
iter:   1  09:22:49          +inf  -175.076192    3      5      
iter:   2  09:22:50         -1.82  -174.941422    3      2      
iter:   3  09:22:51         -2.14  -174.925227    2      2      
iter:   4  09:22:51         -2.22  -174.909591    2      2      
iter:   5  09:22:52         -2.46  -174.904905    2      2      
iter:   6  09:22:52         -2.61  -174.904640    2      2      
iter:   7  09:22:53         -2.74  -174.902544    2      2      
iter:   8  09:22:54         -3.04  -174.903029    2      1      
iter:   9  09:22:54         -3.17  -174.902340    2      1      
iter:  10  09:22:55         -3.31  -174.901767    2      1      
iter:  11  09:22:55         -3.45  -174.901707    2      1      
iter:  12  09:22:56         -3.54  -174.901644    2      1      
iter:  13  09:22:56         -3.64  -174.901881    2      1      
iter:  14  09:22:57         -3.73  -174.902266    2      1      
iter:  15  09:22:58         -4.08  -174.902029    2      1      

Converged after 15 iterations.

Dipole moment: (-0.027163, -0.431068, 0.191871) |e|*Ang

Energy contributions relative to reference atoms: (reference = -24663.074771)

Kinetic:       +137.984475
Potential:     -135.870858
External:        +0.000000
XC:            -179.812094
Entropy (-ST):   -0.347191
Local:           +2.970044
--------------------------
Free energy:   -175.075624
Extrapolated:  -174.902029

Fermi level: -4.40491

 Band  Eigenvalues  Occupancy
    0    -24.02807    2.00000
    1    -22.45457    2.00000
    2    -22.12749    2.00000
    3    -21.70766    2.00000
    4    -20.90516    2.00000
    5    -19.87456    2.00000
    6    -19.37121    2.00000
    7    -19.17171    2.00000
    8    -19.07459    2.00000
    9    -17.85359    2.00000
   10    -17.37406    2.00000
   11    -17.27908    2.00000
   12    -16.52629    2.00000
   13    -16.16186    2.00000
   14    -15.21403    2.00000
   15    -14.86369    2.00000
   16    -14.18176    2.00000
   17    -13.75078    2.00000
   18    -13.23243    2.00000
   19    -13.06113    2.00000
   20    -12.87054    2.00000
   21    -12.19119    2.00000
   22    -11.69620    2.00000
   23    -11.26854    2.00000
   24    -11.19958    2.00000
   25    -10.92855    2.00000
   26    -10.76751    2.00000
   27     -9.97703    2.00000
   28     -9.83873    2.00000
   29     -9.75309    2.00000
   30     -9.51607    2.00000
   31     -9.16210    2.00000
   32     -8.70741    2.00000
   33     -8.59041    2.00000
   34     -8.16078    2.00000
   35     -7.98096    2.00000
   36     -7.71720    2.00000
   37     -7.27740    2.00000
   38     -6.98433    2.00000
   39     -6.51859    2.00000
   40     -6.45918    2.00000
   41     -6.25310    2.00000
   42     -5.92002    2.00000
   43     -5.88109    2.00000
   44     -5.75904    2.00000
   45     -5.22010    1.99942
   46     -4.73252    1.92720
   47     -4.44734    1.20899
   48     -4.35569    0.75875
   49     -4.08816    0.08081
   50     -3.95364    0.02170
   51     -3.71909    0.00210
   52     -3.62088    0.00079
   53     -3.50428    0.00025
   54     -1.84972    0.00000
   55     -1.65397    0.00000
   56     -1.58412    0.00000
   57     -1.23900    0.00000
   58     -0.38307    0.00000
   59      0.20007    0.00000
   60      0.68305    0.00000
   61      1.23462    0.00000
   62      1.69172    0.00000
   63      2.31884    0.00000
   64      2.73906    0.00000
   65      3.03845    0.00000
   66      3.34445    0.00000
   67      3.50492    0.00000
   68      4.07784    0.00000
   69      4.45430    0.00000
   70      4.71150    0.00000
   71      5.30129    0.00000
   72      5.60852    0.00000
   73      6.02357    0.00000
   74      6.48341    0.00000
   75      6.69173    0.00000
   76      7.04413    0.00000
   77      7.39012    0.00000
   78      7.68902    0.00000
   79      7.95390    0.00000
   80      8.30456    0.00000
   81      8.46237    0.00000
   82      8.64806    0.00000
   83      8.73468    0.00000
   84      9.12342    0.00000
   85      9.17841    0.00000
   86      9.30466    0.00000
   87      9.38795    0.00000
   88      9.53381    0.00000
   89      9.56878    0.00000
   90      9.66882    0.00000
   91      9.78086    0.00000
   92      9.96406    0.00000
   93     10.15195    0.00000
   94     10.23701    0.00000
   95     10.29909    0.00000
   96     10.50122    0.00000
   97     10.58505    0.00000


Forces in eV/Ang:
  0 C     7.10594   -1.74148   -0.22278
  1 C    -0.38327    0.27794    0.10088
  2 C     1.87474   -1.01283   -1.19896
  3 C    -0.28303    0.94412   -0.05110
  4 C    -1.69277   -0.73149    0.84483
  5 C    -0.30546    0.04573    0.00416
  6 C     0.21618   -0.43788   -0.46865
  7 C     9.07760   -2.04464   -2.01365
  8 C    -0.21828   -0.78710    0.34238
  9 C     0.92936   -0.60312   -0.37744
 10 C     0.14405    0.40664    0.01630
 11 C     1.56521    0.47810   -0.03711
 12 C    -1.80093   -0.76140    0.32290
 13 C    -0.17537    0.05874    0.02389
 14 C    -0.24095   -0.22222   -0.01363
 15 C    -3.08800   -0.48856   -0.67174
 16 C    -4.82905   -3.29531    1.31021
 17 C    -0.26465   -0.47611    0.25901
 18 C    -0.88509    2.79264    0.83917
 19 C     1.55790    0.13301    0.50932
 20 C    -7.35505    4.90973    0.28869
 21 C     3.45650    1.03582    0.14630
 22 C    -4.33398    0.90992    0.26062
 23 C     0.01213    0.49897   -0.07279

System changes: positions 

Initializing position-dependent things.

Density initialized from wave functions
           .--------------------------------------.  
          /|                                      |  
         / |                                      |  
        /  |                                      |  
       /   |                                      |  
      /    |                                      |  
     /     |                                      |  
    /      |                                      |  
   /       |                                      |  
  /        |            C                         |  
 *         |    C   CC     C C                    |  
 |         |  C         C  C     C                |  
 |         .-C-C---C---C-C----C--C----------------.  
 |        /    C C          C                    /   
 |       /          C  C  C  C                  /    
 |      /                                      /     
 |     /                                      /      
 |    /                                      /       
 |   /                                      /        
 |  /                                      /         
 | /                                      /          
 |/                                      /           
 *--------------------------------------*            

Positions:
   0 C      7.466304    7.573623    5.331152
   1 C     10.331418    4.485600    4.385269
   2 C      7.331828    6.149379    5.469291
   3 C      8.741477    8.063292    5.030997
   4 C      6.912748   10.473874    5.025777
   5 C     10.596817    9.365099    4.436501
   6 C      9.398139    3.590494    4.441811
   7 C      6.763144    3.839740    5.018622
   8 C     10.913032    8.125914    4.311336
   9 C      9.907605    7.173045    4.736840
  10 C      9.744528    5.770419    4.798434
  11 C      8.095234    3.961621    4.965959
  12 C      8.415811    5.370717    5.255435
  13 C      8.176828   10.389238    4.888981
  14 C      9.206651    9.465457    4.782674
  15 C      5.367084    8.820644    5.771477
  16 C      5.654468    3.416048    5.316049
  17 C      3.451474    7.611511    5.576871
  18 C      5.814253    6.168094    5.537266
  19 C      4.478121    5.537743    5.444505
  20 C      6.146575    7.614525    5.690664
  21 C      4.001766    8.818197    5.680668
  22 C      4.594291    4.136176    5.356367
  23 C      3.288718    6.328804    5.436660

Unit cell:
           periodic     x           y           z      points  spacing
  1. axis:    yes   16.000000    0.000000    0.000000    80     0.2000
  2. axis:    yes    0.000000   16.000000    0.000000    80     0.2000
  3. axis:    yes    0.000000    0.000000   10.000000    48     0.2083

Effective grid spacing dv^(1/3) = 0.2027

                     log10-error:    total        iterations:
           time      wfs    density  energy       fermi  poisson
iter:   1  09:23:00          +inf  -176.204388    3      5      
iter:   2  09:23:00         -1.74  -175.965352    3      2      
iter:   3  09:23:01         -2.16  -175.941652    3      2      
iter:   4  09:23:01         -2.28  -175.928970    2      2      
iter:   5  09:23:02         -2.46  -175.924909    3      2      
iter:   6  09:23:03         -2.55  -175.924704    2      2      
iter:   7  09:23:03         -2.75  -175.925265    2      2      
iter:   8  09:23:04         -2.93  -175.924776    2      2      
iter:   9  09:23:04         -3.19  -175.924770    2      1      
iter:  10  09:23:05         -3.29  -175.924920    2      1      
iter:  11  09:23:05         -3.49  -175.924824    2      1      
iter:  12  09:23:06         -3.58  -175.924716    2      1      
iter:  13  09:23:07         -3.77  -175.924747    2      1      
iter:  14  09:23:07         -3.91  -175.924675    2      1      
iter:  15  09:23:08         -3.99  -175.924710    2      1      
iter:  16  09:23:08         -4.09  -175.924618    2      1      

Converged after 16 iterations.

Dipole moment: (-0.018669, -0.389710, 0.190944) |e|*Ang

Energy contributions relative to reference atoms: (reference = -24663.074771)

Kinetic:       +134.589667
Potential:     -133.882052
External:        +0.000000
XC:            -179.438271
Entropy (-ST):   -0.339325
Local:           +2.975700
--------------------------
Free energy:   -176.094281
Extrapolated:  -175.924618

Fermi level: -4.40691

 Band  Eigenvalues  Occupancy
    0    -23.76709    2.00000
    1    -22.41651    2.00000
    2    -22.09196    2.00000
    3    -21.57732    2.00000
    4    -20.95535    2.00000
    5    -19.92981    2.00000
    6    -19.37550    2.00000
    7    -19.15381    2.00000
    8    -19.08171    2.00000
    9    -17.86424    2.00000
   10    -17.37525    2.00000
   11    -17.29845    2.00000
   12    -16.44565    2.00000
   13    -16.16947    2.00000
   14    -15.18403    2.00000
   15    -14.81095    2.00000
   16    -14.21826    2.00000
   17    -13.76585    2.00000
   18    -13.21809    2.00000
   19    -13.05415    2.00000
   20    -12.92962    2.00000
   21    -12.15238    2.00000
   22    -11.63677    2.00000
   23    -11.23540    2.00000
   24    -11.11412    2.00000
   25    -10.94307    2.00000
   26    -10.84034    2.00000
   27     -9.96298    2.00000
   28     -9.83298    2.00000
   29     -9.72290    2.00000
   30     -9.46065    2.00000
   31     -9.10460    2.00000
   32     -8.73276    2.00000
   33     -8.58431    2.00000
   34     -8.19865    2.00000
   35     -7.94502    2.00000
   36     -7.74506    2.00000
   37     -7.27151    2.00000
   38     -7.00050    2.00000
   39     -6.55745    2.00000
   40     -6.48709    2.00000
   41     -6.24539    2.00000
   42     -5.91436    2.00000
   43     -5.89381    2.00000
   44     -5.77666    2.00000
   45     -5.26898    1.99964
   46     -4.74610    1.93490
   47     -4.44049    1.16630
   48     -4.37068    0.82079
   49     -4.04692    0.05320
   50     -3.96135    0.02296
   51     -3.65879    0.00113
   52     -3.62387    0.00079
   53     -3.52200    0.00029
   54     -1.81030    0.00000
   55     -1.71587    0.00000
   56     -1.57512    0.00000
   57     -1.21031    0.00000
   58     -0.37597    0.00000
   59      0.16048    0.00000
   60      0.66949    0.00000
   61      1.21898    0.00000
   62      1.73066    0.00000
   63      2.26842    0.00000
   64      2.76469    0.00000
   65      3.01987    0.00000
   66      3.35535    0.00000
   67      3.58748    0.00000
   68      4.19573    0.00000
   69      4.48183    0.00000
   70      4.71569    0.00000
   71      5.38118    0.00000
   72      5.60950    0.00000
   73      6.03595    0.00000
   74      6.53646    0.00000
   75      6.72002    0.00000
   76      7.10418    0.00000
   77      7.54595    0.00000
   78      7.83720    0.00000
   79      8.02854    0.00000
   80      8.25929    0.00000
   81      8.49181    0.00000
   82      8.68147    0.00000
   83      8.76269    0.00000
   84      9.12620    0.00000
   85      9.21008    0.00000
   86      9.31074    0.00000
   87      9.39695    0.00000
   88      9.54877    0.00000
   89      9.56786    0.00000
   90      9.64559    0.00000
   91      9.81721    0.00000
   92      9.94089    0.00000
   93     10.16567    0.00000
   94     10.28855    0.00000
   95     10.34195    0.00000
   96     10.49484    0.00000
   97     10.61681    0.00000


Forces in eV/Ang:
  0 C     3.83963   -1.35649    0.53625
  1 C    -0.33586    0.29401    0.09979
  2 C     0.73008   -0.40858   -0.88954
  3 C     0.14137    0.65807   -0.08597
  4 C    -1.20861   -0.67142    0.74604
  5 C    -0.18741   -0.13178   -0.04352
  6 C     0.41524   -0.45705   -0.47517
  7 C     7.59348   -2.36846   -1.68034
  8 C    -0.16084   -0.48784    0.31420
  9 C     0.75002   -0.47049   -0.31381
 10 C    -0.00852    0.23407    0.04539
 11 C     1.34492    0.22982   -0.03256
 12 C    -0.97067   -0.92588    0.09959
 13 C    -0.50341    0.04348    0.07883
 14 C    -0.30021   -0.03408   -0.01836
 15 C    -2.23395   -0.02911   -0.65689
 16 C    -4.94527   -1.87402    1.05874
 17 C    -0.22296   -0.15202    0.25842
 18 C    -0.41531    2.87559    0.76903
 19 C     1.28190    0.06779    0.48564
 20 C    -4.00053    3.60581   -0.43188
 21 C     2.06963    0.61318    0.08149
 22 C    -2.78226   -0.01138    0.17402
 23 C     0.10471    0.69040   -0.04866

System changes: positions 

Initializing position-dependent things.

Density initialized from wave functions
           .--------------------------------------.  
          /|                                      |  
         / |                                      |  
        /  |                                      |  
       /   |                                      |  
      /    |                                      |  
     /     |                                      |  
    /      |                                      |  
   /       |                                      |  
  /        |            C                         |  
 *         |    C   CC     C C                    |  
 |         |  C    C    C  C     C                |  
 |         .-C-C-------C-C----C--C----------------.  
 |        /    C C          C                    /   
 |       /          C  C  C  C                  /    
 |      /                                      /     
 |     /                                      /      
 |    /                                      /       
 |   /                                      /        
 |  /                                      /         
 | /                                      /          
 |/                                      /           
 *--------------------------------------*            

Positions:
   0 C      7.474931    7.562275    5.341776
   1 C     10.328557    4.487365    4.385956
   2 C      7.333589    6.149987    5.463177
   3 C      8.745902    8.067567    5.029773
   4 C      6.905284   10.468553    5.031511
   5 C     10.595567    9.363181    4.435951
   6 C      9.403935    3.586596    4.437625
   7 C      6.787734    3.808608    5.013511
   8 C     10.911874    8.123258    4.313830
   9 C      9.912997    7.169523    4.734546
  10 C      9.743104    5.771995    4.799204
  11 C      8.109564    3.961698    4.965270
  12 C      8.411849    5.363747    5.255388
  13 C      8.170690   10.389668    4.889894
  14 C      9.204449    9.466181    4.782424
  15 C      5.351812    8.821787    5.766016
  16 C      5.640434    3.414821    5.316861
  17 C      3.450368    7.613535    5.579167
  18 C      5.812536    6.192638    5.543515
  19 C      4.487028    5.540069    5.448621
  20 C      6.135103    7.639183    5.681682
  21 C      4.012843    8.820564    5.681080
  22 C      4.577662    4.132071    5.357217
  23 C      3.290393    6.334029    5.436238

Unit cell:
           periodic     x           y           z      points  spacing
  1. axis:    yes   16.000000    0.000000    0.000000    80     0.2000
  2. axis:    yes    0.000000   16.000000    0.000000    80     0.2000
  3. axis:    yes    0.000000    0.000000   10.000000    48     0.2083

Effective grid spacing dv^(1/3) = 0.2027

                     log10-error:    total        iterations:
           time      wfs    density  energy       fermi  poisson
iter:   1  09:23:10          +inf  -176.825065    3      5      
iter:   2  09:23:11         -1.85  -176.682466    3      2      
iter:   3  09:23:12         -2.22  -176.664394    2      2      
iter:   4  09:23:12         -2.37  -176.654695    2      2      
iter:   5  09:23:13         -2.61  -176.652189    2      2      
iter:   6  09:23:13         -2.72  -176.652736    2      2      
iter:   7  09:23:14         -2.88  -176.652494    2      2      
iter:   8  09:23:15         -3.13  -176.651713    2      1      
iter:   9  09:23:15         -3.33  -176.651963    2      1      
iter:  10  09:23:16         -3.43  -176.652374    2      1      
iter:  11  09:23:16         -3.63  -176.652315    2      1      
iter:  12  09:23:17         -3.71  -176.652471    2      1      
iter:  13  09:23:17         -3.77  -176.652328    2      1      
iter:  14  09:23:18         -3.84  -176.652166    2      1      
iter:  15  09:23:19         -3.98  -176.652225    2      1      
iter:  16  09:23:19         -4.30  -176.652169    2      1      

Converged after 16 iterations.

Dipole moment: (-0.013208, -0.360535, 0.193372) |e|*Ang

Energy contributions relative to reference atoms: (reference = -24663.074771)

Kinetic:       +133.365861
Potential:     -133.400731
External:        +0.000000
XC:            -179.446918
Entropy (-ST):   -0.323446
Local:           +2.991342
--------------------------
Free energy:   -176.813892
Extrapolated:  -176.652169

Fermi level: -4.41834

 Band  Eigenvalues  Occupancy
    0    -23.69768    2.00000
    1    -22.43712    2.00000
    2    -22.08065    2.00000
    3    -21.46536    2.00000
    4    -20.99284    2.00000
    5    -19.94029    2.00000
    6    -19.37281    2.00000
    7    -19.15396    2.00000
    8    -19.06426    2.00000
    9    -17.84749    2.00000
   10    -17.36357    2.00000
   11    -17.31643    2.00000
   12    -16.41092    2.00000
   13    -16.18003    2.00000
   14    -15.18061    2.00000
   15    -14.80265    2.00000
   16    -14.23324    2.00000
   17    -13.76723    2.00000
   18    -13.24053    2.00000
   19    -13.06090    2.00000
   20    -12.96612    2.00000
   21    -12.12436    2.00000
   22    -11.60643    2.00000
   23    -11.20677    2.00000
   24    -11.09435    2.00000
   25    -10.99109    2.00000
   26    -10.87849    2.00000
   27     -9.97092    2.00000
   28     -9.85166    2.00000
   29     -9.70220    2.00000
   30     -9.42955    2.00000
   31     -9.06341    2.00000
   32     -8.76435    2.00000
   33     -8.60550    2.00000
   34     -8.26858    2.00000
   35     -7.90802    2.00000
   36     -7.73394    2.00000
   37     -7.26786    2.00000
   38     -7.00089    2.00000
   39     -6.60611    2.00000
   40     -6.47466    2.00000
   41     -6.23688    2.00000
   42     -5.90996    2.00000
   43     -5.90234    2.00000
   44     -5.78383    2.00000
   45     -5.29595    1.99969
   46     -4.78031    1.94782
   47     -4.45707    1.19130
   48     -4.37923    0.80690
   49     -4.01587    0.03511
   50     -3.94688    0.01777
   51     -3.63692    0.00081
   52     -3.55657    0.00036
   53     -3.51702    0.00024
   54     -1.81036    0.00000
   55     -1.75370    0.00000
   56     -1.53592    0.00000
   57     -1.16793    0.00000
   58     -0.39447    0.00000
   59      0.15710    0.00000
   60      0.66624    0.00000
   61      1.22931    0.00000
   62      1.78126    0.00000
   63      2.30693    0.00000
   64      2.80518    0.00000
   65      3.02016    0.00000
   66      3.37189    0.00000
   67      3.67312    0.00000
   68      4.28975    0.00000
   69      4.52466    0.00000
   70      4.69748    0.00000
   71      5.42686    0.00000
   72      5.64603    0.00000
   73      6.05007    0.00000
   74      6.58025    0.00000
   75      6.73481    0.00000
   76      7.11605    0.00000
   77      7.56809    0.00000
   78      7.95082    0.00000
   79      7.99799    0.00000
   80      8.25158    0.00000
   81      8.50812    0.00000
   82      8.69289    0.00000
   83      8.77018    0.00000
   84      9.12371    0.00000
   85      9.23759    0.00000
   86      9.30908    0.00000
   87      9.39820    0.00000
   88      9.55056    0.00000
   89      9.57384    0.00000
   90      9.62426    0.00000
   91      9.83423    0.00000
   92      9.91238    0.00000
   93     10.15920    0.00000
   94     10.31299    0.00000
   95     10.36071    0.00000
   96     10.48180    0.00000
   97     10.62352    0.00000


Forces in eV/Ang:
  0 C     3.28143   -0.67947    0.52428
  1 C    -0.23832    0.30215    0.07916
  2 C     0.40482   -0.49419   -0.66038
  3 C     0.01267    0.31391    0.00403
  4 C    -1.09813   -0.62269    0.70936
  5 C    -0.12479   -0.17474   -0.06420
  6 C     0.68212   -0.55839   -0.51888
  7 C     4.89843   -2.94142   -0.98241
  8 C    -0.03408   -0.28822    0.24825
  9 C     0.49912   -0.32069   -0.20881
 10 C    -0.07934    0.10994    0.05418
 11 C     1.10912   -0.19067   -0.04863
 12 C    -0.80335   -0.54015    0.05381
 13 C    -0.46792   -0.02668    0.07553
 14 C    -0.35250    0.04478   -0.01199
 15 C    -1.30304    0.30369   -0.66148
 16 C    -2.74656   -0.93813    0.45932
 17 C    -0.22852    0.05156    0.25570
 18 C    -0.50900    2.35059    0.62308
 19 C     1.07049    0.24502    0.47353
 20 C    -2.84916    2.81001   -0.48646
 21 C     0.89510    0.46909    0.02129
 22 C    -2.38332    0.04968    0.18092
 23 C     0.27112    0.55957   -0.03391

System changes: positions 

Initializing position-dependent things.

Density initialized from wave functions
           .--------------------------------------.  
          /|                                      |  
         / |                                      |  
        /  |                                      |  
       /   |                                      |  
      /    |                                      |  
     /     |                                      |  
    /      |                                      |  
   /       |                                      |  
  /        |            C                         |  
 *         |    C   CC     C C                    |  
 |         |  C    C    C  C     C                |  
 |         .-C-C-------C-C----C--C----------------.  
 |        /    C C          C                    /   
 |       /          C  C  C  C                  /    
 |      /                                      /     
 |     /                                      /      
 |    /                                      /       
 |   /                                      /        
 |  /                                      /         
 | /                                      /          
 |/                                      /           
 *--------------------------------------*            

Positions:
   0 C      7.489310    7.557356    5.350712
   1 C     10.326488    4.489852    4.386582
   2 C      7.333550    6.147872    5.458325
   3 C      8.747924    8.069012    5.029664
   4 C      6.896955   10.462972    5.037785
   5 C     10.594766    9.360865    4.435168
   6 C      9.412308    3.581087    4.432523
   7 C      6.806129    3.773194    5.010771
   8 C     10.911927    8.121915    4.315959
   9 C      9.916631    7.167093    4.732996
  10 C      9.741355    5.772469    4.799972
  11 C      8.121187    3.957922    4.964551
  12 C      8.407508    5.359658    5.255156
  13 C      8.165013   10.389316    4.890784
  14 C      9.201159    9.467450    4.782264
  15 C      5.343725    8.826366    5.759792
  16 C      5.633772    3.416816    5.315405
  17 C      3.448658    7.616479    5.581652
  18 C      5.808892    6.214223    5.548981
  19 C      4.495532    5.543645    5.453082
  20 C      6.125091    7.660237    5.673445
  21 C      4.014665    8.822871    5.680974
  22 C      4.560744    4.129724    5.358533
  23 C      3.293770    6.338905    5.435953

Unit cell:
           periodic     x           y           z      points  spacing
  1. axis:    yes   16.000000    0.000000    0.000000    80     0.2000
  2. axis:    yes    0.000000   16.000000    0.000000    80     0.2000
  3. axis:    yes    0.000000    0.000000   10.000000    48     0.2083

Effective grid spacing dv^(1/3) = 0.2027

                     log10-error:    total        iterations:
           time      wfs    density  energy       fermi  poisson
iter:   1  09:23:21          +inf  -177.279488    3      5      
iter:   2  09:23:22         -1.94  -177.178113    3      2      
iter:   3  09:23:22         -2.39  -177.169016    2      1      
iter:   4  09:23:23         -2.54  -177.164421    2      2      
iter:   5  09:23:24         -2.76  -177.163441    2      1      
iter:   6  09:23:24         -2.85  -177.163633    2      2      
iter:   7  09:23:25         -3.04  -177.163591    2      2      
iter:   8  09:23:25         -2.90  -177.162782    2      1      
iter:   9  09:23:26         -3.30  -177.163311    2      1      
iter:  10  09:23:27         -3.62  -177.163732    2      1      
iter:  11  09:23:27         -3.68  -177.163614    2      1      
iter:  12  09:23:28         -3.93  -177.163616    2      1      
iter:  13  09:23:28         -4.02  -177.163663    2      1      

Converged after 13 iterations.

Dipole moment: (0.003501, -0.318033, 0.194036) |e|*Ang

Energy contributions relative to reference atoms: (reference = -24663.074771)

Kinetic:       +131.690930
Potential:     -132.436210
External:        +0.000000
XC:            -179.240552
Entropy (-ST):   -0.314561
Local:           +2.979449
--------------------------
Free energy:   -177.320944
Extrapolated:  -177.163663

Fermi level: -4.41952

 Band  Eigenvalues  Occupancy
    0    -23.61112    2.00000
    1    -22.42738    2.00000
    2    -22.07351    2.00000
    3    -21.38537    2.00000
    4    -20.98737    2.00000
    5    -19.93949    2.00000
    6    -19.37052    2.00000
    7    -19.14425    2.00000
    8    -19.06719    2.00000
    9    -17.84872    2.00000
   10    -17.37685    2.00000
   11    -17.31492    2.00000
   12    -16.39746    2.00000
   13    -16.19573    2.00000
   14    -15.18060    2.00000
   15    -14.78808    2.00000
   16    -14.25381    2.00000
   17    -13.74539    2.00000
   18    -13.25261    2.00000
   19    -13.07859    2.00000
   20    -12.98877    2.00000
   21    -12.09054    2.00000
   22    -11.57878    2.00000
   23    -11.18381    2.00000
   24    -11.08389    2.00000
   25    -11.00499    2.00000
   26    -10.90160    2.00000
   27     -9.98882    2.00000
   28     -9.87388    2.00000
   29     -9.68366    2.00000
   30     -9.40311    2.00000
   31     -9.02025    2.00000
   32     -8.78887    2.00000
   33     -8.61557    2.00000
   34     -8.29035    2.00000
   35     -7.89414    2.00000
   36     -7.69752    2.00000
   37     -7.27668    2.00000
   38     -7.01978    2.00000
   39     -6.64796    2.00000
   40     -6.47872    2.00000
   41     -6.24097    2.00000
   42     -5.92652    2.00000
   43     -5.91448    2.00000
   44     -5.79761    2.00000
   45     -5.30549    1.99972
   46     -4.79992    1.95641
   47     -4.46492    1.22315
   48     -4.37335    0.77313
   49     -3.99988    0.02965
   50     -3.94184    0.01671
   51     -3.62997    0.00074
   52     -3.52979    0.00027
   53     -3.50673    0.00022
   54     -1.81696    0.00000
   55     -1.76567    0.00000
   56     -1.48389    0.00000
   57     -1.12746    0.00000
   58     -0.40545    0.00000
   59      0.13154    0.00000
   60      0.65914    0.00000
   61      1.23280    0.00000
   62      1.80766    0.00000
   63      2.31467    0.00000
   64      2.84016    0.00000
   65      3.00732    0.00000
   66      3.37862    0.00000
   67      3.69806    0.00000
   68      4.33097    0.00000
   69      4.58440    0.00000
   70      4.70262    0.00000
   71      5.42010    0.00000
   72      5.62525    0.00000
   73      6.02459    0.00000
   74      6.60625    0.00000
   75      6.74621    0.00000
   76      7.13666    0.00000
   77      7.56192    0.00000
   78      7.97444    0.00000
   79      8.07493    0.00000
   80      8.26005    0.00000
   81      8.53293    0.00000
   82      8.70497    0.00000
   83      8.76878    0.00000
   84      9.12784    0.00000
   85      9.26569    0.00000
   86      9.30677    0.00000
   87      9.39511    0.00000
   88      9.54576    0.00000
   89      9.57384    0.00000
   90      9.61328    0.00000
   91      9.84391    0.00000
   92      9.89687    0.00000
   93     10.15158    0.00000
   94     10.33499    0.00000
   95     10.37810    0.00000
   96     10.47770    0.00000
   97     10.60668    0.00000


Forces in eV/Ang:
  0 C     2.18847   -0.42288    0.63108
  1 C    -0.15049    0.32166    0.06141
  2 C     0.04961   -0.26865   -0.45353
  3 C     0.19829    0.20747    0.00469
  4 C    -0.87448   -0.61544    0.66834
  5 C    -0.20384   -0.07735   -0.05572
  6 C     0.75319   -0.59767   -0.50585
  7 C     3.58432   -3.01105   -0.63105
  8 C     0.03828   -0.28160    0.21329
  9 C     0.37410   -0.22848   -0.14760
 10 C    -0.11150    0.07656    0.05135
 11 C     0.99636   -0.43732   -0.08500
 12 C    -0.63030   -0.53770   -0.03757
 13 C    -0.61238   -0.02934    0.09640
 14 C    -0.25828    0.05114   -0.02625
 15 C    -0.89118    0.62291   -0.66685
 16 C    -1.93457   -0.32974    0.19351
 17 C    -0.23362    0.16570    0.24208
 18 C    -0.33245    1.98672    0.48716
 19 C     0.82490    0.29443    0.45999
 20 C    -1.62383    2.15126   -0.57706
 21 C     0.34682    0.48009    0.00156
 22 C    -1.79531   -0.06915    0.14420
 23 C     0.34794    0.41697   -0.02199

System changes: positions 

Initializing position-dependent things.

Density initialized from wave functions
           .--------------------------------------.  
          /|                                      |  
         / |                                      |  
        /  |                                      |  
       /   |                                      |  
      /    |                                      |  
     /     |                                      |  
    /      |                                      |  
   /       |                                      |  
  /        |            C                         |  
 *         |    C   CC     C C                    |  
 |         |  C    C    C  C     C                |  
 |         .-C-C-------C-C----C--C----------------.  
 |        /    C C          C                    /   
 |       /          C  C  C  C                  /    
 |      /                                      /     
 |     /                                      /      
 |    /                                      /       
 |   /                                      /        
 |  /                                      /         
 | /                                      /          
 |/                                      /           
 *--------------------------------------*            

Positions:
   0 C      7.500701    7.554141    5.359610
   1 C     10.325211    4.492983    4.387102
   2 C      7.331489    6.146960    5.454784
   3 C      8.751450    8.070199    5.029612
   4 C      6.889452   10.456760    5.044398
   5 C     10.592603    9.360010    4.434537
   6 C      9.421316    3.574693    4.427210
   7 C      6.823745    3.737330    5.008909
   8 C     10.912673    8.119654    4.317978
   9 C      9.919682    7.165219    4.731823
  10 C      9.739594    5.772961    4.800640
  11 C      8.132163    3.951786    4.963413
  12 C      8.402943    5.354729    5.254211
  13 C      8.157689   10.388973    4.891916
  14 C      9.198805    9.468398    4.781927
  15 C      5.337436    8.834336    5.752883
  16 C      5.627581    3.420751    5.313354
  17 C      3.446491    7.619798    5.584169
  18 C      5.806388    6.233577    5.553497
  19 C      4.502649    5.547614    5.457821
  20 C      6.119819    7.678361    5.665365
  21 C      4.013832    8.826814    5.680802
  22 C      4.546165    4.127448    5.359731
  23 C      3.297981    6.342517    5.435759

Unit cell:
           periodic     x           y           z      points  spacing
  1. axis:    yes   16.000000    0.000000    0.000000    80     0.2000
  2. axis:    yes    0.000000   16.000000    0.000000    80     0.2000
  3. axis:    yes    0.000000    0.000000   10.000000    48     0.2083

Effective grid spacing dv^(1/3) = 0.2027

                     log10-error:    total        iterations:
           time      wfs    density  energy       fermi  poisson
iter:   1  09:23:30          +inf  -177.651102    3      5      
iter:   2  09:23:31         -2.02  -177.574521    3      2      
iter:   3  09:23:31         -2.46  -177.567866    2      1      
iter:   4  09:23:32         -2.61  -177.564155    2      2      
iter:   5  09:23:33         -2.83  -177.563916    2      1      
iter:   6  09:23:33         -2.92  -177.563652    2      2      
iter:   7  09:23:34         -3.14  -177.563583    2      1      
iter:   8  09:23:34         -3.17  -177.563060    2      1      
iter:   9  09:23:35         -3.53  -177.563507    2      1      
iter:  10  09:23:35         -3.70  -177.563542    2      1      
iter:  11  09:23:36         -3.84  -177.563483    2      1      
iter:  12  09:23:37         -4.00  -177.563438    2      1      

Converged after 12 iterations.

Dipole moment: (0.021952, -0.283957, 0.194989) |e|*Ang

Energy contributions relative to reference atoms: (reference = -24663.074771)

Kinetic:       +129.504630
Potential:     -130.982309
External:        +0.000000
XC:            -178.902255
Entropy (-ST):   -0.306097
Local:           +2.969543
--------------------------
Free energy:   -177.716487
Extrapolated:  -177.563438

Fermi level: -4.42402

 Band  Eigenvalues  Occupancy
    0    -23.55993    2.00000
    1    -22.42125    2.00000
    2    -22.07204    2.00000
    3    -21.34094    2.00000
    4    -20.94900    2.00000
    5    -19.93223    2.00000
    6    -19.36607    2.00000
    7    -19.13402    2.00000
    8    -19.05635    2.00000
    9    -17.84689    2.00000
   10    -17.39436    2.00000
   11    -17.30376    2.00000
   12    -16.38682    2.00000
   13    -16.21348    2.00000
   14    -15.18456    2.00000
   15    -14.77953    2.00000
   16    -14.26612    2.00000
   17    -13.72079    2.00000
   18    -13.25974    2.00000
   19    -13.10146    2.00000
   20    -13.00187    2.00000
   21    -12.06385    2.00000
   22    -11.55940    2.00000
   23    -11.16870    2.00000
   24    -11.10092    2.00000
   25    -11.00492    2.00000
   26    -10.91352    2.00000
   27    -10.00489    2.00000
   28     -9.89286    2.00000
   29     -9.67017    2.00000
   30     -9.38445    2.00000
   31     -8.98830    2.00000
   32     -8.80511    2.00000
   33     -8.61998    2.00000
   34     -8.31292    2.00000
   35     -7.89363    2.00000
   36     -7.64765    2.00000
   37     -7.28434    2.00000
   38     -7.03474    2.00000
   39     -6.67470    2.00000
   40     -6.48042    2.00000
   41     -6.23833    2.00000
   42     -5.94242    2.00000
   43     -5.92755    2.00000
   44     -5.81203    2.00000
   45     -5.30272    1.99969
   46     -4.82197    1.96330
   47     -4.47867    1.26665
   48     -4.36762    0.72524
   49     -4.00044    0.02852
   50     -3.93873    0.01549
   51     -3.62684    0.00069
   52     -3.53196    0.00027
   53     -3.47363    0.00015
   54     -1.83100    0.00000
   55     -1.77674    0.00000
   56     -1.44716    0.00000
   57     -1.08744    0.00000
   58     -0.41559    0.00000
   59      0.12256    0.00000
   60      0.64211    0.00000
   61      1.23251    0.00000
   62      1.82273    0.00000
   63      2.32837    0.00000
   64      2.86426    0.00000
   65      2.99417    0.00000
   66      3.38127    0.00000
   67      3.71020    0.00000
   68      4.33885    0.00000
   69      4.60771    0.00000
   70      4.72315    0.00000
   71      5.38843    0.00000
   72      5.59388    0.00000
   73      5.99628    0.00000
   74      6.60022    0.00000
   75      6.75420    0.00000
   76      7.16496    0.00000
   77      7.52112    0.00000
   78      7.95339    0.00000
   79      8.17119    0.00000
   80      8.27249    0.00000
   81      8.55265    0.00000
   82      8.71275    0.00000
   83      8.76290    0.00000
   84      9.13620    0.00000
   85      9.28669    0.00000
   86      9.30488    0.00000
   87      9.38527    0.00000
   88      9.53740    0.00000
   89      9.57016    0.00000
   90      9.60673    0.00000
   91      9.84316    0.00000
   92      9.89088    0.00000
   93     10.14454    0.00000
   94     10.34990    0.00000
   95     10.38458    0.00000
   96     10.47535    0.00000
   97     10.57696    0.00000


Forces in eV/Ang:
  0 C     1.54558   -0.18646    0.61733
  1 C    -0.11183    0.31115    0.04392
  2 C    -0.09498   -0.21492   -0.29378
  3 C     0.22525    0.10023    0.03556
  4 C    -0.81651   -0.62676    0.65263
  5 C    -0.19907   -0.14814   -0.06970
  6 C     0.85406   -0.58954   -0.48171
  7 C     2.44883   -3.01337   -0.32085
  8 C     0.07389   -0.12402    0.18534
  9 C     0.27929   -0.15388   -0.09400
 10 C    -0.16360    0.01976    0.05458
 11 C     0.85365   -0.59932   -0.10183
 12 C    -0.54466   -0.45889   -0.10067
 13 C    -0.56772   -0.09007    0.09420
 14 C    -0.25395    0.11645   -0.03146
 15 C    -0.57048    0.81527   -0.68448
 16 C    -1.14302    0.08725   -0.02886
 17 C    -0.18939    0.24564    0.23303
 18 C    -0.25851    1.63156    0.35601
 19 C     0.64544    0.31342    0.41592
 20 C    -0.92571    1.72184   -0.56331
 21 C    -0.04296    0.46808   -0.02135
 22 C    -1.39451   -0.09894    0.12022
 23 C     0.38792    0.37281    0.00189

System changes: positions 

Initializing position-dependent things.

Density initialized from wave functions
           .--------------------------------------.  
          /|                                      |  
         / |                                      |  
        /  |                                      |  
       /   |                                      |  
      /    |                                      |  
     /     |                                      |  
    /      |                                      |  
   /       |                                      |  
  /        |            C                         |  
 *         |    C   CC     C C                    |  
 |         |  C    C    C  C     C                |  
 |         .-C-C-------C-C----C--C----------------.  
 |        /    C C          C                    /   
 |       /          C  C  C  C                  /    
 |      /                                      /     
 |     /                                      /      
 |    /                                      /       
 |   /                                      /        
 |  /                                      /         
 | /                                      /          
 |/                                      /           
 *--------------------------------------*            

Positions:
   0 C      7.511359    7.552658    5.367841
   1 C     10.324104    4.496373    4.387510
   2 C      7.329061    6.145653    5.452239
   3 C      8.754931    8.070843    5.029971
   4 C      6.881005   10.449646    5.051660
   5 C     10.590256    9.358188    4.433702
   6 C      9.431743    3.567960    4.421768
   7 C      6.839901    3.700747    5.008116
   8 C     10.913692    8.118784    4.319968
   9 C      9.922387    7.163784    4.730991
  10 C      9.737341    5.773006    4.801337
  11 C      8.142164    3.944020    4.962078
  12 C      8.397789    5.349819    5.252681
  13 C      8.150806   10.387840    4.893051
  14 C      9.196153    9.470023    4.781516
  15 C      5.332528    8.844590    5.745050
  16 C      5.622901    3.426008    5.310634
  17 C      3.444581    7.623498    5.586810
  18 C      5.804121    6.251014    5.557071
  19 C      4.508978    5.551648    5.462455
  20 C      6.116051    7.695431    5.657939
  21 C      4.011018    8.831696    5.680454
  22 C      4.532913    4.125491    5.360887
  23 C      3.302701    6.346312    5.435839

Unit cell:
           periodic     x           y           z      points  spacing
  1. axis:    yes   16.000000    0.000000    0.000000    80     0.2000
  2. axis:    yes    0.000000   16.000000    0.000000    80     0.2000
  3. axis:    yes    0.000000    0.000000   10.000000    48     0.2083

Effective grid spacing dv^(1/3) = 0.2027

                     log10-error:    total        iterations:
           time      wfs    density  energy       fermi  poisson
iter:   1  09:23:39          +inf  -177.978643    3      5      
iter:   2  09:23:39         -2.05  -177.911440    3      2      
iter:   3  09:23:40         -2.52  -177.905788    2      1      
iter:   4  09:23:40         -2.67  -177.902699    2      2      
iter:   5  09:23:41         -2.88  -177.902733    2      1      
iter:   6  09:23:42         -2.96  -177.902247    2      2      
iter:   7  09:23:42         -3.19  -177.902524    2      1      
iter:   8  09:23:43         -3.37  -177.902092    2      1      
iter:   9  09:23:43         -3.65  -177.902011    2      1      
iter:  10  09:23:44         -3.77  -177.902071    2      1      
iter:  11  09:23:44         -3.88  -177.901982    2      1      
iter:  12  09:23:45         -4.02  -177.901942    2      1      

Converged after 12 iterations.

Dipole moment: (0.042617, -0.245777, 0.195390) |e|*Ang

Energy contributions relative to reference atoms: (reference = -24663.074771)

Kinetic:       +127.047710
Potential:     -129.276249
External:        +0.000000
XC:            -178.490769
Entropy (-ST):   -0.297490
Local:           +2.966111
--------------------------
Free energy:   -178.050688
Extrapolated:  -177.901942

Fermi level: -4.42521

 Band  Eigenvalues  Occupancy
    0    -23.51044    2.00000
    1    -22.40810    2.00000
    2    -22.07063    2.00000
    3    -21.31169    2.00000
    4    -20.89607    2.00000
    5    -19.92093    2.00000
    6    -19.36059    2.00000
    7    -19.13023    2.00000
    8    -19.04047    2.00000
    9    -17.84807    2.00000
   10    -17.40852    2.00000
   11    -17.28739    2.00000
   12    -16.38016    2.00000
   13    -16.22804    2.00000
   14    -15.18887    2.00000
   15    -14.77130    2.00000
   16    -14.27690    2.00000
   17    -13.68736    2.00000
   18    -13.26298    2.00000
   19    -13.12012    2.00000
   20    -13.01493    2.00000
   21    -12.04054    2.00000
   22    -11.54351    2.00000
   23    -11.15753    2.00000
   24    -11.12110    2.00000
   25    -10.99272    2.00000
   26    -10.91678    2.00000
   27    -10.01996    2.00000
   28     -9.90602    2.00000
   29     -9.65740    2.00000
   30     -9.36979    2.00000
   31     -8.96138    2.00000
   32     -8.81636    2.00000
   33     -8.61827    2.00000
   34     -8.33267    2.00000
   35     -7.89765    2.00000
   36     -7.59066    2.00000
   37     -7.29585    2.00000
   38     -7.05211    2.00000
   39     -6.69580    2.00000
   40     -6.48636    2.00000
   41     -6.24301    2.00000
   42     -5.95770    2.00000
   43     -5.94294    2.00000
   44     -5.82643    2.00000
   45     -5.29433    1.99966
   46     -4.83943    1.96872
   47     -4.48974    1.31190
   48     -4.35800    0.67604
   49     -3.99938    0.02790
   50     -3.93506    0.01476
   51     -3.61992    0.00064
   52     -3.53468    0.00027
   53     -3.44638    0.00011
   54     -1.84111    0.00000
   55     -1.78428    0.00000
   56     -1.42061    0.00000
   57     -1.04780    0.00000
   58     -0.42882    0.00000
   59      0.10642    0.00000
   60      0.62741    0.00000
   61      1.23298    0.00000
   62      1.82987    0.00000
   63      2.33682    0.00000
   64      2.88392    0.00000
   65      2.98110    0.00000
   66      3.38154    0.00000
   67      3.70733    0.00000
   68      4.32647    0.00000
   69      4.59875    0.00000
   70      4.76388    0.00000
   71      5.33792    0.00000
   72      5.55084    0.00000
   73      5.95282    0.00000
   74      6.57146    0.00000
   75      6.77196    0.00000
   76      7.20259    0.00000
   77      7.46744    0.00000
   78      7.93816    0.00000
   79      8.24555    0.00000
   80      8.29880    0.00000
   81      8.56963    0.00000
   82      8.72096    0.00000
   83      8.75305    0.00000
   84      9.15051    0.00000
   85      9.29744    0.00000
   86      9.31237    0.00000
   87      9.37566    0.00000
   88      9.52876    0.00000
   89      9.56386    0.00000
   90      9.60114    0.00000
   91      9.83053    0.00000
   92      9.89483    0.00000
   93     10.13814    0.00000
   94     10.35920    0.00000
   95     10.39038    0.00000
   96     10.47499    0.00000
   97     10.54800    0.00000


Forces in eV/Ang:
  0 C     0.97957   -0.07421    0.61246
  1 C    -0.05289    0.31226    0.01857
  2 C    -0.21913   -0.10518   -0.16591
  3 C     0.26500    0.04931    0.05422
  4 C    -0.67471   -0.63553    0.62374
  5 C    -0.24357   -0.09048   -0.07186
  6 C     0.82180   -0.55071   -0.42031
  7 C     1.57082   -2.92488   -0.11384
  8 C     0.11823   -0.12018    0.15860
  9 C     0.19983   -0.10084   -0.05149
 10 C    -0.19261   -0.00062    0.05198
 11 C     0.75739   -0.71359   -0.12043
 12 C    -0.44800   -0.44376   -0.16204
 13 C    -0.68321   -0.10664    0.11084
 14 C    -0.21204    0.11728   -0.03706
 15 C    -0.35892    0.95175   -0.69923
 16 C    -0.54010    0.38108   -0.18999
 17 C    -0.13865    0.31202    0.22246
 18 C    -0.15735    1.33218    0.26069
 19 C     0.51238    0.31466    0.38290
 20 C    -0.39360    1.37043   -0.53838
 21 C    -0.27571    0.46144   -0.03234
 22 C    -1.00318   -0.08646    0.12068
 23 C     0.40123    0.33388    0.03023

System changes: positions 

Initializing position-dependent things.

Density initialized from wave functions
           .--------------------------------------.  
          /|                                      |  
         / |                                      |  
        /  |                                      |  
       /   |                                      |  
      /    |                                      |  
     /     |                                      |  
    /      |                                      |  
   /       |                                      |  
  /        |            C                         |  
 *         |    C   CC     C C                    |  
 |         |  C    C    C  C     C                |  
 |         .-C-C-------C-C----C--C----------------.  
 |        /    C C          C                    /   
 |       /          C  C  C  C                  /    
 |      /                                      /     
 |     /                                      /      
 |    /                                      /       
 |   /                                      /        
 |  /                                      /         
 | /                                      /          
 |/                                      /           
 *--------------------------------------*            

Positions:
   0 C      7.520966    7.551623    5.375806
   1 C     10.323523    4.500197    4.387673
   2 C      7.326106    6.144881    5.450478
   3 C      8.758660    8.071470    5.030615
   4 C      6.872926   10.441631    5.059403
   5 C     10.587037    9.357134    4.432804
   6 C      9.442062    3.561207    4.416663
   7 C      6.855083    3.663742    5.007753
   8 C     10.915215    8.117340    4.321910
   9 C      9.924773    7.162608    4.730433
  10 C      9.734792    5.773013    4.802005
  11 C      8.151837    3.934850    4.960474
  12 C      8.392439    5.344233    5.250479
  13 C      8.141984   10.386468    4.894475
  14 C      9.193711    9.471533    4.781018
  15 C      5.328197    8.856780    5.736250
  16 C      5.619467    3.432106    5.307393
  17 C      3.443044    7.627684    5.589575
  18 C      5.802529    6.267014    5.560080
  19 C      4.514949    5.555693    5.467156
  20 C      6.113196    7.711832    5.651051
  21 C      4.007374    8.837476    5.680043
  22 C      4.521425    4.124300    5.362325
  23 C      3.307734    6.350278    5.436276

Unit cell:
           periodic     x           y           z      points  spacing
  1. axis:    yes   16.000000    0.000000    0.000000    80     0.2000
  2. axis:    yes    0.000000   16.000000    0.000000    80     0.2000
  3. axis:    yes    0.000000    0.000000   10.000000    48     0.2083

Effective grid spacing dv^(1/3) = 0.2027

                     log10-error:    total        iterations:
           time      wfs    density  energy       fermi  poisson
iter:   1  09:23:47          +inf  -178.264816    3      5      
iter:   2  09:23:48         -2.09  -178.205104    3      2      
iter:   3  09:23:48         -2.54  -178.199489    3      1      
iter:   4  09:23:49         -2.68  -178.196621    2      2      
iter:   5  09:23:49         -2.89  -178.196901    2      1      
iter:   6  09:23:50         -2.97  -178.196199    2      2      
iter:   7  09:23:51         -3.21  -178.196386    2      1      
iter:   8  09:23:51         -3.44  -178.196113    2      1      
iter:   9  09:23:52         -3.61  -178.195934    2      1      
iter:  10  09:23:52         -3.73  -178.195958    2      1      
iter:  11  09:23:53         -3.87  -178.195803    2      1      
iter:  12  09:23:53         -4.02  -178.195764    1      1      

Converged after 12 iterations.

Dipole moment: (0.063992, -0.213194, 0.195517) |e|*Ang

Energy contributions relative to reference atoms: (reference = -24663.074771)

Kinetic:       +124.370021
Potential:     -127.356166
External:        +0.000000
XC:            -178.023566
Entropy (-ST):   -0.289435
Local:           +2.958665
--------------------------
Free energy:   -178.340481
Extrapolated:  -178.195764

Fermi level: -4.42816

 Band  Eigenvalues  Occupancy
    0    -23.46962    2.00000
    1    -22.39518    2.00000
    2    -22.06821    2.00000
    3    -21.29078    2.00000
    4    -20.84277    2.00000
    5    -19.90840    2.00000
    6    -19.35365    2.00000
    7    -19.12770    2.00000
    8    -19.01654    2.00000
    9    -17.85045    2.00000
   10    -17.42125    2.00000
   11    -17.27157    2.00000
   12    -16.37257    2.00000
   13    -16.24577    2.00000
   14    -15.19369    2.00000
   15    -14.76364    2.00000
   16    -14.28331    2.00000
   17    -13.65630    2.00000
   18    -13.26218    2.00000
   19    -13.13719    2.00000
   20    -13.02374    2.00000
   21    -12.02178    2.00000
   22    -11.52929    2.00000
   23    -11.15618    2.00000
   24    -11.13600    2.00000
   25    -10.97977    2.00000
   26    -10.91455    2.00000
   27    -10.03331    2.00000
   28     -9.91526    2.00000
   29     -9.64632    2.00000
   30     -9.35892    2.00000
   31     -8.94135    2.00000
   32     -8.82563    2.00000
   33     -8.61465    2.00000
   34     -8.35628    2.00000
   35     -7.90307    2.00000
   36     -7.53662    2.00000
   37     -7.30675    2.00000
   38     -7.06636    2.00000
   39     -6.71102    2.00000
   40     -6.49100    2.00000
   41     -6.24332    2.00000
   42     -5.97290    2.00000
   43     -5.96192    2.00000
   44     -5.84057    2.00000
   45     -5.27801    1.99959
   46     -4.85720    1.97297
   47     -4.50237    1.35489
   48     -4.35011    0.62841
   49     -4.00684    0.02916
   50     -3.93284    0.01402
   51     -3.61691    0.00060
   52     -3.53913    0.00028
   53     -3.41657    0.00008
   54     -1.84823    0.00000
   55     -1.79194    0.00000
   56     -1.40328    0.00000
   57     -1.01675    0.00000
   58     -0.43808    0.00000
   59      0.10476    0.00000
   60      0.60804    0.00000
   61      1.23132    0.00000
   62      1.83157    0.00000
   63      2.34574    0.00000
   64      2.90085    0.00000
   65      2.96911    0.00000
   66      3.38003    0.00000
   67      3.69876    0.00000
   68      4.30121    0.00000
   69      4.57896    0.00000
   70      4.79991    0.00000
   71      5.27458    0.00000
   72      5.50450    0.00000
   73      5.90384    0.00000
   74      6.53189    0.00000
   75      6.79156    0.00000
   76      7.24240    0.00000
   77      7.40621    0.00000
   78      7.92389    0.00000
   79      8.26657    0.00000
   80      8.36436    0.00000
   81      8.58241    0.00000
   82      8.72791    0.00000
   83      8.74436    0.00000
   84      9.16573    0.00000
   85      9.29319    0.00000
   86      9.32704    0.00000
   87      9.36401    0.00000
   88      9.52051    0.00000
   89      9.55642    0.00000
   90      9.59526    0.00000
   91      9.81582    0.00000
   92      9.89891    0.00000
   93     10.13200    0.00000
   94     10.36225    0.00000
   95     10.39408    0.00000
   96     10.47592    0.00000
   97     10.52616    0.00000


Forces in eV/Ang:
  0 C     0.51975    0.03782    0.57905
  1 C    -0.02704    0.27782   -0.00260
  2 C    -0.26983   -0.07171   -0.07445
  3 C     0.26761   -0.00118    0.07954
  4 C    -0.67765   -0.66845    0.61759
  5 C    -0.24656   -0.11190   -0.08194
  6 C     0.83664   -0.50370   -0.39990
  7 C     0.82380   -2.79377    0.09224
  8 C     0.13100   -0.03537    0.13848
  9 C     0.13270   -0.04833   -0.01545
 10 C    -0.22056   -0.03294    0.04678
 11 C     0.60556   -0.80022   -0.12294
 12 C    -0.39596   -0.39729   -0.19257
 13 C    -0.63779   -0.17718    0.11114
 14 C    -0.21648    0.14989   -0.03878
 15 C    -0.11326    1.00715   -0.70153
 16 C    -0.01855    0.58007   -0.31617
 17 C    -0.07993    0.35771    0.20967
 18 C    -0.08699    1.08314    0.16048
 19 C     0.38173    0.32209    0.34784
 20 C     0.01051    1.07126   -0.50258
 21 C    -0.44336    0.46311   -0.04948
 22 C    -0.63283   -0.10264    0.10437
 23 C     0.39907    0.31404    0.06102

System changes: positions 

Initializing position-dependent things.

Density initialized from wave functions
           .--------------------------------------.  
          /|                                      |  
         / |                                      |  
        /  |                                      |  
       /   |                                      |  
      /    |                                      |  
     /     |                                      |  
    /      |                                      |  
   /       |                                      |  
  /        |            C                         |  
 *         |    C   CC     C C                    |  
 |         |  C    C    C  C     C                |  
 |         .-C-C-------C-C----C--C----------------.  
 |        /    C C          C                    /   
 |       /          C  C  C  C                  /    
 |      /                                      /     
 |     /                                      /      
 |    /                                      /       
 |   /                                      /        
 |  /                                      /         
 | /                                      /          
 |/                                      /           
 *--------------------------------------*            

Positions:
   0 C      7.529668    7.551189    5.383392
   1 C     10.323047    4.503961    4.387631
   2 C      7.323291    6.143811    5.449151
   3 C      8.762320    8.071981    5.031638
   4 C      6.863316   10.432320    5.067962
   5 C     10.583493    9.355726    4.431715
   6 C      9.453101    3.554507    4.411295
   7 C      6.869415    3.626401    5.008251
   8 C     10.916849    8.116541    4.323882
   9 C      9.926921    7.161750    4.730104
  10 C      9.731878    5.772768    4.802620
  11 C      8.160421    3.924412    4.958790
  12 C      8.386484    5.338395    5.247937
  13 C      8.133304   10.384064    4.895989
  14 C      9.190847    9.473436    4.780475
  15 C      5.325284    8.870061    5.726595
  16 C      5.617253    3.438515    5.303739
  17 C      3.442029    7.632258    5.592445
  18 C      5.801346    6.282176    5.562377
  19 C      4.520430    5.559917    5.471906
  20 C      6.110835    7.727816    5.644606
  21 C      4.003264    8.844213    5.679454
  22 C      4.511982    4.123250    5.363781
  23 C      3.312950    6.354656    5.437128

Unit cell:
           periodic     x           y           z      points  spacing
  1. axis:    yes   16.000000    0.000000    0.000000    80     0.2000
  2. axis:    yes    0.000000   16.000000    0.000000    80     0.2000
  3. axis:    yes    0.000000    0.000000   10.000000    48     0.2083

Effective grid spacing dv^(1/3) = 0.2027

                     log10-error:    total        iterations:
           time      wfs    density  energy       fermi  poisson
iter:   1  09:23:55          +inf  -178.522477    3      5      
iter:   2  09:23:56         -2.11  -178.468095    3      2      
iter:   3  09:23:57         -2.54  -178.462206    3      1      
iter:   4  09:23:57         -2.69  -178.459252    2      2      
iter:   5  09:23:58         -2.89  -178.459714    2      1      
iter:   6  09:23:58         -2.97  -178.458820    2      2      
iter:   7  09:23:59         -3.22  -178.459158    2      1      
iter:   8  09:23:59         -3.44  -178.458754    2      1      
iter:   9  09:24:00         -3.61  -178.458492    2      1      
iter:  10  09:24:01         -3.72  -178.458522    1      1      
iter:  11  09:24:01         -3.86  -178.458331    2      1      
iter:  12  09:24:02         -4.02  -178.458294    1      1      

Converged after 12 iterations.

Dipole moment: (0.085714, -0.178077, 0.195186) |e|*Ang

Energy contributions relative to reference atoms: (reference = -24663.074771)

Kinetic:       +121.489519
Potential:     -125.254090
External:        +0.000000
XC:            -177.506721
Entropy (-ST):   -0.281062
Local:           +2.953529
--------------------------
Free energy:   -178.598825
Extrapolated:  -178.458294

Fermi level: -4.42863

 Band  Eigenvalues  Occupancy
    0    -23.43013    2.00000
    1    -22.37864    2.00000
    2    -22.06347    2.00000
    3    -21.26935    2.00000
    4    -20.79012    2.00000
    5    -19.89492    2.00000
    6    -19.34671    2.00000
    7    -19.12872    2.00000
    8    -18.99056    2.00000
    9    -17.85393    2.00000
   10    -17.43203    2.00000
   11    -17.25183    2.00000
   12    -16.36778    2.00000
   13    -16.25971    2.00000
   14    -15.19663    2.00000
   15    -14.75657    2.00000
   16    -14.28657    2.00000
   17    -13.62154    2.00000
   18    -13.25845    2.00000
   19    -13.14967    2.00000
   20    -13.03269    2.00000
   21    -12.00779    2.00000
   22    -11.51527    2.00000
   23    -11.16980    2.00000
   24    -11.13276    2.00000
   25    -10.96503    2.00000
   26    -10.90774    2.00000
   27    -10.04791    2.00000
   28     -9.91983    2.00000
   29     -9.63508    2.00000
   30     -9.34863    2.00000
   31     -8.92718    2.00000
   32     -8.83214    2.00000
   33     -8.60682    2.00000
   34     -8.38313    2.00000
   35     -7.90883    2.00000
   36     -7.48461    2.00000
   37     -7.32091    2.00000
   38     -7.08094    2.00000
   39     -6.72403    2.00000
   40     -6.49644    2.00000
   41     -6.24558    2.00000
   42     -5.99177    2.00000
   43     -5.97925    2.00000
   44     -5.85289    2.00000
   45     -5.25725    1.99950
   46     -4.87353    1.97689
   47     -4.51248    1.39626
   48     -4.33963    0.58220
   49     -4.01186    0.03050
   50     -3.93139    0.01376
   51     -3.61091    0.00056
   52     -3.54139    0.00028
   53     -3.38940    0.00006
   54     -1.85215    0.00000
   55     -1.79724    0.00000
   56     -1.39267    0.00000
   57     -0.99437    0.00000
   58     -0.45227    0.00000
   59      0.09640    0.00000
   60      0.58762    0.00000
   61      1.23059    0.00000
   62      1.82905    0.00000
   63      2.35205    0.00000
   64      2.91367    0.00000
   65      2.95440    0.00000
   66      3.37709    0.00000
   67      3.68387    0.00000
   68      4.26637    0.00000
   69      4.55562    0.00000
   70      4.82861    0.00000
   71      5.20477    0.00000
   72      5.46274    0.00000
   73      5.84476    0.00000
   74      6.48963    0.00000
   75      6.80946    0.00000
   76      7.28133    0.00000
   77      7.34622    0.00000
   78      7.90812    0.00000
   79      8.27076    0.00000
   80      8.43113    0.00000
   81      8.59305    0.00000
   82      8.73356    0.00000
   83      8.73544    0.00000
   84      9.18345    0.00000
   85      9.28315    0.00000
   86      9.33982    0.00000
   87      9.35488    0.00000
   88      9.51095    0.00000
   89      9.54828    0.00000
   90      9.58856    0.00000
   91      9.79981    0.00000
   92      9.90093    0.00000
   93     10.12696    0.00000
   94     10.35910    0.00000
   95     10.39675    0.00000
   96     10.47839    0.00000
   97     10.50897    0.00000


Forces in eV/Ang:
  0 C     0.12704    0.10807    0.53149
  1 C     0.00981    0.26084   -0.01843
  2 C    -0.33539    0.00165    0.00371
  3 C     0.26587   -0.04022    0.10007
  4 C    -0.59183   -0.69115    0.58537
  5 C    -0.26177   -0.07948   -0.08515
  6 C     0.79317   -0.45974   -0.32461
  7 C     0.20729   -2.62289    0.22953
  8 C     0.14526   -0.00754    0.11749
  9 C     0.07068   -0.01345    0.01608
 10 C    -0.24226   -0.05083    0.04180
 11 C     0.51972   -0.83531   -0.16817
 12 C    -0.32556   -0.39009   -0.22211
 13 C    -0.73720   -0.21243    0.13432
 14 C    -0.18768    0.13504   -0.04099
 15 C     0.02205    1.05927   -0.73480
 16 C     0.43592    0.71344   -0.40806
 17 C    -0.00982    0.41963    0.19461
 18 C    -0.03215    0.86519    0.08715
 19 C     0.27953    0.32868    0.30304
 20 C     0.35944    0.80644   -0.45749
 21 C    -0.51732    0.45727   -0.06597
 22 C    -0.34820   -0.09917    0.08546
 23 C     0.38314    0.28252    0.09122

System changes: positions 

Initializing position-dependent things.

Density initialized from wave functions
           .--------------------------------------.  
          /|                                      |  
         / |                                      |  
        /  |                                      |  
       /   |                                      |  
      /    |                                      |  
     /     |                                      |  
    /      |                                      |  
   /       |                                      |  
  /        |            C                         |  
 *         |    C   CC     C C                    |  
 |         | CC    C    C  C     C                |  
 |         .----C------C-C----C--C----------------.  
 |        /    C C          C                    /   
 |       /          C  C  C  C                  /    
 |      /                                      /     
 |     /                                      /      
 |    /                                      /       
 |   /                                      /        
 |  /                                      /         
 | /                                      /          
 |/                                      /           
 *--------------------------------------*            

Positions:
   0 C      7.537606    7.551054    5.390500
   1 C     10.322885    4.507927    4.387436
   2 C      7.320148    6.143091    5.448232
   3 C      8.765904    8.072386    5.033019
   4 C      6.853468   10.421769    5.077007
   5 C     10.579429    9.354687    4.430507
   6 C      9.464227    3.547767    4.406431
[...]
    7    -19.16536    2.00000
    8    -18.84975    2.00000
    9    -18.21529    2.00000
   10    -17.68862    2.00000
   11    -17.17358    2.00000
   12    -16.62068    2.00000
   13    -16.32646    2.00000
   14    -15.18217    2.00000
   15    -14.75770    2.00000
   16    -14.22157    2.00000
   17    -13.94081    2.00000
   18    -13.39502    2.00000
   19    -13.05622    2.00000
   20    -12.93483    2.00000
   21    -12.27168    2.00000
   22    -11.47231    2.00000
   23    -11.28269    2.00000
   24    -11.18890    2.00000
   25    -11.14816    2.00000
   26    -11.07384    2.00000
   27    -10.63898    2.00000
   28    -10.01895    2.00000
   29     -9.89210    2.00000
   30     -9.69033    2.00000
   31     -9.31549    2.00000
   32     -8.95682    2.00000
   33     -8.77586    2.00000
   34     -8.67745    2.00000
   35     -8.14227    2.00000
   36     -7.22861    2.00000
   37     -7.14625    2.00000
   38     -7.08270    2.00000
   39     -6.89157    2.00000
   40     -6.79948    2.00000
   41     -6.52979    2.00000
   42     -6.30319    2.00000
   43     -6.17332    2.00000
   44     -5.91627    2.00000
   45     -4.99685    1.99697
   46     -4.78611    1.97531
   47     -4.47278    1.55416
   48     -4.17229    0.29453
   49     -4.06593    0.11253
   50     -4.00853    0.06498
   51     -3.58168    0.00094
   52     -3.53450    0.00059
   53     -2.28361    0.00000
   54     -2.13388    0.00000
   55     -1.50705    0.00000
   56     -1.38830    0.00000
   57     -0.69450    0.00000
   58     -0.43671    0.00000
   59      0.20860    0.00000
   60      1.41352    0.00000
   61      1.92336    0.00000
   62      2.64037    0.00000
   63      2.69178    0.00000
   64      3.00150    0.00000
   65      3.28693    0.00000
   66      3.53394    0.00000
   67      3.90104    0.00000
   68      4.39140    0.00000
   69      4.57048    0.00000
   70      5.00122    0.00000
   71      5.30060    0.00000
   72      5.59327    0.00000
   73      5.83793    0.00000
   74      6.03516    0.00000
   75      6.65444    0.00000
   76      6.97291    0.00000
   77      7.57101    0.00000
   78      7.70683    0.00000
   79      7.87919    0.00000
   80      8.30871    0.00000
   81      8.34899    0.00000
   82      8.68649    0.00000
   83      8.83173    0.00000
   84      8.97476    0.00000
   85      9.06766    0.00000
   86      9.27251    0.00000
   87      9.33501    0.00000
   88      9.38112    0.00000
   89      9.54591    0.00000
   90      9.63505    0.00000
   91      9.83010    0.00000
   92     10.02183    0.00000
   93     10.09293    0.00000
   94     10.14200    0.00000
   95     10.26626    0.00000
   96     10.36084    0.00000
   97     10.41227    0.00000


Forces in eV/Ang:
  0 C     0.05644   -0.00383    0.00486
  1 C     0.00820   -0.04488    0.01924
  2 C     0.02020   -0.00783    0.00551
  3 C    -0.00118   -0.00576    0.00718
  4 C    -0.00528   -0.02709   -0.00207
  5 C    -0.00811    0.01552   -0.03249
  6 C    -0.04226    0.01837    0.03231
  7 C     0.09152    0.03094   -0.04262
  8 C    -0.03297   -0.01090   -0.03321
  9 C     0.02797   -0.01389   -0.00482
 10 C     0.01812   -0.01331   -0.03717
 11 C     0.01294    0.04400   -0.03664
 12 C    -0.02824    0.02206   -0.00585
 13 C    -0.02085   -0.02127    0.01814
 14 C     0.00430    0.01047    0.01413
 15 C    -0.04761   -0.05022    0.01998
 16 C    -0.05855   -0.02527   -0.01240
 17 C    -0.02736    0.02644   -0.03031
 18 C    -0.00171    0.08455    0.02949
 19 C     0.05673    0.01393    0.03036
 20 C    -0.03578    0.04899    0.02002
 21 C     0.04882   -0.00329   -0.03522
 22 C     0.03695   -0.04905   -0.01086
 23 C     0.02832    0.02357   -0.01017

System changes: positions 

Initializing position-dependent things.

Density initialized from wave functions
           .--------------------------------------.  
          /|                                      |  
         / |                                      |  
        /  |                                      |  
       /   |                                      |  
      /    |                                      |  
     /     |                                      |  
    /      |                                      |  
   /       |                                      |  
  /        |           C                          |  
 *         |   C C  CC    C  C                    |  
 |         | C     C    C  C    C                 |  
 |         .----C-----C-------C-C-----------------.  
 |        /    C  C     C   C                    /   
 |       /          C  C   C C                  /    
 |      /                                      /     
 |     /                                      /      
 |    /                                      /       
 |   /                                      /        
 |  /                                      /         
 | /                                      /          
 |/                                      /           
 *--------------------------------------*            

Positions:
   0 C      7.545314    7.468259    5.486959
   1 C     10.359890    4.563979    4.383439
   2 C      7.252703    6.042876    5.462194
   3 C      8.744982    8.019353    5.155226
   4 C      6.569923   10.046369    5.224717
   5 C     10.368007    9.406666    4.387995
   6 C      9.627957    3.499512    4.446893
   7 C      7.035097    3.073719    4.960378
   8 C     10.797906    8.178633    4.306169
   9 C      9.879906    7.166644    4.771037
  10 C      9.647735    5.749011    4.760014
  11 C      8.238679    3.703967    4.855241
  12 C      8.270276    5.191855    5.106554
  13 C      7.810119   10.174723    4.986281
  14 C      9.017265    9.454493    4.850704
  15 C      5.511968    9.103752    5.462215
  16 C      5.841495    3.637135    5.219062
  17 C      3.621228    7.859740    5.596789
  18 C      5.790819    6.393699    5.590044
  19 C      4.545096    5.694829    5.545060
  20 C      6.146097    7.815998    5.592335
  21 C      4.067184    9.109629    5.527917
  22 C      4.719755    4.251221    5.397718
  23 C      3.402939    6.559245    5.598537

Unit cell:
           periodic     x           y           z      points  spacing
  1. axis:    yes   16.000000    0.000000    0.000000    80     0.2000
  2. axis:    yes    0.000000   16.000000    0.000000    80     0.2000
  3. axis:    yes    0.000000    0.000000   10.000000    48     0.2083

Effective grid spacing dv^(1/3) = 0.2027

                     log10-error:    total        iterations:
           time      wfs    density  energy       fermi  poisson
iter:   1  09:28:41          +inf  -182.404988    2      5      
iter:   2  09:28:42         -2.59  -182.410898    2      1      
iter:   3  09:28:42         -2.91  -182.414091    2      1      
iter:   4  09:28:43         -3.03  -182.413921    2      1      
iter:   5  09:28:44         -3.17  -182.418207    2      1      
iter:   6  09:28:44         -3.15  -182.417390    2      1      
iter:   7  09:28:45         -3.25  -182.410588    3      1      
iter:   8  09:28:45         -3.05  -182.414134    2      1      
iter:   9  09:28:46         -3.78  -182.414211    2      1      
iter:  10  09:28:46         -3.85  -182.413300    2      1      
iter:  11  09:28:47         -3.80  -182.416401    2      1      
iter:  12  09:28:47         -3.33  -182.414575    2      1      
iter:  13  09:28:48         -3.92  -182.413209    2      1      
iter:  14  09:28:49         -3.88  -182.414262    2      1      
iter:  15  09:28:49         -3.96  -182.413915    2      1      
iter:  16  09:28:50         -4.57  -182.413348    2      1      

Converged after 16 iterations.

Dipole moment: (0.354237, 0.367486, 0.140352) |e|*Ang

Energy contributions relative to reference atoms: (reference = -24663.074771)

Kinetic:       +113.810617
Potential:     -120.850266
External:        +0.000000
XC:            -178.217232
Entropy (-ST):   -0.281672
Local:           +2.984369
--------------------------
Free energy:   -182.554184
Extrapolated:  -182.413348

Fermi level: -4.35100

 Band  Eigenvalues  Occupancy
    0    -23.59237    2.00000
    1    -22.41958    2.00000
    2    -21.98929    2.00000
    3    -21.14461    2.00000
    4    -20.89631    2.00000
    5    -20.10344    2.00000
    6    -19.43704    2.00000
    7    -19.16226    2.00000
    8    -18.85377    2.00000
    9    -18.20495    2.00000
   10    -17.68693    2.00000
   11    -17.16968    2.00000
   12    -16.62671    2.00000
   13    -16.31864    2.00000
   14    -15.18064    2.00000
   15    -14.75486    2.00000
   16    -14.22320    2.00000
   17    -13.93954    2.00000
   18    -13.39434    2.00000
   19    -13.05071    2.00000
   20    -12.93716    2.00000
   21    -12.27902    2.00000
   22    -11.46569    2.00000
   23    -11.27225    2.00000
   24    -11.18916    2.00000
   25    -11.14473    2.00000
   26    -11.07444    2.00000
   27    -10.63056    2.00000
   28    -10.01675    2.00000
   29     -9.88646    2.00000
   30     -9.69102    2.00000
   31     -9.31153    2.00000
   32     -8.95015    2.00000
   33     -8.77388    2.00000
   34     -8.67166    2.00000
   35     -8.14226    2.00000
   36     -7.22999    2.00000
   37     -7.14050    2.00000
   38     -7.08635    2.00000
   39     -6.88886    2.00000
   40     -6.80206    2.00000
   41     -6.53083    2.00000
   42     -6.29481    2.00000
   43     -6.17845    2.00000
   44     -5.91237    2.00000
   45     -4.99669    1.99687
   46     -4.78628    1.97459
   47     -4.47262    1.54277
   48     -4.18184    0.31113
   49     -4.06914    0.11265
   50     -4.00444    0.06061
   51     -3.57658    0.00087
   52     -3.52552    0.00052
   53     -2.27572    0.00000
   54     -2.13418    0.00000
   55     -1.50814    0.00000
   56     -1.39429    0.00000
   57     -0.70209    0.00000
   58     -0.44257    0.00000
   59      0.20855    0.00000
   60      1.41019    0.00000
   61      1.91844    0.00000
   62      2.61601    0.00000
   63      2.66599    0.00000
   64      2.99558    0.00000
   65      3.28842    0.00000
   66      3.52414    0.00000
   67      3.91337    0.00000
   68      4.39192    0.00000
   69      4.56790    0.00000
   70      4.99745    0.00000
   71      5.29913    0.00000
   72      5.58154    0.00000
   73      5.85129    0.00000
   74      6.05263    0.00000
   75      6.67198    0.00000
   76      6.96114    0.00000
   77      7.56801    0.00000
   78      7.72039    0.00000
   79      7.87071    0.00000
   80      8.31917    0.00000
   81      8.34325    0.00000
   82      8.68872    0.00000
   83      8.82557    0.00000
   84      8.97713    0.00000
   85      9.07504    0.00000
   86      9.27343    0.00000
   87      9.33822    0.00000
   88      9.38062    0.00000
   89      9.54526    0.00000
   90      9.63380    0.00000
   91      9.82980    0.00000
   92     10.02051    0.00000
   93     10.08887    0.00000
   94     10.13627    0.00000
   95     10.26006    0.00000
   96     10.35663    0.00000
   97     10.40876    0.00000


Forces in eV/Ang:
  0 C     0.02277    0.04701   -0.01915
  1 C     0.01124   -0.05804   -0.00846
  2 C     0.00261    0.04686   -0.00547
  3 C     0.01253    0.02627   -0.01762
  4 C     0.05168   -0.00623   -0.02322
  5 C    -0.09809   -0.02142   -0.01256
  6 C    -0.01324    0.01770    0.01040
  7 C     0.00762   -0.05122   -0.05181
  8 C    -0.09519   -0.01115    0.02210
  9 C    -0.03227   -0.03115    0.01082
 10 C    -0.00325   -0.03568   -0.00161
 11 C     0.01162    0.01107   -0.02830
 12 C    -0.03893    0.04671   -0.00171
 13 C    -0.00375   -0.01393    0.01996
 14 C    -0.04073   -0.00900    0.00077
 15 C    -0.01787   -0.07295    0.02455
 16 C    -0.02829   -0.01778   -0.00125
 17 C     0.00166    0.05261   -0.03624
 18 C    -0.02858    0.05826    0.01215
 19 C     0.04775   -0.01621    0.02441
 20 C     0.06575    0.03827    0.03128
 21 C    -0.00930   -0.01167   -0.03561
 22 C     0.04743   -0.03592   -0.02614
 23 C     0.05571   -0.01036   -0.01371

System changes: positions 

Initializing position-dependent things.

Density initialized from wave functions
           .--------------------------------------.  
          /|                                      |  
         / |                                      |  
        /  |                                      |  
       /   |                                      |  
      /    |                                      |  
     /     |                                      |  
    /      |                                      |  
   /       |                                      |  
  /        |           C                          |  
 *         |   C C  CC    C  C                    |  
 |         | C     C    C  C    C                 |  
 |         .----C-----C-------C-C-----------------.  
 |        /    C  C     C   C                    /   
 |       /          C  C   C C                  /    
 |      /                                      /     
 |     /                                      /      
 |    /                                      /       
 |   /                                      /        
 |  /                                      /         
 | /                                      /          
 |/                                      /           
 *--------------------------------------*            

Positions:
   0 C      7.545008    7.469398    5.484831
   1 C     10.359173    4.563178    4.382357
   2 C      7.252239    6.043942    5.461289
   3 C      8.744317    8.020017    5.153980
   4 C      6.569842   10.046205    5.224577
   5 C     10.366398    9.405956    4.387809
   6 C      9.626277    3.499931    4.446701
   7 C      7.036266    3.069328    4.960335
   8 C     10.796407    8.178112    4.309688
   9 C      9.878865    7.165717    4.772173
  10 C      9.646979    5.747938    4.760416
  11 C      8.238096    3.703530    4.855152
  12 C      8.269004    5.191823    5.106994
  13 C      7.809452   10.175471    4.986225
  14 C      9.016181    9.454922    4.850008
  15 C      5.511718    9.104155    5.462811
  16 C      5.843413    3.635617    5.220171
  17 C      3.621566    7.860868    5.596709
  18 C      5.790969    6.395937    5.588713
  19 C      4.547479    5.694903    5.544622
  20 C      6.146601    7.817678    5.591381
  21 C      4.067361    9.110587    5.528720
  22 C      4.722877    4.250913    5.396976
  23 C      3.405582    6.559922    5.598811

Unit cell:
           periodic     x           y           z      points  spacing
  1. axis:    yes   16.000000    0.000000    0.000000    80     0.2000
  2. axis:    yes    0.000000   16.000000    0.000000    80     0.2000
  3. axis:    yes    0.000000    0.000000   10.000000    48     0.2083

Effective grid spacing dv^(1/3) = 0.2027

                     log10-error:    total        iterations:
           time      wfs    density  energy       fermi  poisson
iter:   1  09:28:52          +inf  -182.430471    3      4      
iter:   2  09:28:52         -2.67  -182.419458    3      1      
iter:   3  09:28:53         -3.14  -182.414453    2      1      
iter:   4  09:28:53         -3.43  -182.416173    2      1      
iter:   5  09:28:54         -3.34  -182.415538    2      1      
iter:   6  09:28:55         -3.62  -182.412760    2      1      
iter:   7  09:28:55         -3.45  -182.416660    2      1      
iter:   8  09:28:56         -3.22  -182.414356    2      1      
iter:   9  09:28:56         -3.69  -182.414728    2      1      
iter:  10  09:28:57         -4.16  -182.415578    2      1      

Converged after 10 iterations.

Dipole moment: (0.353603, 0.367651, 0.140273) |e|*Ang

Energy contributions relative to reference atoms: (reference = -24663.074771)

Kinetic:       +114.274994
Potential:     -121.219240
External:        +0.000000
XC:            -178.329739
Entropy (-ST):   -0.278805
Local:           +2.997809
--------------------------
Free energy:   -182.554980
Extrapolated:  -182.415578

Fermi level: -4.34928

 Band  Eigenvalues  Occupancy
    0    -23.59813    2.00000
    1    -22.42392    2.00000
    2    -21.99131    2.00000
    3    -21.14900    2.00000
    4    -20.89903    2.00000
    5    -20.10401    2.00000
    6    -19.43831    2.00000
    7    -19.16459    2.00000
    8    -18.85349    2.00000
    9    -18.20815    2.00000
   10    -17.68941    2.00000
   11    -17.17092    2.00000
   12    -16.62622    2.00000
   13    -16.32215    2.00000
   14    -15.18316    2.00000
   15    -14.75515    2.00000
   16    -14.22357    2.00000
   17    -13.93970    2.00000
   18    -13.39467    2.00000
   19    -13.05152    2.00000
   20    -12.93913    2.00000
   21    -12.27667    2.00000
   22    -11.46764    2.00000
   23    -11.27653    2.00000
   24    -11.18682    2.00000
   25    -11.14740    2.00000
   26    -11.07631    2.00000
   27    -10.63369    2.00000
   28    -10.01907    2.00000
   29     -9.88942    2.00000
   30     -9.69177    2.00000
   31     -9.31054    2.00000
   32     -8.94990    2.00000
   33     -8.77618    2.00000
   34     -8.67299    2.00000
   35     -8.14217    2.00000
   36     -7.22879    2.00000
   37     -7.14193    2.00000
   38     -7.08664    2.00000
   39     -6.88973    2.00000
   40     -6.80253    2.00000
   41     -6.53050    2.00000
   42     -6.29776    2.00000
   43     -6.17455    2.00000
   44     -5.91446    2.00000
   45     -4.99779    1.99695
   46     -4.78492    1.97468
   47     -4.47333    1.55130
   48     -4.17769    0.30481
   49     -4.06483    0.10994
   50     -4.00323    0.06091
   51     -3.57617    0.00088
   52     -3.52601    0.00053
   53     -2.27034    0.00000
   54     -2.13249    0.00000
   55     -1.50640    0.00000
   56     -1.39470    0.00000
   57     -0.70377    0.00000
   58     -0.43876    0.00000
   59      0.21107    0.00000
   60      1.41575    0.00000
   61      1.92253    0.00000
   62      2.62350    0.00000
   63      2.67362    0.00000
   64      3.00061    0.00000
   65      3.29207    0.00000
   66      3.53126    0.00000
   67      3.91544    0.00000
   68      4.39291    0.00000
   69      4.57552    0.00000
   70      5.00620    0.00000
   71      5.30502    0.00000
   72      5.59019    0.00000
   73      5.85313    0.00000
   74      6.05401    0.00000
   75      6.67411    0.00000
   76      6.97050    0.00000
   77      7.57181    0.00000
   78      7.72095    0.00000
   79      7.86860    0.00000
   80      8.31804    0.00000
   81      8.34563    0.00000
   82      8.68788    0.00000
   83      8.83098    0.00000
   84      8.97609    0.00000
   85      9.07298    0.00000
   86      9.27348    0.00000
   87      9.33954    0.00000
   88      9.38308    0.00000
   89      9.54467    0.00000
   90      9.63592    0.00000
   91      9.83337    0.00000
   92     10.02384    0.00000
   93     10.09067    0.00000
   94     10.14082    0.00000
   95     10.26366    0.00000
   96     10.35848    0.00000
   97     10.41145    0.00000


Forces in eV/Ang:
  0 C     0.01276    0.03314   -0.00061
  1 C     0.02894   -0.02850   -0.00998
  2 C    -0.00436    0.05126   -0.00868
  3 C     0.00854    0.01419   -0.00717
  4 C     0.02551    0.00704   -0.01520
  5 C    -0.03554    0.02692   -0.03579
  6 C     0.00846   -0.00558    0.00618
  7 C    -0.01156    0.02161   -0.03207
  8 C    -0.01603   -0.00649   -0.02446
  9 C    -0.01373   -0.01637   -0.00265
 10 C    -0.00406   -0.02258   -0.00295
 11 C    -0.00312    0.00818   -0.01809
 12 C    -0.01903    0.03923   -0.01143
 13 C     0.01644   -0.00482    0.01231
 14 C    -0.01656   -0.01243    0.00406
 15 C    -0.00984   -0.04760    0.01655
 16 C    -0.00146   -0.02792   -0.00694
 17 C    -0.00207    0.00738   -0.03095
 18 C     0.00588    0.02660    0.01799
 19 C     0.02491   -0.01379    0.01883
 20 C     0.05201    0.01536    0.02940
 21 C    -0.01209   -0.00081   -0.03108
 22 C     0.04843    0.02887   -0.01013
 23 C     0.04876   -0.00414   -0.01184

