
  ___ ___ ___ _ _ _  
 |   |   |_  | | | | 
 | | | | | . | | | | 
 |__ |  _|___|_____|  1.3.0b1
 |___|_|             

User:   esb@s65n32.grendel.cscaa.dk
Date:   Thu Nov  9 10:52:53 2017
Arch:   x86_64
Pid:    23461
Python: 2.7.13
gpaw:   /home/esb/DFT/gpaw_git/gpaw
_gpaw:  /home/esb/DFT/gpaw_git/build/bin.linux-x86_64-2.7/gpaw-python
ase:    /home/esb/DFT/ase_git/ase (version 3.15.0b1)
numpy:  /comm/swstack/core/python/2.7.13/lib/python2.7/site-packages/numpy (version 1.13.3)
scipy:  /comm/swstack/core/python/2.7.13/lib/python2.7/site-packages/scipy (version 0.19.1)
units:  Angstrom and eV
cores:  16
Extra parameters: {'blacs': True}

Input parameters:
  basis: dzp
  gpts: [80 80 48]
  kpts: [1 1 1]
  maxiter: 99
  mixer: {backend: pulay,
          beta: 0.05,
          method: separate,
          nmaxold: 5,
          weight: 75}
  mode: lcao
  nbands: -50
  occupations: {name: fermi-dirac,
                width: 0.1}
  poissonsolver: {eps: 1e-07,
                  name: fd,
                  nn: 3,
                  relax: GS}
  xc: PBE

System changes: positions, numbers, cell, pbc, initial_charges, initial_magmoms 

Initialize ...

C-setup:
  name: Carbon
  id: 4aa54d4b901d75f77cc0ea3eec22967b
  Z: 6
  valence: 4
  core: 2
  charge: 0.0
  file: /home/esb/DFT/gpaw-setups-0.8.7929/C.PBE.gz
  cutoffs: 0.64(comp), 1.14(filt), 1.14(core), lmax=2
  valence states:
                energy  radius
    2s(2.00)   -13.751   0.635
    2p(2.00)    -5.284   0.635
    *s          13.461   0.635
    *p          21.927   0.635
    *d           0.000   0.635

  LCAO basis set for C:
    Name: dzp
    File: /home/esb/DFT/gpaw-setups-0.8.7929/C.dzp.basis.gz
    Number of radial functions: 5
    Number of spherical harmonics: 13
      l=0, rc=5.5469 Bohr: 2s-sz confined orbital
      l=1, rc=6.6719 Bohr: 2p-sz confined orbital
      l=0, rc=3.0312 Bohr: 2s-dz split-valence wave
      l=1, rc=3.7500 Bohr: 2p-dz split-valence wave
      l=2, rc=6.6719 Bohr: d-type Gaussian polarization

Reference energy: -24663.074771

Spin-paired calculation

Occupation numbers:
  Fermi-Dirac: width=0.1000 eV

Convergence criteria:
  Maximum total energy change: 0.0005 eV / electron
  Maximum integral of absolute density change: 0.0001 electrons
  Maximum integral of absolute eigenstate change: 4e-08 eV^2
  Maximum number of iterations: 99

Symmetries present (total): 1

  ( 1  0  0)
  ( 0  1  0)
  ( 0  0  1)

1 k-point (Gamma)
1 k-point in the irreducible part of the Brillouin zone
       k-points in crystal coordinates                weights
   0:     0.00000000    0.00000000    0.00000000          1/1

Wave functions: LCAO
  Diagonalizer: Serial LAPACK
  Atomic Correction: dense with blas
  Datatype: float
  Eigensolver: None 

LCAO using direct dense diagonalizer 

Densities:
  Coarse grid: 80*80*48 grid
  Fine grid: 160*160*96 grid
  Total Charge: 0.000000 

Density mixing:
  Method: separate
  Backend: pulay
  Linear mixing parameter: 0.05
  Mixing with 5 old densities
  Damping of long wave oscillations: 75 

Hamiltonian:
  XC and Coulomb potentials evaluated on a 160*160*96 grid
  Using the PBE Exchange-Correlation functional
  Interpolation: tri-quintic (5. degree polynomial)
  Poisson solver: Gauss-Seidel solver with 6 multi-grid levels
    Coarsest grid: 5 x 5 x 3 points
    Stencil: 6*3+1=19 point O(h^6) finite-difference Laplacian
    Max iterations: 1000
    Tolerance: 1.000000e-07 

Memory estimate:
  Process memory now: 77.56 MiB
  Calculator: 15.59 MiB
    Density: 6.13 MiB
      Arrays: 3.81 MiB
      Localized functions: 0.86 MiB
      Mixer: 1.46 MiB
    Hamiltonian: 5.40 MiB
      Arrays: 2.49 MiB
      XC: 0.00 MiB
      Poisson: 2.85 MiB
      vbar: 0.07 MiB
    Wavefunctions: 4.05 MiB
      C [qnM]: 0.23 MiB
      S, T [2 x qmm]: 1.49 MiB
      P [aqMi]: 0.01 MiB
      TCI: 0.00 MiB
      BasisFunctions: 2.33 MiB
      Eigensolver: 0.00 MiB

Total number of cores used: 16
Domain decomposition: 2 x 4 x 2

Number of atoms: 24
Number of atomic orbitals: 312
Number of bands in calculation: 98
Bands to converge: occupied states only
Number of valence electrons: 96

... initialized

Initializing position-dependent things.

Density initialized from atomic densities
           .--------------------------------------.  
          /|                                      |  
         / |                                      |  
        /  |                                      |  
       /   |                                      |  
      /    |                                      |  
     /     |                                      |  
    /      |                                      |  
   /       |                                      |  
  /        |        C  C     C  C                 |  
 *         |  C  C        C      C                |  
 |         |  C C         C   CC C                |  
 |         .------C--C--CC-CC-C-------------------.  
 |        /             C    C                   /   
 |       /          C                           /    
 |      /                                      /     
 |     /                                      /      
 |    /                                      /       
 |   /                                      /        
 |  /                                      /         
 | /                                      /          
 |/                                      /           
 *--------------------------------------*            

Positions:
   0 C      6.835482    3.655882    5.091708
   1 C     10.434850    4.724862    5.076700
   2 C      7.401878    7.872845    4.010417
   3 C      8.562908    4.459614    6.259982
   4 C      7.353857    4.115191    6.367381
   5 C     10.731988    5.840759    6.458928
   6 C      6.013438    4.129071    6.449256
   7 C      9.540594    5.382812    5.854151
   8 C      4.869990    4.668988    6.329971
   9 C      9.136253    6.350992    4.784174
  10 C      3.951991    5.618181    6.124947
  11 C      7.846957    6.713280    4.256454
  12 C      9.949949    7.491084    4.585505
  13 C      8.154275    8.995749    4.521513
  14 C      3.321391    8.181232    5.451071
  15 C      6.301023   10.443037    5.223881
  16 C      7.695759   10.379813    4.989030
  17 C     10.838546    8.281878    4.697688
  18 C     10.596033    9.708192    4.865049
  19 C      8.751582   11.266791    5.208853
  20 C      4.020475    9.233331    5.424068
  21 C      9.989359   10.902145    5.060117
  22 C      9.530624    8.761304    4.477195
  23 C      5.126119   10.011067    5.330030

Unit cell:
           periodic     x           y           z      points  spacing
  1. axis:    yes   16.000000    0.000000    0.000000    80     0.2000
  2. axis:    yes    0.000000   16.000000    0.000000    80     0.2000
  3. axis:    yes    0.000000    0.000000   10.000000    48     0.2083

Effective grid spacing dv^(1/3) = 0.2027

                     log10-error:    total        iterations:
           time      wfs    density  energy       fermi  poisson
iter:   1  10:52:54          +inf  -166.215352    2      6      
iter:   2  10:52:55         -0.86  -164.289423    3      3      
iter:   3  10:52:55         -0.90  -162.210564    4      3      
iter:   4  10:52:56         -0.98  -161.546650    3      2      
iter:   5  10:52:56         -1.02  -161.988493    34     4      
iter:   6  10:52:57         -1.05  -160.843474    3      2      
iter:   7  10:52:57         -1.14  -159.920411    3      3      
iter:   8  10:52:58         -1.42  -159.795415    3      3      
iter:   9  10:52:59         -1.58  -159.704550    3      3      
iter:  10  10:52:59         -1.68  -159.685138    3      3      
iter:  11  10:53:00         -1.89  -159.667388    3      2      
iter:  12  10:53:00         -1.96  -159.660151    4      2      
iter:  13  10:53:01         -2.16  -159.636588    3      2      
iter:  14  10:53:01         -2.24  -159.638175    3      2      
iter:  15  10:53:02         -2.38  -159.634114    3      2      
iter:  16  10:53:02         -2.58  -159.630773    2      2      
iter:  17  10:53:03         -2.76  -159.629050    3      2      
iter:  18  10:53:03         -2.98  -159.629923    2      1      
iter:  19  10:53:04         -3.07  -159.628873    2      1      
iter:  20  10:53:04         -3.13  -159.619016    3      1      
iter:  21  10:53:05         -3.45  -159.627989    2      1      
iter:  22  10:53:05         -3.57  -159.631936    2      1      
iter:  23  10:53:06         -3.71  -159.629817    2      1      
iter:  24  10:53:06         -3.82  -159.631387    2      1      
iter:  25  10:53:07         -3.89  -159.631358    2      1      
iter:  26  10:53:07         -4.06  -159.631110    2      1      

Converged after 26 iterations.

Dipole moment: (1.156727, 0.578836, 0.084956) |e|*Ang

Energy contributions relative to reference atoms: (reference = -24663.074771)

Kinetic:       +155.913251
Potential:     -143.477239
External:        +0.000000
XC:            -174.831544
Entropy (-ST):   -0.441149
Local:           +2.984996
--------------------------
Free energy:   -159.851685
Extrapolated:  -159.631110

Fermi level: -4.77849

 Band  Eigenvalues  Occupancy
    0    -28.25970    2.00000
    1    -24.03744    2.00000
    2    -23.35312    2.00000
    3    -22.39776    2.00000
    4    -22.04459    2.00000
    5    -20.18910    2.00000
    6    -19.73997    2.00000
    7    -19.46542    2.00000
    8    -19.28644    2.00000
    9    -18.21254    2.00000
   10    -18.10651    2.00000
   11    -17.57615    2.00000
   12    -17.08517    2.00000
   13    -16.01821    2.00000
   14    -15.62607    2.00000
   15    -15.21442    2.00000
   16    -14.88801    2.00000
   17    -14.19580    2.00000
   18    -14.14828    2.00000
   19    -13.55845    2.00000
   20    -13.33462    2.00000
   21    -13.20963    2.00000
   22    -13.10922    2.00000
   23    -12.96441    2.00000
   24    -12.10085    2.00000
   25    -11.68899    2.00000
   26    -10.72895    2.00000
   27    -10.44132    2.00000
   28     -9.73928    2.00000
   29     -9.23599    2.00000
   30     -8.67889    2.00000
   31     -8.20621    2.00000
   32     -7.93088    2.00000
   33     -7.70933    2.00000
   34     -7.61667    2.00000
   35     -7.32516    2.00000
   36     -7.24022    2.00000
   37     -7.17349    2.00000
   38     -6.95996    2.00000
   39     -6.86563    2.00000
   40     -6.75191    2.00000
   41     -6.13583    2.00000
   42     -5.58002    1.99934
   43     -5.41653    1.99662
   44     -5.27562    1.98623
   45     -5.19529    1.96951
   46     -4.92243    1.61671
   47     -4.87995    1.46782
   48     -4.72864    0.75577
   49     -4.56227    0.20639
   50     -4.02188    0.00103
   51     -3.96085    0.00056
   52     -3.66905    0.00003
   53     -3.19102    0.00000
   54     -3.09614    0.00000
   55     -2.73709    0.00000
   56     -2.19907    0.00000
   57     -1.52494    0.00000
   58     -1.26539    0.00000
   59     -1.15780    0.00000
   60     -0.88083    0.00000
   61     -0.27317    0.00000
   62      0.31625    0.00000
   63      0.62498    0.00000
   64      1.04448    0.00000
   65      1.10359    0.00000
   66      1.64990    0.00000
   67      2.05275    0.00000
   68      2.68234    0.00000
   69      3.67925    0.00000
   70      4.06254    0.00000
   71      4.48850    0.00000
   72      4.93361    0.00000
   73      5.11449    0.00000
   74      5.27931    0.00000
   75      5.75853    0.00000
   76      5.90469    0.00000
   77      6.16523    0.00000
   78      6.56414    0.00000
   79      6.68046    0.00000
   80      7.41292    0.00000
   81      7.53340    0.00000
   82      7.76475    0.00000
   83      8.01371    0.00000
   84      8.24657    0.00000
   85      8.47658    0.00000
   86      8.50614    0.00000
   87      8.74499    0.00000
   88      8.86317    0.00000
   89      9.03766    0.00000
   90      9.11548    0.00000
   91      9.28301    0.00000
   92      9.29723    0.00000
   93      9.51062    0.00000
   94      9.55923    0.00000
   95      9.68468    0.00000
   96      9.75273    0.00000
   97      9.89034    0.00000


Forces in eV/Ang:
  0 C    -1.28047   -0.37566   -0.81185
  1 C     6.41167   -1.33504   -3.28390
  2 C    -0.13634    0.87604    0.33278
  3 C     3.47922    1.99707    1.46060
  4 C    -1.83531   -0.91677    1.80024
  5 C     3.25886   -0.48958   -0.66711
  6 C     3.72056   -2.00750   -1.67595
  7 C    -8.84686    0.91476    3.12155
  8 C    -6.28662    3.64170   -0.14105
  9 C    -0.67198    0.29573   -1.07372
 10 C     0.97159   -1.27427    0.44153
 11 C     0.32904   -1.78620    0.52315
 12 C    -5.85643  -14.36005   -0.14366
 13 C    -0.98623    1.77465   -0.86607
 14 C    -1.26152   -1.47369    0.02242
 15 C     1.60449    0.50402   -0.31462
 16 C    -2.03439   -0.66406    0.09309
 17 C    15.52728    8.88943    1.99473
 18 C     0.04265   -0.68170   -0.29264
 19 C     1.05378    0.00881   -0.63095
 20 C     1.41510    1.55377    0.07306
 21 C     0.58626   -0.16595    0.87260
 22 C    -8.67609    6.21920   -0.79098
 23 C    -0.55011   -1.04157   -0.02787

System changes: positions 

Initializing position-dependent things.

Density initialized from wave functions
           .--------------------------------------.  
          /|                                      |  
         / |                                      |  
        /  |                                      |  
       /   |                                      |  
      /    |                                      |  
     /     |                                      |  
    /      |                                      |  
   /       |                                      |  
  /        |        C  C     C  C                 |  
 *         |  C  C        C      C                |  
 |         |  C C         C   CC C                |  
 |         .------C--C--CC-CC-C-------------------.  
 |        /             C    C                   /   
 |       /          C                           /    
 |      /                                      /     
 |     /                                      /      
 |    /                                      /       
 |   /                                      /        
 |  /                                      /         
 | /                                      /          
 |/                                      /           
 *--------------------------------------*            

Positions:
   0 C      6.832637    3.655048    5.089904
   1 C     10.449096    4.721896    5.069403
   2 C      7.401576    7.874792    4.011156
   3 C      8.570638    4.464051    6.263227
   4 C      7.349779    4.113154    6.371381
   5 C     10.739229    5.839671    6.457446
   6 C      6.021705    4.124611    6.445532
   7 C      9.520937    5.384845    5.861087
   8 C      4.856022    4.677079    6.329658
   9 C      9.134760    6.351649    4.781788
  10 C      3.954150    5.615350    6.125928
  11 C      7.847688    6.709311    4.257617
  12 C      9.936937    7.459178    4.585186
  13 C      8.152084    8.999692    4.519589
  14 C      3.318588    8.177957    5.451120
  15 C      6.304588   10.444157    5.223182
  16 C      7.691239   10.378337    4.989237
  17 C     10.873046    8.301629    4.702120
  18 C     10.596128    9.706677    4.864398
  19 C      8.753923   11.266811    5.207451
  20 C      4.023619    9.236783    5.424230
  21 C      9.990662   10.901776    5.062056
  22 C      9.511346    8.775123    4.475437
  23 C      5.124897   10.008753    5.329968

Unit cell:
           periodic     x           y           z      points  spacing
  1. axis:    yes   16.000000    0.000000    0.000000    80     0.2000
  2. axis:    yes    0.000000   16.000000    0.000000    80     0.2000
  3. axis:    yes    0.000000    0.000000   10.000000    48     0.2083

Effective grid spacing dv^(1/3) = 0.2027

                     log10-error:    total        iterations:
           time      wfs    density  energy       fermi  poisson
iter:   1  10:53:09          +inf  -161.430351    3      5      
iter:   2  10:53:09         -1.87  -161.421938    3      2      
iter:   3  10:53:10         -2.00  -161.387147    3      2      
iter:   4  10:53:10         -2.16  -161.368458    3      2      
iter:   5  10:53:11         -2.28  -161.372574    3      2      
iter:   6  10:53:11         -2.41  -161.364329    2      2      
iter:   7  10:53:12         -2.57  -161.365197    3      2      
iter:   8  10:53:12         -2.73  -161.362178    2      2      
iter:   9  10:53:13         -2.91  -161.361550    2      2      
iter:  10  10:53:13         -3.18  -161.363329    2      1      
iter:  11  10:53:14         -3.29  -161.362253    2      1      
iter:  12  10:53:14         -3.46  -161.360565    2      1      
iter:  13  10:53:15         -3.69  -161.361068    2      1      
iter:  14  10:53:15         -3.76  -161.360580    2      1      
iter:  15  10:53:16         -3.91  -161.360544    2      1      
iter:  16  10:53:16         -4.08  -161.360543    2      1      

Converged after 16 iterations.

Dipole moment: (1.154747, 0.592473, 0.086026) |e|*Ang

Energy contributions relative to reference atoms: (reference = -24663.074771)

Kinetic:       +144.490391
Potential:     -135.746471
External:        +0.000000
XC:            -172.797573
Entropy (-ST):   -0.419243
Local:           +2.902731
--------------------------
Free energy:   -161.570165
Extrapolated:  -161.360543

Fermi level: -4.78432

 Band  Eigenvalues  Occupancy
    0    -27.45904    2.00000
    1    -23.94144    2.00000
    2    -23.32618    2.00000
    3    -22.33044    2.00000
    4    -22.01027    2.00000
    5    -20.14523    2.00000
    6    -19.67968    2.00000
    7    -19.40171    2.00000
    8    -19.28907    2.00000
    9    -18.19671    2.00000
   10    -18.11606    2.00000
   11    -17.51349    2.00000
   12    -17.06225    2.00000
   13    -15.98837    2.00000
   14    -15.54624    2.00000
   15    -15.10655    2.00000
   16    -14.81860    2.00000
   17    -14.18849    2.00000
   18    -14.08619    2.00000
   19    -13.57755    2.00000
   20    -13.25991    2.00000
   21    -13.10142    2.00000
   22    -12.99346    2.00000
   23    -12.75064    2.00000
   24    -12.16363    2.00000
   25    -11.65141    2.00000
   26    -10.62324    2.00000
   27    -10.40576    2.00000
   28     -9.68632    2.00000
   29     -9.23941    2.00000
   30     -8.57296    2.00000
   31     -8.20078    2.00000
   32     -7.97386    2.00000
   33     -7.74704    2.00000
   34     -7.62432    2.00000
   35     -7.37745    2.00000
   36     -7.20489    2.00000
   37     -7.10656    2.00000
   38     -6.95252    2.00000
   39     -6.81584    2.00000
   40     -6.72085    2.00000
   41     -6.19881    2.00000
   42     -5.63190    1.99958
   43     -5.46311    1.99775
   44     -5.30019    1.98857
   45     -5.21951    1.97456
   46     -4.94194    1.65735
   47     -4.88716    1.47323
   48     -4.73246    0.74639
   49     -4.54079    0.16104
   50     -4.01319    0.00090
   51     -3.96954    0.00058
   52     -3.73648    0.00006
   53     -3.15376    0.00000
   54     -3.03908    0.00000
   55     -2.69976    0.00000
   56     -2.19177    0.00000
   57     -1.57148    0.00000
   58     -1.27650    0.00000
   59     -1.20750    0.00000
   60     -0.89733    0.00000
   61     -0.15463    0.00000
   62      0.25861    0.00000
   63      0.62028    0.00000
   64      1.02892    0.00000
   65      1.13470    0.00000
   66      1.56117    0.00000
   67      1.99887    0.00000
   68      2.60935    0.00000
   69      3.70450    0.00000
   70      4.06365    0.00000
   71      4.43842    0.00000
   72      4.84509    0.00000
   73      5.14311    0.00000
   74      5.20324    0.00000
   75      5.69234    0.00000
   76      5.89115    0.00000
   77      5.93475    0.00000
   78      6.55397    0.00000
   79      6.64951    0.00000
   80      7.46874    0.00000
   81      7.58260    0.00000
   82      7.87480    0.00000
   83      8.00201    0.00000
   84      8.25182    0.00000
   85      8.45365    0.00000
   86      8.54719    0.00000
   87      8.77738    0.00000
   88      8.89570    0.00000
   89      9.06810    0.00000
   90      9.16427    0.00000
   91      9.26171    0.00000
   92      9.30617    0.00000
   93      9.56917    0.00000
   94      9.59054    0.00000
   95      9.65095    0.00000
   96      9.74250    0.00000
   97      9.82433    0.00000


Forces in eV/Ang:
  0 C    -1.31407   -0.31536   -0.51860
  1 C     5.44819   -0.64822   -2.18913
  2 C    -0.08199    0.41855    0.43509
  3 C     2.30072    1.37051    1.71053
  4 C    -0.29944   -0.71266    1.49467
  5 C     2.66656   -0.78364   -1.05665
  6 C     1.61315   -1.39777   -2.00594
  7 C    -6.92317    0.83407    2.24417
  8 C    -4.38417    2.44204    0.19237
  9 C    -1.12152   -0.50783   -0.76477
 10 C     0.54035   -0.73220    0.31720
 11 C    -0.14561   -1.25257    0.29204
 12 C    -1.27718   -7.11770    0.22615
 13 C    -1.48374    1.77828   -0.89323
 14 C    -1.01326   -1.08445    0.00582
 15 C     1.15066    0.44250   -0.24801
 16 C    -1.82405   -0.48498    0.08537
 17 C     9.60754    4.98113    1.04894
 18 C    -0.02346   -0.66925   -0.17434
 19 C     0.92389    0.00707   -0.56638
 20 C     0.98048    1.02101    0.11338
 21 C     0.50840   -0.07114    0.79909
 22 C    -5.81876    3.34193   -0.48848
 23 C    -0.11961   -0.82764   -0.06724

System changes: positions 

Initializing position-dependent things.

Density initialized from wave functions
           .--------------------------------------.  
          /|                                      |  
         / |                                      |  
        /  |                                      |  
       /   |                                      |  
      /    |                                      |  
     /     |                                      |  
    /      |                                      |  
   /       |                                      |  
  /        |        C  C     C  C                 |  
 *         |  C  C        C      C                |  
 |         |  C C         C   CC C                |  
 |         .------C---C-CC-C--C-------------------.  
 |        /             C     C                  /   
 |       /          C                           /    
 |      /                                      /     
 |     /                                      /      
 |    /                                      /       
 |   /                                      /        
 |  /                                      /         
 | /                                      /          
 |/                                      /           
 *--------------------------------------*            

Positions:
   0 C      6.822968    3.653145    5.087959
   1 C     10.482450    4.721420    5.060320
   2 C      7.401317    7.875014    4.014914
   3 C      8.580014    4.470096    6.277071
   4 C      7.356997    4.109267    6.380280
   5 C     10.754817    5.832233    6.447459
   6 C      6.020459    4.118267    6.429072
   7 C      9.482822    5.390359    5.871893
   8 C      4.836061    4.687343    6.333078
   9 C      9.123939    6.343087    4.778167
  10 C      3.955410    5.613386    6.127454
  11 C      7.843742    6.703548    4.258309
  12 C      9.955689    7.452124    4.589072
  13 C      8.138362    9.012521    4.512990
  14 C      3.312806    8.172523    5.451061
  15 C      6.310104   10.446968    5.221802
  16 C      7.679387   10.375938    4.989804
  17 C     10.906103    8.313646    4.703901
  18 C     10.595555    9.701934    4.863865
  19 C      8.759784   11.266851    5.203766
  20 C      4.028027    9.240884    5.425293
  21 C      9.993848   10.901843    5.067362
  22 C      9.486882    8.781628    4.473766
  23 C      5.126663   10.004098    5.329244

Unit cell:
           periodic     x           y           z      points  spacing
  1. axis:    yes   16.000000    0.000000    0.000000    80     0.2000
  2. axis:    yes    0.000000   16.000000    0.000000    80     0.2000
  3. axis:    yes    0.000000    0.000000   10.000000    48     0.2083

Effective grid spacing dv^(1/3) = 0.2027

                     log10-error:    total        iterations:
           time      wfs    density  energy       fermi  poisson
iter:   1  10:53:18          +inf  -162.814514    3      5      
iter:   2  10:53:18         -1.70  -162.758774    3      2      
iter:   3  10:53:19         -1.89  -162.702039    3      2      
iter:   4  10:53:19         -2.05  -162.667866    3      2      
iter:   5  10:53:20         -2.18  -162.673372    3      2      
iter:   6  10:53:20         -2.29  -162.665403    3      2      
iter:   7  10:53:21         -2.46  -162.662547    2      2      
iter:   8  10:53:21         -2.61  -162.658303    2      2      
iter:   9  10:53:22         -2.82  -162.657203    2      2      
iter:  10  10:53:22         -3.00  -162.657125    2      2      
iter:  11  10:53:23         -3.22  -162.658087    2      1      
iter:  12  10:53:23         -3.36  -162.657868    2      1      
iter:  13  10:53:24         -3.52  -162.656751    2      1      
iter:  14  10:53:24         -3.61  -162.657760    2      1      
iter:  15  10:53:25         -3.87  -162.657028    2      1      
iter:  16  10:53:25         -4.01  -162.656723    2      1      

Converged after 16 iterations.

Dipole moment: (1.157740, 0.619896, 0.078253) |e|*Ang

Energy contributions relative to reference atoms: (reference = -24663.074771)

Kinetic:       +134.512031
Potential:     -129.064859
External:        +0.000000
XC:            -170.819936
Entropy (-ST):   -0.382517
Local:           +2.907299
--------------------------
Free energy:   -162.847981
Extrapolated:  -162.656723

Fermi level: -4.80052

 Band  Eigenvalues  Occupancy
    0    -26.90899    2.00000
    1    -23.70251    2.00000
    2    -23.12165    2.00000
    3    -22.28993    2.00000
    4    -21.81946    2.00000
    5    -20.14839    2.00000
    6    -19.61117    2.00000
    7    -19.31192    2.00000
    8    -19.19515    2.00000
    9    -18.18514    2.00000
   10    -18.10679    2.00000
   11    -17.39000    2.00000
   12    -17.01555    2.00000
   13    -15.94604    2.00000
   14    -15.48977    2.00000
   15    -14.98492    2.00000
   16    -14.77049    2.00000
   17    -14.21446    2.00000
   18    -13.86016    2.00000
   19    -13.48912    2.00000
   20    -13.08337    2.00000
   21    -13.03182    2.00000
   22    -12.98076    2.00000
   23    -12.49001    2.00000
   24    -12.16422    2.00000
   25    -11.66945    2.00000
   26    -10.58187    2.00000
   27    -10.30187    2.00000
   28     -9.65423    2.00000
   29     -9.19183    2.00000
   30     -8.52483    2.00000
   31     -8.22040    2.00000
   32     -8.02220    2.00000
   33     -7.84678    2.00000
   34     -7.62136    2.00000
   35     -7.36220    2.00000
   36     -7.14956    2.00000
   37     -7.03219    2.00000
   38     -6.92517    2.00000
   39     -6.79843    2.00000
   40     -6.69201    2.00000
   41     -6.21075    2.00000
   42     -5.66312    1.99964
   43     -5.49161    1.99801
   44     -5.32704    1.98972
   45     -5.24689    1.97722
   46     -4.99257    1.74438
   47     -4.90471    1.47840
   48     -4.74159    0.71356
   49     -4.50384    0.09789
   50     -4.00931    0.00073
   51     -3.94449    0.00038
   52     -3.75144    0.00006
   53     -3.16638    0.00000
   54     -2.92446    0.00000
   55     -2.64086    0.00000
   56     -2.16969    0.00000
   57     -1.53861    0.00000
   58     -1.34140    0.00000
   59     -1.23970    0.00000
   60     -0.94598    0.00000
   61      0.04572    0.00000
   62      0.24531    0.00000
   63      0.61453    0.00000
   64      1.09031    0.00000
   65      1.27868    0.00000
   66      1.42648    0.00000
   67      1.94168    0.00000
   68      2.56845    0.00000
   69      3.64216    0.00000
   70      4.11116    0.00000
   71      4.39099    0.00000
   72      4.66795    0.00000
   73      5.08161    0.00000
   74      5.29260    0.00000
   75      5.44070    0.00000
   76      5.65616    0.00000
   77      6.02191    0.00000
   78      6.45056    0.00000
   79      6.70341    0.00000
   80      7.46187    0.00000
   81      7.53249    0.00000
   82      7.97638    0.00000
   83      7.99850    0.00000
   84      8.24279    0.00000
   85      8.43048    0.00000
   86      8.61983    0.00000
   87      8.79568    0.00000
   88      8.92593    0.00000
   89      9.06262    0.00000
   90      9.19814    0.00000
   91      9.24109    0.00000
   92      9.32266    0.00000
   93      9.58586    0.00000
   94      9.61754    0.00000
   95      9.65293    0.00000
   96      9.73066    0.00000
   97      9.80093    0.00000


Forces in eV/Ang:
  0 C    -1.37440   -0.22037    0.08467
  1 C     4.08028    0.42209   -0.62668
  2 C    -0.03082   -0.01850    0.48217
  3 C     1.48677    0.78233    1.96566
  4 C    -0.47622   -0.89793    1.09603
  5 C     1.72487   -1.38778   -1.76506
  6 C     0.97727   -1.02805   -2.48776
  7 C    -3.89225    1.22741    1.06521
  8 C    -2.58185    1.22262    0.57910
  9 C    -0.57445   -0.24113   -0.54312
 10 C    -0.12766    0.08872    0.14354
 11 C    -0.43807   -0.64660    0.05950
 12 C    -1.14207   -5.52410    0.32934
 13 C    -1.47636    1.40544   -0.85629
 14 C    -0.60630   -0.46915   -0.01868
 15 C     0.32695    0.39539   -0.10514
 16 C    -1.04548   -0.01798    0.04612
 17 C     7.21729    4.06862    0.66374
 18 C    -0.33166   -0.50528   -0.19034
 19 C     0.54443   -0.16273   -0.52643
 20 C     0.41613    0.25757    0.16266
 21 C     0.49807   -0.07971    0.71844
 22 C    -3.44709    2.00057   -0.19410
 23 C     0.27213   -0.61072   -0.10830

System changes: positions 

Initializing position-dependent things.

Density initialized from wave functions
           .--------------------------------------.  
          /|                                      |  
         / |                                      |  
        /  |                                      |  
       /   |                                      |  
      /    |                                      |  
     /     |                                      |  
    /      |                                      |  
   /       |                                      |  
  /        |        C  C     C  C                 |  
 *         |  C  C        C      C                |  
 |         |  C C         C   CC C                |  
 |         .------C---C-CC-C--C-------------------.  
 |        /             C     C                  /   
 |       /          C                           /    
 |      /                                      /     
 |     /                                      /      
 |    /                                      /       
 |   /                                      /        
 |  /                                      /         
 | /                                      /          
 |/                                      /           
 *--------------------------------------*            

Positions:
   0 C      6.808957    3.651445    5.091499
   1 C     10.515461    4.731311    5.062849
   2 C      7.401396    7.871558    4.020365
   3 C      8.587006    4.473445    6.298509
   4 C      7.360179    4.101059    6.388838
   5 C     10.767103    5.815679    6.426432
   6 C      6.017698    4.111970    6.401571
   7 C      9.459934    5.402906    5.875622
   8 C      4.823864    4.690834    6.341369
   9 C      9.116800    6.336851    4.774818
  10 C      3.950578    5.618708    6.127896
  11 C      7.836274    6.701087    4.257229
  12 C      9.969177    7.438901    4.594540
  13 C      8.120962    9.025879    4.504365
  14 C      3.308844    8.171074    5.450740
  15 C      6.309400   10.450497    5.221376
  16 C      7.671525   10.377587    4.990150
  17 C     10.941868    8.331541    4.704725
  18 C     10.591318    9.697261    4.862572
  19 C      8.763817   11.264903    5.198933
  20 C      4.028797    9.239174    5.427225
  21 C      9.998381   10.901541    5.073988
  22 C      9.472240    8.783632    4.474001
  23 C      5.132422    9.999555    5.327875

Unit cell:
           periodic     x           y           z      points  spacing
  1. axis:    yes   16.000000    0.000000    0.000000    80     0.2000
  2. axis:    yes    0.000000   16.000000    0.000000    80     0.2000
  3. axis:    yes    0.000000    0.000000   10.000000    48     0.2083

Effective grid spacing dv^(1/3) = 0.2027

                     log10-error:    total        iterations:
           time      wfs    density  energy       fermi  poisson
iter:   1  10:53:27          +inf  -163.753922    3      5      
iter:   2  10:53:27         -1.80  -163.712600    3      2      
iter:   3  10:53:28         -1.96  -163.676945    3      2      
iter:   4  10:53:28         -2.13  -163.651587    3      2      
iter:   5  10:53:29         -2.30  -163.650968    3      2      
iter:   6  10:53:29         -2.42  -163.646442    3      2      
iter:   7  10:53:30         -2.62  -163.645545    3      2      
iter:   8  10:53:30         -2.74  -163.643523    2      2      
iter:   9  10:53:31         -2.95  -163.643085    2      2      
iter:  10  10:53:31         -3.16  -163.645221    2      1      
iter:  11  10:53:32         -3.27  -163.645026    2      1      
iter:  12  10:53:32         -3.46  -163.643347    2      1      
iter:  13  10:53:33         -3.55  -163.643205    2      1      
iter:  14  10:53:33         -3.63  -163.643067    2      1      
iter:  15  10:53:34         -3.88  -163.643004    2      1      
iter:  16  10:53:34         -4.03  -163.642568    2      1      

Converged after 16 iterations.

Dipole moment: (1.126473, 0.671962, 0.060255) |e|*Ang

Energy contributions relative to reference atoms: (reference = -24663.074771)

Kinetic:       +127.618645
Potential:     -124.432791
External:        +0.000000
XC:            -169.565225
Entropy (-ST):   -0.363951
Local:           +2.918779
--------------------------
Free energy:   -163.824543
Extrapolated:  -163.642568

Fermi level: -4.83365

 Band  Eigenvalues  Occupancy
    0    -26.46146    2.00000
    1    -23.59100    2.00000
    2    -23.04227    2.00000
    3    -22.27057    2.00000
    4    -21.71517    2.00000
    5    -20.17336    2.00000
    6    -19.57229    2.00000
    7    -19.28964    2.00000
    8    -19.10694    2.00000
    9    -18.18136    2.00000
   10    -18.09101    2.00000
   11    -17.33744    2.00000
   12    -17.02743    2.00000
   13    -15.89222    2.00000
   14    -15.43494    2.00000
   15    -14.91833    2.00000
   16    -14.75662    2.00000
   17    -14.23645    2.00000
   18    -13.66545    2.00000
   19    -13.39632    2.00000
   20    -13.05033    2.00000
   21    -12.98894    2.00000
   22    -12.84661    2.00000
   23    -12.29295    2.00000
   24    -12.18658    2.00000
   25    -11.64877    2.00000
   26    -10.56075    2.00000
   27    -10.25424    2.00000
   28     -9.65322    2.00000
   29     -9.18269    2.00000
   30     -8.53807    2.00000
   31     -8.23825    2.00000
   32     -8.06689    2.00000
   33     -7.93563    2.00000
   34     -7.63100    2.00000
   35     -7.35123    2.00000
   36     -7.05663    2.00000
   37     -6.99685    2.00000
   38     -6.91753    2.00000
   39     -6.81235    2.00000
   40     -6.68807    2.00000
   41     -6.14101    2.00000
   42     -5.66132    1.99949
   43     -5.55024    1.99846
   44     -5.37967    1.99153
   45     -5.26928    1.97467
   46     -5.05090    1.79549
   47     -4.93670    1.47401
   48     -4.76951    0.68984
   49     -4.50986    0.07552
   50     -4.03160    0.00066
   51     -3.94806    0.00029
   52     -3.74871    0.00004
   53     -3.17383    0.00000
   54     -2.79918    0.00000
   55     -2.56550    0.00000
   56     -2.11144    0.00000
   57     -1.53846    0.00000
   58     -1.36865    0.00000
   59     -1.25740    0.00000
   60     -0.99553    0.00000
   61      0.13906    0.00000
   62      0.26148    0.00000
   63      0.59822    0.00000
   64      1.11231    0.00000
   65      1.33147    0.00000
   66      1.69369    0.00000
   67      1.91441    0.00000
   68      2.53782    0.00000
   69      3.54446    0.00000
   70      4.10512    0.00000
   71      4.36483    0.00000
   72      4.58594    0.00000
   73      5.11585    0.00000
   74      5.23733    0.00000
   75      5.38055    0.00000
   76      5.53745    0.00000
   77      6.05949    0.00000
   78      6.34191    0.00000
   79      6.73013    0.00000
   80      7.42451    0.00000
   81      7.47252    0.00000
   82      7.94112    0.00000
   83      8.06283    0.00000
   84      8.22678    0.00000
   85      8.41596    0.00000
   86      8.69238    0.00000
   87      8.80026    0.00000
   88      8.91569    0.00000
   89      9.05105    0.00000
   90      9.21181    0.00000
   91      9.22122    0.00000
   92      9.34631    0.00000
   93      9.55793    0.00000
   94      9.60232    0.00000
   95      9.66863    0.00000
   96      9.76173    0.00000
   97      9.84500    0.00000


Forces in eV/Ang:
  0 C    -1.33008   -0.22736    0.36675
  1 C     3.50770    0.94668    0.31083
  2 C    -0.13655    0.15995    0.49721
  3 C     1.12061    0.60207    1.93813
  4 C    -0.31841   -0.95457    0.87251
  5 C     1.42757   -1.74557   -2.11151
  6 C     0.67002   -0.84222   -2.73716
  7 C    -2.80116    1.13451    0.55870
  8 C    -2.19087    1.09397    0.71298
  9 C    -0.51632   -0.12575   -0.38266
 10 C    -0.05802    0.09828    0.14211
 11 C    -0.37199   -0.63626   -0.02168
 12 C    -0.39048   -3.33879    0.42706
 13 C    -1.03798    0.99470   -0.88288
 14 C    -0.53345   -0.38227   -0.02084
 15 C     0.29871    0.53323   -0.06203
 16 C    -0.67583    0.22005    0.00876
 17 C     5.07676    2.50475    0.27215
 18 C    -0.50490   -0.26232   -0.12701
 19 C     0.41511   -0.19755   -0.45966
 20 C     0.49491    0.22680    0.15328
 21 C     0.34227   -0.02200    0.64859
 22 C    -2.31651    0.98086   -0.03446
 23 C    -0.18103   -0.78208   -0.06563

System changes: positions 

Initializing position-dependent things.

Density initialized from wave functions
           .--------------------------------------.  
          /|                                      |  
         / |                                      |  
        /  |                                      |  
       /   |                                      |  
      /    |                                      |  
     /     |                                      |  
    /      |                                      |  
   /       |                                      |  
  /        |        C  C     C  C                 |  
 *         |  C  C        C      C                |  
 |         |  C C         C   CC C                |  
 |         .------C---C-CC-C--C-------------------.  
 |        /             C     C                  /   
 |       /          C                           /    
 |      /                                      /     
 |     /                                      /      
 |    /                                      /       
 |   /                                      /        
 |  /                                      /         
 | /                                      /          
 |/                                      /           
 *--------------------------------------*            

Positions:
   0 C      6.793211    3.649106    5.097669
   1 C     10.551149    4.746399    5.072786
   2 C      7.400004    7.871302    4.026647
   3 C      8.594500    4.477366    6.322427
   4 C      7.362475    4.090488    6.397356
   5 C     10.780441    5.793314    6.399310
   6 C      6.016416    4.104969    6.367619
   7 C      9.438155    5.416189    5.877318
   8 C      4.807640    4.697682    6.351475
   9 C      9.109502    6.332491    4.771854
  10 C      3.947602    5.622780    6.128905
  11 C      7.829794    6.696323    4.255798
  12 C      9.983331    7.431217    4.601160
  13 C      8.107064    9.036982    4.493936
  14 C      3.303998    8.168760    5.450406
  15 C      6.310317   10.456527    5.221069
  16 C      7.665361   10.381435    4.990166
  17 C     10.974453    8.343669    4.703588
  18 C     10.584764    9.694518    4.861573
  19 C      8.767743   11.262406    5.193877
  20 C      4.032386    9.238990    5.429221
  21 C     10.001989   10.901683    5.081182
  22 C      9.459260    8.781901    4.475157
  23 C      5.132136    9.991354    5.326934

Unit cell:
           periodic     x           y           z      points  spacing
  1. axis:    yes   16.000000    0.000000    0.000000    80     0.2000
  2. axis:    yes    0.000000   16.000000    0.000000    80     0.2000
  3. axis:    yes    0.000000    0.000000   10.000000    48     0.2083

Effective grid spacing dv^(1/3) = 0.2027

                     log10-error:    total        iterations:
           time      wfs    density  energy       fermi  poisson
iter:   1  10:53:36          +inf  -164.606153    3      5      
iter:   2  10:53:36         -1.81  -164.560908    3      2      
iter:   3  10:53:37         -2.01  -164.531275    3      2      
iter:   4  10:53:37         -2.16  -164.516853    3      2      
iter:   5  10:53:38         -2.28  -164.511342    3      2      
iter:   6  10:53:38         -2.44  -164.504940    3      2      
iter:   7  10:53:39         -2.61  -164.505136    3      2      
iter:   8  10:53:39         -2.82  -164.505704    2      1      
iter:   9  10:53:40         -2.90  -164.503728    2      2      
iter:  10  10:53:40         -3.23  -164.503943    2      1      
iter:  11  10:53:41         -3.31  -164.504909    2      1      
iter:  12  10:53:41         -3.46  -164.504116    2      1      
iter:  13  10:53:42         -3.72  -164.503855    2      1      
iter:  14  10:53:42         -3.83  -164.503893    2      1      
iter:  15  10:53:43         -4.01  -164.503536    2      1      

Converged after 15 iterations.

Dipole moment: (1.071623, 0.744706, 0.041229) |e|*Ang

Energy contributions relative to reference atoms: (reference = -24663.074771)

Kinetic:       +122.280719
Potential:     -120.851843
External:        +0.000000
XC:            -168.673611
Entropy (-ST):   -0.348293
Local:           +2.915346
--------------------------
Free energy:   -164.677683
Extrapolated:  -164.503536

Fermi level: -4.88539

 Band  Eigenvalues  Occupancy
    0    -26.10577    2.00000
    1    -23.51027    2.00000
    2    -22.99129    2.00000
    3    -22.26498    2.00000
    4    -21.62804    2.00000
    5    -20.20344    2.00000
    6    -19.53382    2.00000
    7    -19.28492    2.00000
    8    -19.03189    2.00000
    9    -18.19084    2.00000
   10    -18.08252    2.00000
   11    -17.29377    2.00000
   12    -17.01932    2.00000
   13    -15.84952    2.00000
   14    -15.39094    2.00000
   15    -14.85531    2.00000
   16    -14.77890    2.00000
   17    -14.28388    2.00000
   18    -13.51725    2.00000
   19    -13.25007    2.00000
   20    -13.06609    2.00000
   21    -12.94560    2.00000
   22    -12.64377    2.00000
   23    -12.24039    2.00000
   24    -12.06130    2.00000
   25    -11.64661    2.00000
   26    -10.53602    2.00000
   27    -10.21425    2.00000
   28     -9.66094    2.00000
   29     -9.16690    2.00000
   30     -8.55924    2.00000
   31     -8.27380    2.00000
   32     -8.13514    2.00000
   33     -8.05432    2.00000
   34     -7.63911    2.00000
   35     -7.33744    2.00000
   36     -7.01060    2.00000
   37     -6.94501    2.00000
   38     -6.90221    2.00000
   39     -6.80924    2.00000
   40     -6.66013    2.00000
   41     -6.03601    1.99998
   42     -5.64846    1.99903
   43     -5.59556    1.99835
   44     -5.43093    1.99149
   45     -5.31875    1.97410
   46     -5.13490    1.84759
   47     -4.98585    1.46391
   48     -4.81418    0.65825
   49     -4.54844    0.06652
   50     -4.06761    0.00056
   51     -3.96399    0.00020
   52     -3.69362    0.00001
   53     -3.20800    0.00000
   54     -2.68247    0.00000
   55     -2.43873    0.00000
   56     -2.02443    0.00000
   57     -1.54644    0.00000
   58     -1.45472    0.00000
   59     -1.25017    0.00000
   60     -1.04976    0.00000
   61      0.12702    0.00000
   62      0.39915    0.00000
   63      0.56429    0.00000
   64      1.10988    0.00000
   65      1.26532    0.00000
   66      1.86112    0.00000
   67      2.26463    0.00000
   68      2.53753    0.00000
   69      3.45193    0.00000
   70      4.01756    0.00000
   71      4.31383    0.00000
   72      4.53003    0.00000
   73      5.14118    0.00000
   74      5.18840    0.00000
   75      5.45062    0.00000
   76      5.63824    0.00000
   77      6.07071    0.00000
   78      6.27972    0.00000
   79      6.75345    0.00000
   80      7.35141    0.00000
   81      7.44320    0.00000
   82      7.91486    0.00000
   83      8.10092    0.00000
   84      8.22614    0.00000
   85      8.40786    0.00000
   86      8.75697    0.00000
   87      8.77768    0.00000
   88      8.93871    0.00000
   89      9.05312    0.00000
   90      9.20462    0.00000
   91      9.22817    0.00000
   92      9.37088    0.00000
   93      9.50709    0.00000
   94      9.55060    0.00000
   95      9.73558    0.00000
   96      9.80419    0.00000
   97      9.95881    0.00000


Forces in eV/Ang:
  0 C    -1.22602   -0.29532    0.45369
  1 C     3.16433    1.32918    1.05521
  2 C    -0.12038   -0.02989    0.51626
  3 C     0.71498    0.44085    1.81692
  4 C     0.02941   -0.88244    0.71069
  5 C     1.20102   -2.06866   -2.42179
  6 C    -0.07616   -0.49588   -2.79501
  7 C    -1.97626    1.07693    0.25203
  8 C    -1.26426    0.57124    0.86273
  9 C    -0.46454    0.05160   -0.27335
 10 C    -0.25156    0.39888    0.07016
 11 C    -0.44573   -0.27970   -0.14762
 12 C    -0.24385   -2.15177    0.43719
 13 C    -0.71964    0.70915   -0.83588
 14 C    -0.35501   -0.15492   -0.01516
 15 C    -0.30094    0.44420    0.03502
 16 C    -0.38677    0.33524   -0.05850
 17 C     3.74580    1.73070    0.08176
 18 C    -0.58629   -0.28120   -0.11179
 19 C     0.29406   -0.17969   -0.37777
 20 C     0.09889   -0.22549    0.18380
 21 C     0.25793    0.05040    0.59245
 22 C    -1.38208    0.41031    0.06398
 23 C     0.37098   -0.46501   -0.11466

System changes: positions 

Initializing position-dependent things.

Density initialized from wave functions
           .--------------------------------------.  
          /|                                      |  
         / |                                      |  
        /  |                                      |  
       /   |                                      |  
      /    |                                      |  
     /     |                                      |  
    /      |                                      |  
   /       |                                      |  
  /        |        C  C     C  C                 |  
 *         |  C  C        C      C                |  
 |         |  C C         C   CC C                |  
 |         .------C---C-CC-C--C-------------------.  
 |        /             C     C                  /   
 |       /          C                           /    
 |      /                                      /     
 |     /                                      /      
 |    /                                      /       
 |   /                                      /        
 |  /                                      /         
 | /                                      /          
 |/                                      /           
 *--------------------------------------*            

Positions:
   0 C      6.779134    3.645979    5.103237
   1 C     10.585276    4.762416    5.086159
   2 C      7.398784    7.870007    4.032737
   3 C      8.600104    4.481027    6.343747
   4 C      7.366815    4.081086    6.404922
   5 C     10.793042    5.769759    6.371510
   6 C      6.010729    4.100509    6.335364
   7 C      9.418884    5.428081    5.878602
   8 C      4.796894    4.701834    6.361833
   9 C      9.102678    6.330450    4.769391
  10 C      3.943992    5.628171    6.129495
  11 C      7.823580    6.694029    4.253723
  12 C      9.993219    7.424996    4.607086
  13 C      8.097030    9.045588    4.484337
  14 C      3.300307    8.167594    5.450191
  15 C      6.306635   10.461467    5.221478
  16 C      7.660860   10.385368    4.989584
  17 C     11.002947    8.353737    4.702281
  18 C     10.578196    9.691271    4.860619
  19 C      8.771018   11.260421    5.189661
  20 C      4.032923    9.235744    5.431364
  21 C     10.004824   10.902430    5.087789
  22 C      9.449494    8.779767    4.476477
  23 C      5.136881    9.986293    5.325586

Unit cell:
           periodic     x           y           z      points  spacing
  1. axis:    yes   16.000000    0.000000    0.000000    80     0.2000
  2. axis:    yes    0.000000   16.000000    0.000000    80     0.2000
  3. axis:    yes    0.000000    0.000000   10.000000    48     0.2083

Effective grid spacing dv^(1/3) = 0.2027

                     log10-error:    total        iterations:
           time      wfs    density  energy       fermi  poisson
iter:   1  10:53:44          +inf  -165.281249    3      5      
iter:   2  10:53:45         -1.89  -165.244271    3      2      
iter:   3  10:53:45         -2.09  -165.223779    3      2      
iter:   4  10:53:46         -2.23  -165.215884    3      2      
iter:   5  10:53:47         -2.33  -165.209730    3      2      
iter:   6  10:53:47         -2.48  -165.203991    3      2      
iter:   7  10:53:48         -2.69  -165.204617    3      2      
iter:   8  10:53:48         -2.88  -165.204982    2      1      
iter:   9  10:53:49         -2.94  -165.204021    2      2      
iter:  10  10:53:49         -3.29  -165.203951    2      1      
iter:  11  10:53:49         -3.39  -165.205040    2      1      
iter:  12  10:53:50         -3.60  -165.204222    2      1      
iter:  13  10:53:50         -3.75  -165.203939    2      1      
iter:  14  10:53:51         -3.91  -165.203992    2      1      
iter:  15  10:53:51         -4.14  -165.203743    2      1      

Converged after 15 iterations.

Dipole moment: (1.022163, 0.808070, 0.025402) |e|*Ang

Energy contributions relative to reference atoms: (reference = -24663.074771)

Kinetic:       +118.621038
Potential:     -118.458104
External:        +0.000000
XC:            -168.115971
Entropy (-ST):   -0.342841
Local:           +2.920714
--------------------------
Free energy:   -165.375164
Extrapolated:  -165.203743

Fermi level: -4.93441

 Band  Eigenvalues  Occupancy
    0    -25.83084    2.00000
    1    -23.43105    2.00000
    2    -22.92550    2.00000
    3    -22.26119    2.00000
    4    -21.57223    2.00000
    5    -20.23052    2.00000
    6    -19.51594    2.00000
    7    -19.27610    2.00000
    8    -18.98653    2.00000
    9    -18.19721    2.00000
   10    -18.07725    2.00000
   11    -17.28467    2.00000
   12    -17.02330    2.00000
   13    -15.82062    2.00000
   14    -15.35183    2.00000
   15    -14.82701    2.00000
   16    -14.79646    2.00000
   17    -14.29764    2.00000
   18    -13.43768    2.00000
   19    -13.16285    2.00000
   20    -13.04817    2.00000
   21    -12.83529    2.00000
   22    -12.45489    2.00000
   23    -12.21858    2.00000
   24    -11.90134    2.00000
   25    -11.64382    2.00000
   26    -10.50907    2.00000
   27    -10.17462    2.00000
   28     -9.66690    2.00000
   29     -9.16626    2.00000
   30     -8.61806    2.00000
   31     -8.29816    2.00000
   32     -8.19093    2.00000
   33     -8.17396    2.00000
   34     -7.65219    2.00000
   35     -7.33514    2.00000
   36     -7.04485    2.00000
   37     -6.91512    2.00000
   38     -6.88633    2.00000
   39     -6.76452    2.00000
   40     -6.63087    2.00000
   41     -5.93046    1.99991
   42     -5.64804    1.99841
   43     -5.61910    1.99788
   44     -5.48211    1.99167
   45     -5.35447    1.97047
   46     -5.21995    1.89119
   47     -5.02844    1.43829
   48     -4.85801    0.63552
   49     -4.61124    0.07598
   50     -4.11193    0.00054
   51     -3.98361    0.00015
   52     -3.62973    0.00000
   53     -3.24196    0.00000
   54     -2.59559    0.00000
   55     -2.28740    0.00000
   56     -1.94488    0.00000
   57     -1.54287    0.00000
   58     -1.48255    0.00000
   59     -1.25204    0.00000
   60     -1.01455    0.00000
   61      0.08926    0.00000
   62      0.47846    0.00000
   63      0.54253    0.00000
   64      1.07190    0.00000
   65      1.23241    0.00000
   66      1.83219    0.00000
   67      2.43816    0.00000
   68      2.76289    0.00000
   69      3.42766    0.00000
   70      4.04969    0.00000
   71      4.28281    0.00000
   72      4.48407    0.00000
   73      5.07037    0.00000
   74      5.19062    0.00000
   75      5.39307    0.00000
   76      5.98480    0.00000
   77      6.02173    0.00000
   78      6.34187    0.00000
   79      6.76730    0.00000
   80      7.26211    0.00000
   81      7.40468    0.00000
   82      7.85863    0.00000
   83      8.10861    0.00000
   84      8.21882    0.00000
   85      8.41702    0.00000
   86      8.74487    0.00000
   87      8.77308    0.00000
   88      8.97458    0.00000
   89      9.04810    0.00000
   90      9.20256    0.00000
   91      9.23728    0.00000
   92      9.38218    0.00000
   93      9.47513    0.00000
   94      9.52152    0.00000
   95      9.78440    0.00000
   96      9.82941    0.00000
   97     10.05582    0.00000


Forces in eV/Ang:
  0 C    -1.03513   -0.39414    0.40367
  1 C     2.94696    1.56909    1.65516
  2 C    -0.16360    0.03873    0.49982
  3 C     0.51464    0.41275    1.64546
  4 C    -0.19704   -0.91651    0.54678
  5 C     0.98894   -2.33019   -2.59233
  6 C    -0.10130   -0.29942   -2.58331
  7 C    -1.31162    0.97560    0.03806
  8 C    -1.00981    0.49347    0.93005
  9 C    -0.51945    0.15780   -0.17039
 10 C    -0.22342    0.43727    0.05861
 11 C    -0.40806   -0.15608   -0.19893
 12 C    -0.11825   -1.21037    0.40448
 13 C    -0.56783    0.52073   -0.81550
 14 C    -0.28918   -0.12899   -0.00203
 15 C    -0.04834    0.55542    0.02181
 16 C    -0.24525    0.40777   -0.09551
 17 C     2.76216    1.02566   -0.07768
 18 C    -0.66794   -0.22169   -0.07301
 19 C     0.13438   -0.17964   -0.31489
 20 C     0.17796   -0.23554    0.16907
 21 C     0.24694    0.04246    0.50217
 22 C    -0.75555    0.02714    0.12244
 23 C    -0.07022   -0.61003   -0.06738

System changes: positions 

Initializing position-dependent things.

Density initialized from wave functions
           .--------------------------------------.  
          /|                                      |  
         / |                                      |  
        /  |                                      |  
       /   |                                      |  
      /    |                                      |  
     /     |                                      |  
    /      |                                      |  
   /       |                                      |  
  /        |        C  C     C  C                 |  
 *         |  C  C        C      C                |  
 |         |  C C         C   CC C                |  
 |         .------C---C-CC-C--C-------------------.  
 |        /             C     C                  /   
 |       /          C                           /    
 |      /                                      /     
 |     /                                      /      
 |    /                                      /       
 |   /                                      /        
 |  /                                      /         
 | /                                      /          
 |/                                      /           
 *--------------------------------------*            

Positions:
   0 C      6.767528    3.641882    5.107280
   1 C     10.617801    4.778790    5.102712
   2 C      7.397234    7.869729    4.038336
   3 C      8.604952    4.485115    6.362339
   4 C      7.367526    4.071673    6.411152
   5 C     10.804099    5.745257    6.343951
   6 C      6.007014    4.097451    6.307218
   7 C      9.403409    5.438508    5.879275
   8 C      4.786667    4.706482    6.371977
   9 C      9.095440    6.329703    4.767606
  10 C      3.941276    5.633047    6.130104
  11 C      7.818290    6.692466    4.251545
  12 C     10.000596    7.421242    4.612087
  13 C      8.088517    9.052686    4.475315
  14 C      3.296994    8.166101    5.450141
  15 C      6.306587   10.467310    5.221547
  16 C      7.657008   10.389295    4.988724
  17 C     11.027345    8.360725    4.700563
  18 C     10.571411    9.688387    4.859965
  19 C      8.772915   11.258615    5.186093
  20 C      4.034771    9.233296    5.433235
  21 C     10.007725   10.902916    5.093386
  22 C      9.442457    8.777235    4.477849
  23 C      5.136791    9.979786    5.324787

Unit cell:
           periodic     x           y           z      points  spacing
  1. axis:    yes   16.000000    0.000000    0.000000    80     0.2000
  2. axis:    yes    0.000000   16.000000    0.000000    80     0.2000
  3. axis:    yes    0.000000    0.000000   10.000000    48     0.2083

Effective grid spacing dv^(1/3) = 0.2027

                     log10-error:    total        iterations:
           time      wfs    density  energy       fermi  poisson
iter:   1  10:53:53          +inf  -165.863480    3      5      
iter:   2  10:53:53         -1.91  -165.818070    3      2      
iter:   3  10:53:54         -2.21  -165.805580    2      2      
iter:   4  10:53:54         -2.30  -165.803929    2      2      
iter:   5  10:53:55         -2.37  -165.797463    3      2      
iter:   6  10:53:56         -2.54  -165.793529    2      2      
iter:   7  10:53:56         -2.78  -165.793242    2      2      
iter:   8  10:53:56         -2.93  -165.793932    2      1      
iter:   9  10:53:57         -3.10  -165.792644    2      2      
iter:  10  10:53:57         -3.32  -165.792665    2      1      
iter:  11  10:53:58         -3.42  -165.793273    2      1      
iter:  12  10:53:58         -3.59  -165.792796    2      1      
iter:  13  10:53:59         -3.72  -165.792511    2      1      
iter:  14  10:53:59         -3.85  -165.792655    2      1      
iter:  15  10:54:00         -4.03  -165.792605    2      1      

Converged after 15 iterations.

Dipole moment: (0.962872, 0.864235, 0.012664) |e|*Ang

Energy contributions relative to reference atoms: (reference = -24663.074771)

Kinetic:       +115.934592
Potential:     -116.735660
External:        +0.000000
XC:            -167.746583
Entropy (-ST):   -0.341681
Local:           +2.925887
--------------------------
Free energy:   -165.963446
Extrapolated:  -165.792605

Fermi level: -4.97652

 Band  Eigenvalues  Occupancy
    0    -25.61085    2.00000
    1    -23.37757    2.00000
    2    -22.88160    2.00000
    3    -22.25378    2.00000
    4    -21.53048    2.00000
    5    -20.25353    2.00000
    6    -19.49523    2.00000
    7    -19.27026    2.00000
    8    -18.95757    2.00000
    9    -18.20578    2.00000
   10    -18.07556    2.00000
   11    -17.27810    2.00000
   12    -17.00743    2.00000
   13    -15.79764    2.00000
   14    -15.32592    2.00000
   15    -14.83049    2.00000
   16    -14.79435    2.00000
   17    -14.30870    2.00000
   18    -13.37863    2.00000
   19    -13.16944    2.00000
   20    -13.01585    2.00000
   21    -12.67292    2.00000
   22    -12.35642    2.00000
   23    -12.14189    2.00000
   24    -11.73696    2.00000
   25    -11.63193    2.00000
   26    -10.48399    2.00000
   27    -10.15282    2.00000
   28     -9.66944    2.00000
   29     -9.16921    2.00000
   30     -8.66484    2.00000
   31     -8.32256    2.00000
   32     -8.30659    2.00000
   33     -8.22648    2.00000
   34     -7.65718    2.00000
   35     -7.33215    2.00000
   36     -7.07914    2.00000
   37     -6.92799    2.00000
   38     -6.87439    2.00000
   39     -6.69310    2.00000
   40     -6.59955    2.00000
   41     -5.84301    1.99966
   42     -5.68124    1.99826
   43     -5.60023    1.99610
   44     -5.51812    1.99115
   45     -5.38456    1.96676
   46     -5.29916    1.92363
   47     -5.06603    1.41988
   48     -4.89397    0.60922
   49     -4.67639    0.09473
   50     -4.14470    0.00049
   51     -3.99957    0.00011
   52     -3.57038    0.00000
   53     -3.26465    0.00000
   54     -2.52933    0.00000
   55     -2.13990    0.00000
   56     -1.89685    0.00000
   57     -1.54386    0.00000
   58     -1.54215    0.00000
   59     -1.28768    0.00000
   60     -0.87666    0.00000
   61      0.05238    0.00000
   62      0.50407    0.00000
   63      0.56329    0.00000
   64      1.02369    0.00000
   65      1.22830    0.00000
   66      1.79853    0.00000
   67      2.42568    0.00000
   68      2.89137    0.00000
   69      3.40383    0.00000
   70      4.22764    0.00000
   71      4.33496    0.00000
   72      4.49731    0.00000
   73      5.01981    0.00000
   74      5.26961    0.00000
   75      5.36910    0.00000
   76      5.91859    0.00000
   77      6.21344    0.00000
   78      6.55457    0.00000
   79      6.77397    0.00000
   80      7.19654    0.00000
   81      7.38532    0.00000
   82      7.82053    0.00000
   83      8.10140    0.00000
   84      8.22563    0.00000
   85      8.43819    0.00000
   86      8.71896    0.00000
   87      8.77162    0.00000
   88      9.00248    0.00000
   89      9.03512    0.00000
   90      9.20142    0.00000
   91      9.25463    0.00000
   92      9.38911    0.00000
   93      9.47122    0.00000
   94      9.49652    0.00000
   95      9.81078    0.00000
   96      9.86365    0.00000
   97     10.08212    0.00000


Forces in eV/Ang:
  0 C    -0.79551   -0.47567    0.29235
  1 C     2.87132    1.64431    2.01076
  2 C    -0.20314    0.07299    0.47789
  3 C     0.18132    0.31887    1.45939
  4 C    -0.05464   -0.81235    0.35381
  5 C     0.86162   -2.50523   -2.60328
  6 C    -0.45743   -0.03217   -2.21578
  7 C    -0.91468    0.88259   -0.14072
  8 C    -0.57405    0.26792    0.89785
  9 C    -0.56438    0.27031   -0.08247
 10 C    -0.26036    0.52801    0.03149
 11 C    -0.39808   -0.01429   -0.22855
 12 C    -0.11998   -0.57614    0.32854
 13 C    -0.39193    0.36432   -0.76533
 14 C    -0.23122   -0.08203    0.00582
 15 C    -0.46805    0.46285    0.08345
 16 C    -0.07242    0.42277   -0.14286
 17 C     2.10005    0.60245   -0.11337
 18 C    -0.65728   -0.25339   -0.05451
 19 C     0.12168   -0.17111   -0.26302
 20 C     0.03652   -0.40671    0.18398
 21 C     0.16659    0.08213    0.42678
 22 C    -0.40257   -0.22918    0.15538
 23 C     0.29632   -0.38711   -0.09848

System changes: positions 

Initializing position-dependent things.

Density initialized from wave functions
           .--------------------------------------.  
          /|                                      |  
         / |                                      |  
        /  |                                      |  
       /   |                                      |  
      /    |                                      |  
     /     |                                      |  
    /      |                                      |  
   /       |                                      |  
  /        |        C  C     C  C                 |  
 *         |  C  C        C      C                |  
 |         |  C C         C  C C C                |  
 |         .------C---C-CC-C--C-------------------.  
 |        /             C     C                  /   
 |       /          C                           /    
 |      /                                      /     
 |     /                                      /      
 |    /                                      /       
 |   /                                      /        
 |  /                                      /         
 | /                                      /          
 |/                                      /           
 *--------------------------------------*            

Positions:
   0 C      6.758649    3.637076    5.109568
   1 C     10.650127    4.794289    5.120453
   2 C      7.395255    7.870375    4.043477
   3 C      8.607422    4.488751    6.378495
   4 C      7.368801    4.063530    6.415662
   5 C     10.814440    5.720337    6.317873
   6 C      6.001616    4.096463    6.284120
   7 C      9.389450    5.447708    5.879241
   8 C      4.778726    4.710163    6.381006
   9 C      9.087855    6.330155    4.766428
  10 C      3.938845    5.637898    6.130607
  11 C      7.813601    6.691546    4.249468
  12 C     10.005515    7.418814    4.615934
  13 C      8.081788    9.058523    4.466996
  14 C      3.293890    8.164480    5.450180
  15 C      6.303070   10.472088    5.222091
  16 C      7.654336   10.392861    4.987494
  17 C     11.049510    8.366316    4.699378
  18 C     10.565200    9.685146    4.859442
  19 C      8.775049   11.256974    5.182995
  20 C      4.035877    9.230112    5.435157
  21 C     10.009842   10.903685    5.098194
  22 C      9.435902    8.774592    4.479159
  23 C      5.139922    9.975382    5.323736

Unit cell:
           periodic     x           y           z      points  spacing
  1. axis:    yes   16.000000    0.000000    0.000000    80     0.2000
  2. axis:    yes    0.000000   16.000000    0.000000    80     0.2000
  3. axis:    yes    0.000000    0.000000   10.000000    48     0.2083

Effective grid spacing dv^(1/3) = 0.2027

                     log10-error:    total        iterations:
           time      wfs    density  energy       fermi  poisson
iter:   1  10:54:01          +inf  -166.369258    3      5      
iter:   2  10:54:02         -1.92  -166.308724    2      2      
iter:   3  10:54:02         -2.25  -166.304864    2      2      
iter:   4  10:54:03         -2.35  -166.300013    2      2      
iter:   5  10:54:03         -2.42  -166.296023    3      2      
iter:   6  10:54:04         -2.54  -166.294779    2      2      
iter:   7  10:54:04         -2.82  -166.293253    2      1      
iter:   8  10:54:05         -2.97  -166.292505    2      2      
iter:   9  10:54:05         -3.09  -166.293512    2      1      
iter:  10  10:54:06         -3.27  -166.293335    2      1      
iter:  11  10:54:06         -3.43  -166.292595    2      1      
iter:  12  10:54:07         -3.59  -166.292902    2      1      
iter:  13  10:54:07         -3.81  -166.292584    2      1      
iter:  14  10:54:08         -3.98  -166.292259    2      1      
iter:  15  10:54:08         -4.16  -166.292377    1      1      

Converged after 15 iterations.

Dipole moment: (0.912734, 0.903118, 0.005880) |e|*Ang

Energy contributions relative to reference atoms: (reference = -24663.074771)

Kinetic:       +114.146534
Potential:     -115.669100
External:        +0.000000
XC:            -167.525420
Entropy (-ST):   -0.349426
Local:           +2.930322
--------------------------
Free energy:   -166.467090
Extrapolated:  -166.292377

Fermi level: -5.01131

 Band  Eigenvalues  Occupancy
    0    -25.41573    2.00000
    1    -23.32216    2.00000
    2    -22.82505    2.00000
    3    -22.24054    2.00000
    4    -21.49607    2.00000
    5    -20.26828    2.00000
    6    -19.48272    2.00000
    7    -19.25311    2.00000
    8    -18.94258    2.00000
    9    -18.21296    2.00000
   10    -18.07303    2.00000
   11    -17.27732    2.00000
   12    -16.99182    2.00000
   13    -15.78008    2.00000
   14    -15.30214    2.00000
   15    -14.84905    2.00000
   16    -14.78733    2.00000
   17    -14.29879    2.00000
   18    -13.32593    2.00000
   19    -13.19288    2.00000
   20    -12.98376    2.00000
   21    -12.52781    2.00000
   22    -12.29838    2.00000
   23    -12.03492    2.00000
   24    -11.63924    2.00000
   25    -11.52884    2.00000
   26    -10.45195    2.00000
   27    -10.14050    2.00000
   28     -9.66320    2.00000
   29     -9.18356    2.00000
   30     -8.72646    2.00000
   31     -8.41005    2.00000
   32     -8.33509    2.00000
   33     -8.25800    2.00000
   34     -7.66213    2.00000
   35     -7.33600    2.00000
   36     -7.10983    2.00000
   37     -6.94394    2.00000
   38     -6.86147    2.00000
   39     -6.64708    2.00000
   40     -6.57682    2.00000
   41     -5.78469    1.99912
   42     -5.70795    1.99812
   43     -5.59793    1.99435
   44     -5.53558    1.98948
   45     -5.40614    1.96215
   46     -5.36607    1.94402
   47     -5.09391    1.39103
   48     -4.92522    0.59431
   49     -4.74207    0.12685
   50     -4.17621    0.00047
   51     -4.01296    0.00009
   52     -3.52709    0.00000
   53     -3.27765    0.00000
   54     -2.46794    0.00000
   55     -2.02716    0.00000
   56     -1.87259    0.00000
   57     -1.57276    0.00000
   58     -1.51836    0.00000
   59     -1.31202    0.00000
   60     -0.65520    0.00000
   61      0.02775    0.00000
   62      0.49530    0.00000
   63      0.58098    0.00000
   64      0.97385    0.00000
   65      1.23279    0.00000
   66      1.77604    0.00000
   67      2.40948    0.00000
   68      2.87579    0.00000
   69      3.35454    0.00000
   70      4.20583    0.00000
   71      4.39220    0.00000
   72      4.65293    0.00000
   73      4.98268    0.00000
   74      5.31315    0.00000
   75      5.52234    0.00000
   76      5.94271    0.00000
   77      6.30790    0.00000
   78      6.72132    0.00000
   79      6.86174    0.00000
   80      7.14370    0.00000
   81      7.37066    0.00000
   82      7.76527    0.00000
   83      8.08185    0.00000
   84      8.23882    0.00000
   85      8.46594    0.00000
   86      8.69668    0.00000
   87      8.76697    0.00000
   88      8.99085    0.00000
   89      9.03872    0.00000
   90      9.19940    0.00000
   91      9.27101    0.00000
   92      9.38121    0.00000
   93      9.47396    0.00000
   94      9.51001    0.00000
   95      9.81930    0.00000
   96      9.90420    0.00000
   97     10.07568    0.00000


Forces in eV/Ang:
  0 C    -0.55372   -0.52727    0.20710
  1 C     2.81097    1.56666    2.14242
  2 C    -0.24411    0.07400    0.45988
  3 C     0.05068    0.32712    1.28115
  4 C    -0.17318   -0.74682    0.16860
  5 C     0.70857   -2.57040   -2.49241
  6 C    -0.57984    0.13798   -1.87463
  7 C    -0.48764    0.73275   -0.23090
  8 C    -0.37059    0.19974    0.87735
  9 C    -0.59841    0.37663   -0.00708
 10 C    -0.28721    0.58318    0.01254
 11 C    -0.41182    0.14570   -0.24168
 12 C    -0.15832   -0.05632    0.23899
 13 C    -0.36010    0.27752   -0.74146
 14 C    -0.17528   -0.04583    0.01530
 15 C    -0.25108    0.53160    0.06334
 16 C    -0.03785    0.44014   -0.15596
 17 C     1.60770    0.25742   -0.15152
 18 C    -0.67878   -0.25439   -0.03843
 19 C     0.00404   -0.15985   -0.21503
 20 C     0.04847   -0.47129    0.18461
 21 C     0.19288    0.04202    0.35618
 22 C    -0.07335   -0.41677    0.17945
 23 C     0.03346   -0.46228   -0.06915

System changes: positions 

Initializing position-dependent things.

Density initialized from wave functions
           .--------------------------------------.  
          /|                                      |  
         / |                                      |  
        /  |                                      |  
       /   |                                      |  
      /    |                                      |  
     /     |                                      |  
    /      |                                      |  
   /       |                                      |  
  /        |        C  C     C  C                 |  
 *         |  C  C        C      C                |  
 |         |  C C         C  C C C                |  
 |         .------C--C--CC-C--C-------------------.  
 |        /             C     C                  /   
 |       /          C                           /    
 |      /                                      /     
 |     /                                      /      
 |    /                                      /       
 |   /                                      /        
 |  /                                      /         
 | /                                      /          
 |/                                      /           
 *--------------------------------------*            

Positions:
   0 C      6.752142    3.631747    5.110790
   1 C     10.683131    4.808239    5.138235
   2 C      7.392845    7.871037    4.048480
   3 C      8.609368    4.492927    6.393023
   4 C      7.368400    4.056011    6.418535
   5 C     10.823796    5.694983    6.293279
   6 C      5.995679    4.096802    6.264474
   7 C      9.378143    5.455452    5.879029
   8 C      4.771660    4.713822    6.389680
   9 C      9.079918    6.331850    4.765788
  10 C      3.936192    5.643152    6.130973
  11 C      7.808749    6.692077    4.247404
  12 C     10.008333    7.418056    4.618705
  13 C      8.075006    9.063925    4.458788
  14 C      3.291159    8.163018    5.450317
  15 C      6.302291   10.477667    5.222328
  16 C      7.651487   10.396422    4.986190
  17 C     11.070402    8.370745    4.698380
  18 C     10.558835    9.681695    4.858987
  19 C      8.776124   11.255461    5.180265
  20 C      4.037285    9.226455    5.437115
  21 C     10.012455   10.903915    5.102446
  22 C      9.430771    8.771576    4.480518
  23 C      5.140235    9.970008    5.322984

Unit cell:
           periodic     x           y           z      points  spacing
  1. axis:    yes   16.000000    0.000000    0.000000    80     0.2000
  2. axis:    yes    0.000000   16.000000    0.000000    80     0.2000
  3. axis:    yes    0.000000    0.000000   10.000000    48     0.2083

Effective grid spacing dv^(1/3) = 0.2027

                     log10-error:    total        iterations:
           time      wfs    density  energy       fermi  poisson
iter:   1  10:54:10          +inf  -166.829646    2      5      
iter:   2  10:54:10         -1.87  -166.734514    3      2      
iter:   3  10:54:11         -2.17  -166.736703    2      2      
iter:   4  10:54:11         -2.33  -166.730787    2      1      
iter:   5  10:54:12         -2.42  -166.725190    3      2      
iter:   6  10:54:12         -2.47  -166.733155    2      2      
iter:   7  10:54:13         -2.49  -166.722538    3      2      
iter:   8  10:54:13         -2.90  -166.723031    2      1      
iter:   9  10:54:14         -3.05  -166.723005    2      2      
iter:  10  10:54:14         -3.25  -166.722815    2      1      
iter:  11  10:54:15         -3.37  -166.723220    2      1      
iter:  12  10:54:15         -3.57  -166.722641    2      1      
iter:  13  10:54:16         -3.75  -166.722749    2      1      
iter:  14  10:54:16         -3.95  -166.722567    2      1      
iter:  15  10:54:17         -4.07  -166.722486    2      1      

Converged after 15 iterations.

Dipole moment: (0.858674, 0.925720, 0.005764) |e|*Ang

Energy contributions relative to reference atoms: (reference = -24663.074771)

Kinetic:       +112.990554
Potential:     -115.070353
External:        +0.000000
XC:            -167.394251
Entropy (-ST):   -0.361350
Local:           +2.932238
--------------------------
Free energy:   -166.903161
Extrapolated:  -166.722486

Fermi level: -5.03667

 Band  Eigenvalues  Occupancy
    0    -25.23614    2.00000
    1    -23.27671    2.00000
    2    -22.76804    2.00000
    3    -22.21699    2.00000
    4    -21.46396    2.00000
    5    -20.27378    2.00000
    6    -19.46770    2.00000
    7    -19.23431    2.00000
    8    -18.93675    2.00000
    9    -18.22484    2.00000
   10    -18.06858    2.00000
   11    -17.27171    2.00000
   12    -16.96165    2.00000
   13    -15.76724    2.00000
   14    -15.28927    2.00000
   15    -14.86739    2.00000
   16    -14.78517    2.00000
   17    -14.27937    2.00000
   18    -13.27132    2.00000
   19    -13.21538    2.00000
   20    -12.95153    2.00000
   21    -12.42339    2.00000
   22    -12.24196    2.00000
   23    -11.92962    2.00000
   24    -11.61025    2.00000
   25    -11.32923    2.00000
   26    -10.41812    2.00000
   27    -10.13979    2.00000
   28     -9.64954    2.00000
   29     -9.21211    2.00000
   30     -8.78914    2.00000
   31     -8.48449    2.00000
   32     -8.34019    2.00000
   33     -8.28311    2.00000
   34     -7.65769    2.00000
   35     -7.34226    2.00000
   36     -7.13083    2.00000
   37     -6.95794    2.00000
   38     -6.85097    2.00000
   39     -6.62703    2.00000
   40     -6.55551    2.00000
   41     -5.76167    1.99858
   42     -5.72236    1.99790
   43     -5.61101    1.99361
   44     -5.53801    1.98679
   45     -5.46314    1.97228
   46     -5.37873    1.93669
   47     -5.11290    1.36372
   48     -4.94811    0.58404
   49     -4.79637    0.16588
   50     -4.19528    0.00044
   51     -4.01943    0.00008
   52     -3.49927    0.00000
   53     -3.27030    0.00000
   54     -2.41858    0.00000
   55     -1.96949    0.00000
   56     -1.85281    0.00000
   57     -1.61519    0.00000
   58     -1.49656    0.00000
   59     -1.32292    0.00000
   60     -0.39246    0.00000
   61      0.02466    0.00000
   62      0.49650    0.00000
   63      0.57749    0.00000
   64      0.92820    0.00000
   65      1.25925    0.00000
   66      1.75943    0.00000
   67      2.40317    0.00000
   68      2.81556    0.00000
   69      3.32470    0.00000
   70      4.17878    0.00000
   71      4.39682    0.00000
   72      4.71472    0.00000
   73      4.96119    0.00000
   74      5.29888    0.00000
   75      5.58623    0.00000
   76      6.20827    0.00000
   77      6.38582    0.00000
   78      6.70803    0.00000
   79      7.08480    0.00000
   80      7.11282    0.00000
   81      7.39040    0.00000
   82      7.72293    0.00000
   83      8.06427    0.00000
   84      8.25467    0.00000
   85      8.49637    0.00000
   86      8.67948    0.00000
   87      8.76548    0.00000
   88      8.97166    0.00000
   89      9.04091    0.00000
   90      9.19799    0.00000
   91      9.28123    0.00000
   92      9.37122    0.00000
   93      9.47229    0.00000
   94      9.55006    0.00000
   95      9.82814    0.00000
   96      9.93046    0.00000
   97     10.06065    0.00000


Forces in eV/Ang:
  0 C    -0.36574   -0.56652    0.17466
  1 C     2.72800    1.28100    2.00017
  2 C    -0.30541    0.18305    0.43209
  3 C    -0.16642    0.29501    1.14605
  4 C    -0.14351   -0.65720   -0.01509
  5 C     0.57729   -2.38138   -2.09797
  6 C    -0.70410    0.26889   -1.56113
  7 C    -0.10131    0.58043   -0.28727
  8 C    -0.20159    0.14851    0.82805
  9 C    -0.57598    0.48555    0.04206
 10 C    -0.27252    0.58336   -0.00301
 11 C    -0.37956    0.18876   -0.21304
 12 C    -0.25401    0.36761    0.14822
 13 C    -0.24777    0.18308   -0.70028
 14 C    -0.16077   -0.04430    0.01930
 15 C    -0.53672    0.45967    0.09938
 16 C     0.06689    0.42120   -0.19286
 17 C     1.29048    0.01667   -0.17092
 18 C    -0.65439   -0.31046   -0.01449
 19 C     0.02256   -0.14944   -0.17721
 20 C     0.01859   -0.52235    0.19959
 21 C     0.11424    0.03895    0.30730
 22 C     0.06032   -0.53499    0.16988
 23 C     0.26302   -0.32502   -0.09343

System changes: positions 

Initializing position-dependent things.

Density initialized from wave functions
           .--------------------------------------.  
          /|                                      |  
         / |                                      |  
        /  |                                      |  
       /   |                                      |  
      /    |                                      |  
     /     |                                      |  
    /      |                                      |  
[...]
Free energy:   -179.963799
Extrapolated:  -179.938308

Fermi level: -4.56052

 Band  Eigenvalues  Occupancy
    0    -23.55016    2.00000
    1    -21.56365    2.00000
    2    -21.37996    2.00000
    3    -20.82826    2.00000
    4    -20.55329    2.00000
    5    -20.25508    2.00000
    6    -19.74377    2.00000
    7    -19.15769    2.00000
    8    -18.71400    2.00000
    9    -18.22252    2.00000
   10    -17.95270    2.00000
   11    -17.03336    2.00000
   12    -16.67006    2.00000
   13    -16.45003    2.00000
   14    -15.63707    2.00000
   15    -15.42153    2.00000
   16    -14.69230    2.00000
   17    -14.26174    2.00000
   18    -13.81256    2.00000
   19    -13.65588    2.00000
   20    -12.95104    2.00000
   21    -12.35920    2.00000
   22    -12.14446    2.00000
   23    -11.95741    2.00000
   24    -11.16645    2.00000
   25    -10.55458    2.00000
   26    -10.43082    2.00000
   27     -9.80380    2.00000
   28     -9.61057    2.00000
   29     -9.54326    2.00000
   30     -9.41265    2.00000
   31     -8.92947    2.00000
   32     -8.89439    2.00000
   33     -8.65631    2.00000
   34     -8.25658    2.00000
   35     -7.97823    2.00000
   36     -7.63147    2.00000
   37     -6.99897    2.00000
   38     -6.94478    2.00000
   39     -6.75683    2.00000
   40     -6.56502    2.00000
   41     -6.34898    2.00000
   42     -5.90098    2.00000
   43     -5.54883    1.99990
   44     -5.33834    1.99916
   45     -5.27273    1.99839
   46     -5.02515    1.98099
   47     -4.98610    1.97203
   48     -4.19277    0.04932
   49     -3.62851    0.00018
   50     -3.44385    0.00003
   51     -3.20963    0.00000
   52     -3.14984    0.00000
   53     -2.61198    0.00000
   54     -1.95257    0.00000
   55     -1.68340    0.00000
   56     -1.45950    0.00000
   57     -0.87076    0.00000
   58     -0.39273    0.00000
   59     -0.11006    0.00000
   60      0.08537    0.00000
   61      0.28258    0.00000
   62      0.94445    0.00000
   63      1.03117    0.00000
   64      1.63232    0.00000
   65      2.43315    0.00000
   66      2.98121    0.00000
   67      4.02429    0.00000
   68      4.15306    0.00000
   69      4.75050    0.00000
   70      5.42173    0.00000
   71      5.44806    0.00000
   72      5.66694    0.00000
   73      5.84183    0.00000
   74      6.12869    0.00000
   75      6.23717    0.00000
   76      6.55595    0.00000
   77      6.77250    0.00000
   78      7.41269    0.00000
   79      7.59497    0.00000
   80      7.94348    0.00000
   81      8.02152    0.00000
   82      8.17402    0.00000
   83      8.58267    0.00000
   84      8.70392    0.00000
   85      8.82593    0.00000
   86      9.09021    0.00000
   87      9.17252    0.00000
   88      9.19075    0.00000
   89      9.20772    0.00000
   90      9.35765    0.00000
   91      9.48506    0.00000
   92      9.50995    0.00000
   93      9.78979    0.00000
   94      9.93127    0.00000
   95     10.00543    0.00000
   96     10.07554    0.00000
   97     10.12086    0.00000


Forces in eV/Ang:
  0 C    -0.00627    0.02219    0.00750
  1 C     0.12597   -0.00500    0.02173
  2 C     0.00851   -0.00130   -0.01237
  3 C     0.03225   -0.03375    0.00529
  4 C     0.00548    0.00350   -0.02291
  5 C    -0.09984    0.03336   -0.02500
  6 C     0.01628   -0.00033    0.02698
  7 C     0.00494   -0.00578   -0.01192
  8 C     0.01676   -0.01091    0.01691
  9 C    -0.01370   -0.01845   -0.01341
 10 C    -0.00370    0.01377   -0.00596
 11 C    -0.00902    0.00044    0.01363
 12 C     0.01297   -0.00188   -0.00383
 13 C     0.00220   -0.00125    0.00164
 14 C    -0.02228    0.01122   -0.01268
 15 C     0.00507   -0.02424   -0.03496
 16 C    -0.00127   -0.00185   -0.02209
 17 C    -0.03687   -0.01793   -0.00484
 18 C     0.01029   -0.00369    0.00623
 19 C    -0.00996    0.01779    0.01524
 20 C    -0.00129   -0.01819   -0.01588
 21 C    -0.00879   -0.00190   -0.00050
 22 C    -0.00307   -0.00762    0.01227
 23 C    -0.00142    0.00325    0.01553

System changes: positions 

Initializing position-dependent things.

Density initialized from wave functions
           .--------------------------------------.  
          /|                                      |  
         / |                                      |  
        /  |                                      |  
       /   |                                      |  
      /    |                                      |  
     /     |                                      |  
    /      |                                      |  
   /       |                                      |  
  /        |          C      C  C                 |  
 *         |   CC  C      C      C                |  
 |         |  C         C C  C                    |  
 |         .----C--C-----C--C-C-------------------.  
 |        /           C  C     C  C              /   
 |       /                                      /    
 |      /                                      /     
 |     /                                      /      
 |    /                                      /       
 |   /                                      /        
 |  /                                      /         
 | /                                      /          
 |/                                      /           
 *--------------------------------------*            

Positions:
   0 C      6.242538    3.891359    6.051854
   1 C     12.482252    4.330986    5.487936
   2 C      7.368070    7.768948    4.734652
   3 C      8.775826    4.236267    5.669996
   4 C      7.577302    3.909114    5.875643
   5 C     11.219685    4.679322    5.457483
   6 C      5.080639    4.394208    6.120168
   7 C      9.896746    5.060238    5.362269
   8 C      4.112243    5.319380    6.095319
   9 C      9.441158    6.409120    4.960560
  10 C      3.597973    6.476978    6.011156
  11 C      8.048175    6.702692    4.840083
  12 C     10.125639    7.651687    4.759883
  13 C      7.937077    9.064637    4.660951
  14 C      3.611756    7.798773    5.794620
  15 C      6.037524   10.542031    5.036936
  16 C      7.432017   10.437799    4.817450
  17 C     11.004710    8.681746    5.433454
  18 C     10.419184    9.830862    4.711033
  19 C      8.520962   11.348328    4.837529
  20 C      4.048634    8.967034    5.569531
  21 C      9.764290   11.042935    4.857172
  22 C      9.358689    8.840862    4.471440
  23 C      4.980410    9.888750    5.263576

Unit cell:
           periodic     x           y           z      points  spacing
  1. axis:    yes   16.000000    0.000000    0.000000    80     0.2000
  2. axis:    yes    0.000000   16.000000    0.000000    80     0.2000
  3. axis:    yes    0.000000    0.000000   10.000000    48     0.2083

Effective grid spacing dv^(1/3) = 0.2027

                     log10-error:    total        iterations:
           time      wfs    density  energy       fermi  poisson
iter:   1  11:07:23          +inf  -179.952622    3      5      
iter:   2  11:07:24         -2.47  -179.948698    2      1      
iter:   3  11:07:24         -2.60  -179.940400    3      2      
iter:   4  11:07:25         -2.80  -179.941133    3      2      
iter:   5  11:07:25         -2.80  -179.938984    3      2      
iter:   6  11:07:26         -3.26  -179.940179    2      1      
iter:   7  11:07:26         -3.41  -179.939720    2      1      
iter:   8  11:07:27         -3.56  -179.940355    2      1      
iter:   9  11:07:27         -3.51  -179.938910    2      1      
iter:  10  11:07:27         -4.00  -179.938375    2      1      
iter:  11  11:07:28         -4.02  -179.938480    1      1      

Converged after 11 iterations.

Dipole moment: (-1.451417, 0.564220, -0.184727) |e|*Ang

Energy contributions relative to reference atoms: (reference = -24663.074771)

Kinetic:       +104.413249
Potential:     -115.093807
External:        +0.000000
XC:            -172.235035
Entropy (-ST):   -0.047019
Local:           +3.000623
--------------------------
Free energy:   -179.961989
Extrapolated:  -179.938480

Fermi level: -4.56442

 Band  Eigenvalues  Occupancy
    0    -23.54973    2.00000
    1    -21.54935    2.00000
    2    -21.37577    2.00000
    3    -20.82301    2.00000
    4    -20.54759    2.00000
    5    -20.24668    2.00000
    6    -19.73634    2.00000
    7    -19.15342    2.00000
    8    -18.70824    2.00000
    9    -18.21579    2.00000
   10    -17.94790    2.00000
   11    -17.01600    2.00000
   12    -16.65240    2.00000
   13    -16.44344    2.00000
   14    -15.63012    2.00000
   15    -15.41694    2.00000
   16    -14.68273    2.00000
   17    -14.25470    2.00000
   18    -13.80906    2.00000
   19    -13.65040    2.00000
   20    -12.94384    2.00000
   21    -12.35088    2.00000
   22    -12.14193    2.00000
   23    -11.95497    2.00000
   24    -11.16315    2.00000
   25    -10.55363    2.00000
   26    -10.43589    2.00000
   27     -9.79653    2.00000
   28     -9.60458    2.00000
   29     -9.53927    2.00000
   30     -9.40424    2.00000
   31     -8.92339    2.00000
   32     -8.89020    2.00000
   33     -8.65027    2.00000
   34     -8.25122    2.00000
   35     -7.97455    2.00000
   36     -7.62639    2.00000
   37     -6.99467    2.00000
   38     -6.94212    2.00000
   39     -6.75178    2.00000
   40     -6.56122    2.00000
   41     -6.34364    2.00000
   42     -5.89248    2.00000
   43     -5.54223    1.99989
   44     -5.33086    1.99906
   45     -5.25904    1.99808
   46     -5.04537    1.98383
   47     -4.99953    1.97454
   48     -4.18590    0.04440
   49     -3.62788    0.00017
   50     -3.43836    0.00003
   51     -3.20335    0.00000
   52     -3.13568    0.00000
   53     -2.60130    0.00000
   54     -1.95918    0.00000
   55     -1.68713    0.00000
   56     -1.45399    0.00000
   57     -0.87344    0.00000
   58     -0.39194    0.00000
   59     -0.12321    0.00000
   60      0.08791    0.00000
   61      0.28219    0.00000
   62      0.89628    0.00000
   63      0.99218    0.00000
   64      1.63260    0.00000
   65      2.41902    0.00000
   66      2.97600    0.00000
   67      4.03023    0.00000
   68      4.13272    0.00000
   69      4.74804    0.00000
   70      5.37328    0.00000
   71      5.42855    0.00000
   72      5.66451    0.00000
   73      5.82007    0.00000
   74      6.11738    0.00000
   75      6.20570    0.00000
   76      6.55347    0.00000
   77      6.76225    0.00000
   78      7.41124    0.00000
   79      7.56256    0.00000
   80      7.93730    0.00000
   81      7.99796    0.00000
   82      8.17565    0.00000
   83      8.56330    0.00000
   84      8.70701    0.00000
   85      8.82495    0.00000
   86      9.07891    0.00000
   87      9.16808    0.00000
   88      9.19175    0.00000
   89      9.19921    0.00000
   90      9.35558    0.00000
   91      9.47044    0.00000
   92      9.49868    0.00000
   93      9.78401    0.00000
   94      9.92336    0.00000
   95     10.00696    0.00000
   96     10.08305    0.00000
   97     10.11749    0.00000


Forces in eV/Ang:
  0 C    -0.04331    0.03778   -0.02125
  1 C    -0.45892    0.13076   -0.01182
  2 C    -0.00132    0.01344   -0.02428
  3 C    -0.01892   -0.00457    0.02224
  4 C     0.04628    0.01759   -0.02381
  5 C     0.46061   -0.10141    0.01283
  6 C     0.05475   -0.02025    0.01567
  7 C    -0.02512    0.02653   -0.04376
  8 C     0.03546   -0.04539    0.01062
  9 C    -0.00313   -0.05724    0.02882
 10 C    -0.00755    0.00768   -0.01144
 11 C     0.02930   -0.00952    0.00241
 12 C    -0.02270   -0.00856    0.00131
 13 C    -0.00221   -0.01062    0.03918
 14 C    -0.03238   -0.04658    0.00638
 15 C    -0.04826   -0.04382    0.02323
 16 C     0.01571   -0.01767   -0.05278
 17 C    -0.00305   -0.02817   -0.01321
 18 C    -0.02601   -0.02500   -0.01012
 19 C     0.00646    0.02646    0.02068
 20 C     0.02684    0.07113   -0.06054
 21 C    -0.01543   -0.01868    0.02105
 22 C     0.01040    0.00335   -0.01636
 23 C     0.02391    0.01534   -0.00044

System changes: positions 

Initializing position-dependent things.

Density initialized from wave functions
           .--------------------------------------.  
          /|                                      |  
         / |                                      |  
        /  |                                      |  
       /   |                                      |  
      /    |                                      |  
     /     |                                      |  
    /      |                                      |  
   /       |                                      |  
  /        |          C      C  C                 |  
 *         |   CC  C      C      C                |  
 |         |  C         C C  C                    |  
 |         .----C--C-----C--C-CC------------------.  
 |        /           C  C        C              /   
 |       /                                      /    
 |      /                                      /     
 |     /                                      /      
 |    /                                      /       
 |   /                                      /        
 |  /                                      /         
 | /                                      /          
 |/                                      /           
 *--------------------------------------*            

Positions:
   0 C      6.242305    3.885398    6.047969
   1 C     12.472275    4.338476    5.486140
   2 C      7.365569    7.769004    4.729641
   3 C      8.774620    4.240781    5.674323
   4 C      7.577560    3.908030    5.876674
   5 C     11.218094    4.691917    5.478103
   6 C      5.081061    4.388156    6.116498
   7 C      9.893733    5.066223    5.368181
   8 C      4.113624    5.313797    6.091123
   9 C      9.438103    6.409545    4.956585
  10 C      3.602474    6.473654    6.011028
  11 C      8.045435    6.702191    4.832741
  12 C     10.122653    7.651086    4.754143
  13 C      7.935393    9.064589    4.659627
  14 C      3.619634    7.795640    5.797689
  15 C      6.037902   10.543908    5.038261
  16 C      7.432406   10.438010    4.818478
  17 C     11.007645    8.677343    5.425773
  18 C     10.418461    9.828444    4.709273
  19 C      8.522444   11.347170    4.843434
  20 C      4.053336    8.965313    5.569466
  21 C      9.765529   11.040984    4.862067
  22 C      9.356574    8.840758    4.467891
  23 C      4.981885    9.888948    5.262334

Unit cell:
           periodic     x           y           z      points  spacing
  1. axis:    yes   16.000000    0.000000    0.000000    80     0.2000
  2. axis:    yes    0.000000   16.000000    0.000000    80     0.2000
  3. axis:    yes    0.000000    0.000000   10.000000    48     0.2083

Effective grid spacing dv^(1/3) = 0.2027

                     log10-error:    total        iterations:
           time      wfs    density  energy       fermi  poisson
iter:   1  11:07:29          +inf  -179.942762    3      5      
iter:   2  11:07:30         -2.67  -179.940188    2      1      
iter:   3  11:07:30         -2.81  -179.940582    3      2      
iter:   4  11:07:31         -3.03  -179.939852    3      2      
iter:   5  11:07:31         -3.08  -179.938298    2      1      
iter:   6  11:07:32         -3.50  -179.937722    2      1      
iter:   7  11:07:32         -3.24  -179.941205    2      1      
iter:   8  11:07:33         -3.57  -179.939557    2      1      
iter:   9  11:07:33         -3.77  -179.939242    2      1      
iter:  10  11:07:33         -4.17  -179.939858    2      1      

Converged after 10 iterations.

Dipole moment: (-1.458002, 0.569959, -0.181406) |e|*Ang

Energy contributions relative to reference atoms: (reference = -24663.074771)

Kinetic:       +105.266809
Potential:     -115.774103
External:        +0.000000
XC:            -172.432908
Entropy (-ST):   -0.049821
Local:           +3.025254
--------------------------
Free energy:   -179.964768
Extrapolated:  -179.939858

Fermi level: -4.56054

 Band  Eigenvalues  Occupancy
    0    -23.55054    2.00000
    1    -21.55685    2.00000
    2    -21.37961    2.00000
    3    -20.82634    2.00000
    4    -20.55069    2.00000
    5    -20.25203    2.00000
    6    -19.74127    2.00000
    7    -19.15656    2.00000
    8    -18.71221    2.00000
    9    -18.21834    2.00000
   10    -17.95141    2.00000
   11    -17.02637    2.00000
   12    -16.66282    2.00000
   13    -16.44815    2.00000
   14    -15.63430    2.00000
   15    -15.42041    2.00000
   16    -14.68862    2.00000
   17    -14.25985    2.00000
   18    -13.81135    2.00000
   19    -13.65261    2.00000
   20    -12.94764    2.00000
   21    -12.35532    2.00000
   22    -12.14420    2.00000
   23    -11.95521    2.00000
   24    -11.16591    2.00000
   25    -10.55585    2.00000
   26    -10.43417    2.00000
   27     -9.79999    2.00000
   28     -9.60833    2.00000
   29     -9.54219    2.00000
   30     -9.40995    2.00000
   31     -8.92795    2.00000
   32     -8.89317    2.00000
   33     -8.65488    2.00000
   34     -8.25463    2.00000
   35     -7.97738    2.00000
   36     -7.62929    2.00000
   37     -6.99760    2.00000
   38     -6.94509    2.00000
   39     -6.75592    2.00000
   40     -6.56381    2.00000
   41     -6.34761    2.00000
   42     -5.89667    2.00000
   43     -5.54532    1.99989
   44     -5.33459    1.99913
   45     -5.26602    1.99828
   46     -5.02852    1.98161
   47     -4.98984    1.97304
   48     -4.18966    0.04784
   49     -3.62879    0.00018
   50     -3.44335    0.00003
   51     -3.20782    0.00000
   52     -3.14444    0.00000
   53     -2.60984    0.00000
   54     -1.95454    0.00000
   55     -1.68590    0.00000
   56     -1.45771    0.00000
   57     -0.87206    0.00000
   58     -0.39316    0.00000
   59     -0.11366    0.00000
   60      0.08834    0.00000
   61      0.28352    0.00000
   62      0.93547    0.00000
   63      1.01798    0.00000
   64      1.63192    0.00000
   65      2.43425    0.00000
   66      2.97637    0.00000
   67      4.02809    0.00000
   68      4.14547    0.00000
   69      4.74669    0.00000
   70      5.41423    0.00000
   71      5.42383    0.00000
   72      5.66488    0.00000
   73      5.82938    0.00000
   74      6.12326    0.00000
   75      6.22280    0.00000
   76      6.55788    0.00000
   77      6.76797    0.00000
   78      7.41306    0.00000
   79      7.57781    0.00000
   80      7.94233    0.00000
   81      8.01301    0.00000
   82      8.17350    0.00000
   83      8.57749    0.00000
   84      8.70442    0.00000
   85      8.82500    0.00000
   86      9.08607    0.00000
   87      9.16917    0.00000
   88      9.18949    0.00000
   89      9.20458    0.00000
   90      9.35597    0.00000
   91      9.47661    0.00000
   92      9.50370    0.00000
   93      9.78612    0.00000
   94      9.92813    0.00000
   95     10.00574    0.00000
   96     10.07935    0.00000
   97     10.12039    0.00000


Forces in eV/Ang:
  0 C     0.00311    0.02278   -0.00670
  1 C    -0.05208    0.04371    0.00858
  2 C     0.01506   -0.00236   -0.01774
  3 C     0.02059   -0.01968    0.00361
  4 C     0.01183    0.00336   -0.01751
  5 C     0.06070    0.01381    0.03032
  6 C     0.00947   -0.00664    0.02217
  7 C     0.01084   -0.00431   -0.01881
  8 C     0.01401   -0.00928    0.01170
  9 C    -0.00684   -0.03282    0.00650
 10 C     0.00360   -0.00322   -0.00846
 11 C    -0.00085    0.00009    0.00266
 12 C    -0.00050   -0.00169   -0.00002
 13 C     0.00265   -0.00561    0.01584
 14 C    -0.01538   -0.00634   -0.00928
 15 C    -0.00234   -0.02335   -0.00229
 16 C     0.00493   -0.00576   -0.03263
 17 C    -0.02512   -0.02414   -0.02648
 18 C    -0.01023   -0.01287    0.00064
 19 C     0.00163    0.01451    0.01749
 20 C    -0.00157   -0.00142   -0.03923
 21 C    -0.00902   -0.00857   -0.00029
 22 C     0.00826   -0.00573    0.00389
 23 C    -0.00130    0.00398    0.01029

