
  ___ ___ ___ _ _ _  
 |   |   |_  | | | | 
 | | | | | . | | | | 
 |__ |  _|___|_____|  1.3.0b1
 |___|_|             

User:   esb@s65n12.grendel.cscaa.dk
Date:   Thu Nov  9 11:53:20 2017
Arch:   x86_64
Pid:    21988
Python: 2.7.13
gpaw:   /home/esb/DFT/gpaw_git/gpaw
_gpaw:  /home/esb/DFT/gpaw_git/build/bin.linux-x86_64-2.7/gpaw-python
ase:    /home/esb/DFT/ase_git/ase (version 3.15.0b1)
numpy:  /comm/swstack/core/python/2.7.13/lib/python2.7/site-packages/numpy (version 1.13.3)
scipy:  /comm/swstack/core/python/2.7.13/lib/python2.7/site-packages/scipy (version 0.19.1)
units:  Angstrom and eV
cores:  16
Extra parameters: {'blacs': True}

Input parameters:
  basis: dzp
  gpts: [80 80 48]
  kpts: [1 1 1]
  maxiter: 99
  mixer: {backend: pulay,
          beta: 0.05,
          method: separate,
          nmaxold: 5,
          weight: 75}
  mode: lcao
  nbands: -50
  occupations: {name: fermi-dirac,
                width: 0.1}
  poissonsolver: {eps: 1e-07,
                  name: fd,
                  nn: 3,
                  relax: GS}
  xc: PBE

System changes: positions, numbers, cell, pbc, initial_charges, initial_magmoms 

Initialize ...

C-setup:
  name: Carbon
  id: 4aa54d4b901d75f77cc0ea3eec22967b
  Z: 6
  valence: 4
  core: 2
  charge: 0.0
  file: /home/esb/DFT/gpaw-setups-0.8.7929/C.PBE.gz
  cutoffs: 0.64(comp), 1.14(filt), 1.14(core), lmax=2
  valence states:
                energy  radius
    2s(2.00)   -13.751   0.635
    2p(2.00)    -5.284   0.635
    *s          13.461   0.635
    *p          21.927   0.635
    *d           0.000   0.635

  LCAO basis set for C:
    Name: dzp
    File: /home/esb/DFT/gpaw-setups-0.8.7929/C.dzp.basis.gz
    Number of radial functions: 5
    Number of spherical harmonics: 13
      l=0, rc=5.5469 Bohr: 2s-sz confined orbital
      l=1, rc=6.6719 Bohr: 2p-sz confined orbital
      l=0, rc=3.0312 Bohr: 2s-dz split-valence wave
      l=1, rc=3.7500 Bohr: 2p-dz split-valence wave
      l=2, rc=6.6719 Bohr: d-type Gaussian polarization

Reference energy: -24663.074771

Spin-paired calculation

Occupation numbers:
  Fermi-Dirac: width=0.1000 eV

Convergence criteria:
  Maximum total energy change: 0.0005 eV / electron
  Maximum integral of absolute density change: 0.0001 electrons
  Maximum integral of absolute eigenstate change: 4e-08 eV^2
  Maximum number of iterations: 99

Symmetries present (total): 1

  ( 1  0  0)
  ( 0  1  0)
  ( 0  0  1)

1 k-point (Gamma)
1 k-point in the irreducible part of the Brillouin zone
       k-points in crystal coordinates                weights
   0:     0.00000000    0.00000000    0.00000000          1/1

Wave functions: LCAO
  Diagonalizer: Serial LAPACK
  Atomic Correction: dense with blas
  Datatype: float
  Eigensolver: None 

LCAO using direct dense diagonalizer 

Densities:
  Coarse grid: 80*80*48 grid
  Fine grid: 160*160*96 grid
  Total Charge: 0.000000 

Density mixing:
  Method: separate
  Backend: pulay
  Linear mixing parameter: 0.05
  Mixing with 5 old densities
  Damping of long wave oscillations: 75 

Hamiltonian:
  XC and Coulomb potentials evaluated on a 160*160*96 grid
  Using the PBE Exchange-Correlation functional
  Interpolation: tri-quintic (5. degree polynomial)
  Poisson solver: Gauss-Seidel solver with 6 multi-grid levels
    Coarsest grid: 5 x 5 x 3 points
    Stencil: 6*3+1=19 point O(h^6) finite-difference Laplacian
    Max iterations: 1000
    Tolerance: 1.000000e-07 

Memory estimate:
  Process memory now: 77.46 MiB
  Calculator: 15.59 MiB
    Density: 6.13 MiB
      Arrays: 3.81 MiB
      Localized functions: 0.86 MiB
      Mixer: 1.46 MiB
    Hamiltonian: 5.40 MiB
      Arrays: 2.49 MiB
      XC: 0.00 MiB
      Poisson: 2.85 MiB
      vbar: 0.07 MiB
    Wavefunctions: 4.05 MiB
      C [qnM]: 0.23 MiB
      S, T [2 x qmm]: 1.49 MiB
      P [aqMi]: 0.01 MiB
      TCI: 0.00 MiB
      BasisFunctions: 2.33 MiB
      Eigensolver: 0.00 MiB

Total number of cores used: 16
Domain decomposition: 2 x 4 x 2

Number of atoms: 24
Number of atomic orbitals: 312
Number of bands in calculation: 98
Bands to converge: occupied states only
Number of valence electrons: 96

... initialized

Initializing position-dependent things.

Density initialized from atomic densities
           .--------------------------------------.  
          /|                                      |  
         / |                                      |  
        /  |                                      |  
       /   |                                      |  
      /    |                                      |  
     /     |                                      |  
    /      |              C                       |  
   /       |           C    C  C                  |  
  /        |    C  C                              |  
 *         |  C     C   C C   C                   |  
 |         |                    C                 |  
 |         .-C-----C--C--C--C--C------------------.  
 |        /  C   C C                             /   
 |       /          C  C  C                     /    
 |      /                                      /     
 |     /                                      /      
 |    /                                      /       
 |   /                                      /        
 |  /                                      /         
 | /                                      /          
 |/                                      /           
 *--------------------------------------*            

Positions:
   0 C      7.455503   10.300399    7.034101
   1 C      8.733037    9.889053    6.865987
   2 C      9.840146    9.250934    6.629582
   3 C      6.761873    9.152721    6.591205
   4 C      3.951804    8.747438    6.381994
   5 C      5.344271    8.523028    6.330901
   6 C      9.839798    7.923426    6.151368
   7 C      7.331085    7.889891    6.135476
   8 C      3.500215    7.567474    5.894595
   9 C      8.544142    7.221970    5.899394
  10 C      6.038954    7.312438    5.900365
  11 C     10.867200    7.000003    5.825048
  12 C      7.044683    2.751964    5.067682
  13 C      8.361414    3.060831    5.087188
  14 C      9.533523    3.617024    5.161909
  15 C      6.483280    4.033823    5.257697
  16 C      3.735493    4.772929    5.346607
  17 C      5.144421    4.850969    5.374305
  18 C      9.680782    5.001638    5.390222
  19 C      7.189777    5.293478    5.459092
  20 C      3.419252    6.079853    5.507059
  21 C      8.470268    5.864605    5.545791
  22 C      5.969718    6.040284    5.568960
  23 C     10.805006    5.857245    5.527351

Unit cell:
           periodic     x           y           z      points  spacing
  1. axis:    yes   16.000000    0.000000    0.000000    80     0.2000
  2. axis:    yes    0.000000   16.000000    0.000000    80     0.2000
  3. axis:    yes    0.000000    0.000000   10.000000    48     0.2083

Effective grid spacing dv^(1/3) = 0.2027

                     log10-error:    total        iterations:
           time      wfs    density  energy       fermi  poisson
iter:   1  11:53:22          +inf  -185.941841    3      6      
iter:   2  11:53:23         -0.87  -184.857283    3      3      
iter:   3  11:53:23         -0.91  -182.365403    4      3      
iter:   4  11:53:24         -1.07  -181.877668    4      2      
iter:   5  11:53:25         -1.14  -181.433339    31     3      
iter:   6  11:53:25         -1.41  -181.719840    33     3      
iter:   7  11:53:26         -1.53  -181.211085    4      3      
iter:   8  11:53:27         -1.77  -181.192251    2      2      
iter:   9  11:53:27         -1.87  -181.157013    3      2      
iter:  10  11:53:28         -1.93  -181.159258    3      2      
iter:  11  11:53:29         -2.20  -181.132782    3      2      
iter:  12  11:53:29         -2.30  -181.107258    3      2      
iter:  13  11:53:30         -2.54  -181.116675    2      2      
iter:  14  11:53:30         -2.75  -181.121746    2      1      
iter:  15  11:53:31         -2.83  -181.115496    2      2      
iter:  16  11:53:32         -2.97  -181.115523    3      2      
iter:  17  11:53:32         -3.22  -181.120409    2      1      
iter:  18  11:53:33         -3.40  -181.112464    2      1      
iter:  19  11:53:34         -3.49  -181.108845    2      1      
iter:  20  11:53:34         -3.74  -181.114669    2      1      
iter:  21  11:53:35         -3.90  -181.112006    2      1      
iter:  22  11:53:35         -3.99  -181.111373    2      1      
iter:  23  11:53:36         -4.16  -181.113476    2      1      

Converged after 23 iterations.

Dipole moment: (0.029559, 0.028011, -0.127552) |e|*Ang

Energy contributions relative to reference atoms: (reference = -24663.074771)

Kinetic:       +129.910583
Potential:     -133.815954
External:        +0.000000
XC:            -180.089291
Entropy (-ST):   -0.204873
Local:           +2.983622
--------------------------
Free energy:   -181.215913
Extrapolated:  -181.113476

Fermi level: -4.46953

 Band  Eigenvalues  Occupancy
    0    -23.65559    2.00000
    1    -22.55922    2.00000
    2    -22.32171    2.00000
    3    -20.92676    2.00000
    4    -20.79314    2.00000
    5    -20.63023    2.00000
    6    -19.80594    2.00000
    7    -19.64428    2.00000
    8    -19.40250    2.00000
    9    -18.65043    2.00000
   10    -17.65350    2.00000
   11    -17.25499    2.00000
   12    -16.67544    2.00000
   13    -16.23286    2.00000
   14    -15.83198    2.00000
   15    -14.66706    2.00000
   16    -14.12411    2.00000
   17    -13.94587    2.00000
   18    -13.12025    2.00000
   19    -12.74915    2.00000
   20    -12.52043    2.00000
   21    -12.31211    2.00000
   22    -11.83127    2.00000
   23    -11.42635    2.00000
   24    -11.28268    2.00000
   25    -10.84864    2.00000
   26    -10.81816    2.00000
   27    -10.10235    2.00000
   28    -10.00394    2.00000
   29     -9.93974    2.00000
   30     -9.90657    2.00000
   31     -9.17644    2.00000
   32     -8.92636    2.00000
   33     -8.59548    2.00000
   34     -8.58537    2.00000
   35     -8.42096    2.00000
   36     -7.43966    2.00000
   37     -7.40448    2.00000
   38     -7.25273    2.00000
   39     -7.05039    2.00000
   40     -7.02138    2.00000
   41     -6.81068    2.00000
   42     -6.70996    2.00000
   43     -6.26572    2.00000
   44     -6.01688    2.00000
   45     -4.86747    1.96329
   46     -4.76379    1.89983
   47     -4.71980    1.84867
   48     -4.28055    0.26255
   49     -3.98969    0.01635
   50     -3.93281    0.00929
   51     -3.33519    0.00002
   52     -2.40020    0.00000
   53     -2.38714    0.00000
   54     -1.93615    0.00000
   55     -1.43696    0.00000
   56     -1.40829    0.00000
   57     -1.29308    0.00000
   58     -0.42085    0.00000
   59     -0.38302    0.00000
   60      1.18848    0.00000
   61      1.74775    0.00000
   62      1.92741    0.00000
   63      2.61550    0.00000
   64      3.00847    0.00000
   65      3.07871    0.00000
   66      3.48055    0.00000
   67      3.71640    0.00000
   68      4.20623    0.00000
   69      4.68082    0.00000
   70      4.73100    0.00000
   71      4.98258    0.00000
   72      5.68433    0.00000
   73      5.75745    0.00000
   74      6.42904    0.00000
   75      6.58310    0.00000
   76      6.86502    0.00000
   77      7.31220    0.00000
   78      7.49084    0.00000
   79      7.71384    0.00000
   80      7.90761    0.00000
   81      8.16205    0.00000
   82      8.30948    0.00000
   83      8.38655    0.00000
   84      8.59915    0.00000
   85      8.73040    0.00000
   86      8.92284    0.00000
   87      9.08161    0.00000
   88      9.22615    0.00000
   89      9.37050    0.00000
   90      9.57280    0.00000
   91      9.67094    0.00000
   92      9.67442    0.00000
   93      9.74290    0.00000
   94      9.98839    0.00000
   95     10.14772    0.00000
   96     10.23879    0.00000
   97     10.42625    0.00000


Forces in eV/Ang:
  0 C     0.61614    0.27519    0.08633
  1 C    -0.54381    0.33220    0.16741
  2 C     0.19591   -0.35305   -0.11377
  3 C    -1.53041   -0.42100   -0.15004
  4 C     0.39897   -1.71435   -0.82812
  5 C     0.85931    2.35255    0.75135
  6 C    -0.52665    0.66842   -0.01261
  7 C    -0.76842   -0.11073   -0.42571
  8 C    -1.61132   -6.71860   -1.42770
  9 C     1.39142    1.89898    0.83621
 10 C     0.86874    1.88557    0.64126
 11 C     0.95555    6.65304    1.80113
 12 C     0.60840   -0.34650   -0.09023
 13 C    -0.58382   -0.32593    0.01105
 14 C     0.23055    0.37527    0.04728
 15 C    -1.50740    0.59798    0.10607
 16 C     0.59098    1.84849    0.07941
 17 C     0.58812   -2.48775   -0.49008
 18 C    -0.58152   -0.52727   -0.32772
 19 C    -0.73674    0.35785   -0.30207
 20 C    -0.88920    6.68618    2.05069
 21 C     1.14480   -2.20169   -0.22468
 22 C     0.66040   -2.05842   -0.37993
 23 C     0.21623   -6.71835   -1.71707

System changes: positions 

Initializing position-dependent things.

Density initialized from wave functions
           .--------------------------------------.  
          /|                                      |  
         / |                                      |  
        /  |                                      |  
       /   |                                      |  
      /    |                                      |  
     /     |                                      |  
    /      |              C                       |  
   /       |           C    C  C                  |  
  /        |    C  C                              |  
 *         |  C     C   C C   C                   |  
 |         |                    C                 |  
 |         .-C-----C--C--C--C--C------------------.  
 |        /  C   C C                             /   
 |       /          C  C   C                    /    
 |      /                                      /     
 |     /                                      /      
 |    /                                      /       
 |   /                                      /        
 |  /                                      /         
 | /                                      /          
 |/                                      /           
 *--------------------------------------*            

Positions:
   0 C      7.458996   10.301959    7.034591
   1 C      8.729953    9.890936    6.866937
   2 C      9.841257    9.248932    6.628937
   3 C      6.753196    9.150334    6.590355
   4 C      3.954066    8.737718    6.377299
   5 C      5.349143    8.536366    6.335161
   6 C      9.836813    7.927216    6.151296
   7 C      7.326729    7.889264    6.133062
   8 C      3.491080    7.529382    5.886500
   9 C      8.552031    7.232736    5.904135
  10 C      6.043879    7.323128    5.904001
  11 C     10.872617    7.037724    5.835260
  12 C      7.048132    2.749999    5.067170
  13 C      8.358104    3.058983    5.087251
  14 C      9.534830    3.619152    5.162178
  15 C      6.474733    4.037213    5.258298
  16 C      3.738844    4.783409    5.347057
  17 C      5.147756    4.836864    5.371526
  18 C      9.677484    4.998648    5.388364
  19 C      7.185600    5.295507    5.457379
  20 C      3.414211    6.117762    5.518686
  21 C      8.476759    5.852122    5.544517
  22 C      5.973462    6.028613    5.566806
  23 C     10.806232    5.819154    5.517616

Unit cell:
           periodic     x           y           z      points  spacing
  1. axis:    yes   16.000000    0.000000    0.000000    80     0.2000
  2. axis:    yes    0.000000   16.000000    0.000000    80     0.2000
  3. axis:    yes    0.000000    0.000000   10.000000    48     0.2083

Effective grid spacing dv^(1/3) = 0.2027

                     log10-error:    total        iterations:
           time      wfs    density  energy       fermi  poisson
iter:   1  11:53:38          +inf  -182.339984    3      5      
iter:   2  11:53:39         -1.86  -182.176125    3      2      
iter:   3  11:53:40         -2.05  -182.097523    3      2      
iter:   4  11:53:40         -2.12  -182.097273    2      2      
iter:   5  11:53:41         -2.26  -182.074075    3      2      
iter:   6  11:53:42         -2.45  -182.061755    3      2      
iter:   7  11:53:42         -2.39  -182.069184    3      1      
iter:   8  11:53:43         -2.77  -182.063888    3      2      
iter:   9  11:53:43         -2.81  -182.065775    2      2      
iter:  10  11:53:44         -3.13  -182.067153    2      1      
iter:  11  11:53:45         -3.30  -182.066786    2      1      
iter:  12  11:53:45         -3.62  -182.066652    2      1      
iter:  13  11:53:46         -3.67  -182.065888    2      1      
iter:  14  11:53:47         -3.77  -182.066611    2      1      
iter:  15  11:53:47         -3.92  -182.066563    2      1      
iter:  16  11:53:48         -3.98  -182.066009    2      1      
iter:  17  11:53:48         -4.18  -182.066738    2      1      

Converged after 17 iterations.

Dipole moment: (0.114999, 0.021461, -0.121386) |e|*Ang

Energy contributions relative to reference atoms: (reference = -24663.074771)

Kinetic:       +121.932735
Potential:     -128.022642
External:        +0.000000
XC:            -178.826116
Entropy (-ST):   -0.223036
Local:           +2.960804
--------------------------
Free energy:   -182.178256
Extrapolated:  -182.066738

Fermi level: -4.53908

 Band  Eigenvalues  Occupancy
    0    -23.66939    2.00000
    1    -22.64295    2.00000
    2    -22.30599    2.00000
    3    -20.98781    2.00000
    4    -20.70167    2.00000
    5    -20.54441    2.00000
    6    -19.72793    2.00000
    7    -19.48657    2.00000
    8    -19.33644    2.00000
    9    -18.59947    2.00000
   10    -17.63157    2.00000
   11    -17.25845    2.00000
   12    -16.77746    2.00000
   13    -16.41628    2.00000
   14    -15.66857    2.00000
   15    -14.66839    2.00000
   16    -14.23509    2.00000
   17    -13.88875    2.00000
   18    -13.08702    2.00000
   19    -12.76570    2.00000
   20    -12.47191    2.00000
   21    -12.36549    2.00000
   22    -11.96289    2.00000
   23    -11.34776    2.00000
   24    -11.26804    2.00000
   25    -10.85147    2.00000
   26    -10.82314    2.00000
   27    -10.13017    2.00000
   28     -9.98767    2.00000
   29     -9.97035    2.00000
   30     -9.83994    2.00000
   31     -9.15492    2.00000
   32     -9.07508    2.00000
   33     -8.63861    2.00000
   34     -8.49013    2.00000
   35     -8.42818    2.00000
   36     -7.42837    2.00000
   37     -7.29111    2.00000
   38     -7.26924    2.00000
   39     -7.05000    2.00000
   40     -6.93370    2.00000
   41     -6.77527    2.00000
   42     -6.57057    2.00000
   43     -6.19929    2.00000
   44     -5.88717    2.00000
   45     -4.93200    1.96144
   46     -4.80166    1.86501
   47     -4.78340    1.84013
   48     -4.37044    0.31251
   49     -4.07681    0.01946
   50     -3.81590    0.00145
   51     -3.35147    0.00001
   52     -2.93133    0.00000
   53     -2.31629    0.00000
   54     -1.66544    0.00000
   55     -1.47999    0.00000
   56     -1.42246    0.00000
   57     -1.26336    0.00000
   58     -0.53704    0.00000
   59     -0.42733    0.00000
   60      1.15698    0.00000
   61      1.81266    0.00000
   62      1.93875    0.00000
   63      2.99457    0.00000
   64      3.10336    0.00000
   65      3.13809    0.00000
   66      3.66315    0.00000
   67      3.70356    0.00000
   68      4.19349    0.00000
   69      4.73358    0.00000
   70      4.77352    0.00000
   71      5.03453    0.00000
   72      5.59792    0.00000
   73      5.74059    0.00000
   74      6.41795    0.00000
   75      6.61498    0.00000
   76      7.11306    0.00000
   77      7.40182    0.00000
   78      7.45596    0.00000
   79      7.71480    0.00000
   80      7.94250    0.00000
   81      8.12709    0.00000
   82      8.32250    0.00000
   83      8.39434    0.00000
   84      8.65018    0.00000
   85      8.73707    0.00000
   86      8.89185    0.00000
   87      9.04821    0.00000
   88      9.27818    0.00000
   89      9.34034    0.00000
   90      9.51271    0.00000
   91      9.56453    0.00000
   92      9.64498    0.00000
   93      9.70965    0.00000
   94     10.06469    0.00000
   95     10.17814    0.00000
   96     10.25885    0.00000
   97     10.43043    0.00000


Forces in eV/Ang:
  0 C     0.24238    0.07424    0.00877
  1 C    -0.00492    0.12231    0.10043
  2 C    -0.19108    0.24755    0.09418
  3 C    -1.08266    0.05656    0.02070
  4 C     0.30247   -2.31079   -1.06775
  5 C     0.25645    1.93486    0.59427
  6 C    -0.54580    0.88152    0.08444
  7 C    -0.17532    0.07832   -0.32658
  8 C    -1.16948   -5.17301   -0.94542
  9 C     0.81407    0.75051    0.49235
 10 C     0.35863    0.45744    0.23534
 11 C     0.99248   -1.11042   -0.28554
 12 C     0.24384   -0.09095   -0.05171
 13 C    -0.02593   -0.16065    0.03809
 14 C    -0.22516   -0.20747   -0.05545
 15 C    -1.10068    0.04423    0.00100
 16 C     0.57387    2.49089    0.17094
 17 C     0.03796   -1.99548   -0.42269
 18 C    -0.63350   -0.75577   -0.33808
 19 C    -0.17451    0.08650   -0.31665
 20 C    -0.63017    5.02857    1.72356
 21 C     0.69788   -0.97151    0.04575
 22 C     0.28103   -0.53538   -0.00430
 23 C     1.10459    1.02567    0.26077

System changes: positions 

Initializing position-dependent things.

Density initialized from wave functions
           .--------------------------------------.  
          /|                                      |  
         / |                                      |  
        /  |                                      |  
       /   |                                      |  
      /    |                                      |  
     /     |                                      |  
    /      |              C                       |  
   /       |           C    C  C                  |  
  /        |    C  C                              |  
 *         |  C     C   C C   C                   |  
 |         |                    C                 |  
 |         .-C-----C--C--C--C--C------------------.  
 |        /  C   C C                             /   
 |       /          C  C  C                     /    
 |      /                                      /     
 |     /                                      /      
 |    /                                      /       
 |   /                                      /        
 |  /                                      /         
 | /                                      /          
 |/                                      /           
 *--------------------------------------*            

Positions:
   0 C      7.461041   10.302656    7.034717
   1 C      8.729475    9.891986    6.867712
   2 C      9.840205    9.250214    6.629442
   3 C      6.745065    9.150347    6.590363
   4 C      3.956314    8.721637    6.369839
   5 C      5.351478    8.550584    6.339552
   6 C      9.832914    7.933362    6.151822
   7 C      7.324984    7.889670    6.130639
   8 C      3.482330    7.491016    5.879324
   9 C      8.558343    7.239062    5.907948
  10 C      6.046870    7.327582    5.906022
  11 C     10.879704    7.036139    5.834926
  12 C      7.050180    2.749137    5.066768
  13 C      8.357459    3.057695    5.087502
  14 C      9.533590    3.618143    5.161864
  15 C      6.466506    4.037985    5.258392
  16 C      3.742973    4.800743    5.348208
  17 C      5.148480    4.822150    5.368439
  18 C      9.672984    4.993416    5.385948
  19 C      7.183886    5.296350    5.455121
  20 C      3.409479    6.155184    5.531315
  21 C      8.482130    5.844145    5.544623
  22 C      5.975789    6.023523    5.566466
  23 C     10.813423    5.820147    5.517861

Unit cell:
           periodic     x           y           z      points  spacing
  1. axis:    yes   16.000000    0.000000    0.000000    80     0.2000
  2. axis:    yes    0.000000   16.000000    0.000000    80     0.2000
  3. axis:    yes    0.000000    0.000000   10.000000    48     0.2083

Effective grid spacing dv^(1/3) = 0.2027

                     log10-error:    total        iterations:
           time      wfs    density  energy       fermi  poisson
iter:   1  11:53:51          +inf  -182.898953    3      5      
iter:   2  11:53:51         -1.85  -182.715897    3      2      
iter:   3  11:53:52         -2.12  -182.633875    3      2      
iter:   4  11:53:53         -2.19  -182.636197    3      1      
iter:   5  11:53:53         -2.11  -182.624012    2      2      
iter:   6  11:53:54         -2.63  -182.620635    3      2      
iter:   7  11:53:55         -2.69  -182.621972    2      2      
iter:   8  11:53:55         -2.93  -182.624908    2      2      
iter:   9  11:53:56         -3.36  -182.624658    2      1      
iter:  10  11:53:56         -3.44  -182.623996    2      1      
iter:  11  11:53:57         -3.66  -182.624800    2      1      
iter:  12  11:53:58         -3.75  -182.625475    2      1      
iter:  13  11:53:58         -3.91  -182.625012    2      1      
iter:  14  11:53:59         -4.04  -182.624798    2      1      

Converged after 14 iterations.

Dipole moment: (0.167598, 0.016568, -0.114555) |e|*Ang

Energy contributions relative to reference atoms: (reference = -24663.074771)

Kinetic:       +121.832758
Potential:     -128.277720
External:        +0.000000
XC:            -179.037391
Entropy (-ST):   -0.219515
Local:           +2.967313
--------------------------
Free energy:   -182.734555
Extrapolated:  -182.624798

Fermi level: -4.60174

 Band  Eigenvalues  Occupancy
    0    -23.64565    2.00000
    1    -22.65829    2.00000
    2    -22.27349    2.00000
    3    -21.01299    2.00000
    4    -20.68811    2.00000
    5    -20.46506    2.00000
    6    -19.67754    2.00000
    7    -19.45934    2.00000
    8    -19.18808    2.00000
    9    -18.59430    2.00000
   10    -17.67313    2.00000
   11    -17.25181    2.00000
   12    -16.72060    2.00000
   13    -16.63188    2.00000
   14    -15.66515    2.00000
   15    -14.64504    2.00000
   16    -14.26204    2.00000
   17    -13.82398    2.00000
   18    -13.09904    2.00000
   19    -12.74273    2.00000
   20    -12.42149    2.00000
   21    -12.37036    2.00000
   22    -11.98486    2.00000
   23    -11.31188    2.00000
   24    -11.23410    2.00000
   25    -10.83277    2.00000
   26    -10.79049    2.00000
   27    -10.14990    2.00000
   28     -9.99916    2.00000
   29     -9.94002    2.00000
   30     -9.81480    2.00000
   31     -9.14035    2.00000
   32     -9.11502    2.00000
   33     -8.64835    2.00000
   34     -8.46492    2.00000
   35     -8.43992    2.00000
   36     -7.45806    2.00000
   37     -7.29467    2.00000
   38     -7.23638    2.00000
   39     -7.07310    2.00000
   40     -6.86183    2.00000
   41     -6.81849    2.00000
   42     -6.57698    2.00000
   43     -6.19839    2.00000
   44     -5.74270    1.99998
   45     -4.97576    1.95360
   46     -4.89144    1.89540
   47     -4.83095    1.81644
   48     -4.43765    0.32467
   49     -4.06932    0.00970
   50     -3.68388    0.00021
   51     -3.37800    0.00001
   52     -2.92889    0.00000
   53     -2.32740    0.00000
   54     -1.54479    0.00000
   55     -1.51152    0.00000
   56     -1.40221    0.00000
   57     -1.01805    0.00000
   58     -0.49707    0.00000
   59     -0.43992    0.00000
   60      1.26176    0.00000
   61      1.85143    0.00000
   62      2.07659    0.00000
   63      2.98239    0.00000
   64      3.05571    0.00000
   65      3.26332    0.00000
   66      3.74179    0.00000
   67      3.84998    0.00000
   68      4.48296    0.00000
   69      4.73085    0.00000
   70      4.82710    0.00000
   71      5.14285    0.00000
   72      5.60151    0.00000
   73      5.76076    0.00000
   74      6.37606    0.00000
   75      6.59233    0.00000
   76      7.01320    0.00000
   77      7.37754    0.00000
   78      7.60457    0.00000
   79      7.72531    0.00000
   80      7.94045    0.00000
   81      8.17825    0.00000
   82      8.31156    0.00000
   83      8.39841    0.00000
   84      8.71807    0.00000
   85      8.75272    0.00000
   86      8.88571    0.00000
   87      9.06950    0.00000
   88      9.30946    0.00000
   89      9.32639    0.00000
   90      9.41410    0.00000
   91      9.53218    0.00000
   92      9.64367    0.00000
   93      9.71744    0.00000
   94     10.08166    0.00000
   95     10.17292    0.00000
   96     10.26758    0.00000
   97     10.43730    0.00000


Forces in eV/Ang:
  0 C     0.08500   -0.05298   -0.03299
  1 C     0.01484    0.17162    0.11867
  2 C    -0.17335    0.33219    0.11447
  3 C    -0.72658    0.29829    0.07816
  4 C     0.20759   -2.57266   -1.13756
  5 C    -0.04340    1.38733    0.38785
  6 C    -0.04492    0.50800   -0.02210
  7 C     0.13561    0.17627   -0.24335
  8 C    -0.79150   -2.86142   -0.30630
  9 C     0.46837    0.29709    0.33348
 10 C     0.02564    0.07351    0.13572
 11 C     0.69388   -0.71297   -0.16158
 12 C     0.08978    0.06281   -0.01916
 13 C    -0.00256   -0.20766    0.02750
 14 C    -0.22266   -0.30720   -0.07783
 15 C    -0.74457   -0.24712   -0.08053
 16 C     0.48811    2.76556    0.24319
 17 C    -0.19312   -1.38483   -0.34110
 18 C    -0.09548   -0.42244   -0.24942
 19 C     0.10991   -0.06543   -0.29490
 20 C    -0.49968    2.71961    1.15591
 21 C     0.41277   -0.44740    0.14505
 22 C     0.00574   -0.13241    0.09632
 23 C     0.75067    0.65564    0.18037

System changes: positions 

Initializing position-dependent things.

Density initialized from wave functions
           .--------------------------------------.  
          /|                                      |  
         / |                                      |  
        /  |                                      |  
       /   |                                      |  
      /    |                                      |  
     /     |                                      |  
    /      |              C                       |  
   /       |           C    C  C                  |  
  /        |    C  C                              |  
 *         |  C     C   C C   C                   |  
 |         | C                  C                 |  
 |         .-------C--C--C--C--C------------------.  
 |        /  C   C C                             /   
 |       /          C  C  C                     /    
 |      /                                      /     
 |     /                                      /      
 |    /                                      /       
 |   /                                      /        
 |  /                                      /         
 | /                                      /          
 |/                                      /           
 *--------------------------------------*            

Positions:
   0 C      7.462189   10.301726    7.034207
   1 C      8.729035    9.894869    6.869546
   2 C      9.838330    9.254412    6.630856
   3 C      6.735437    9.154785    6.591444
   4 C      3.959047    8.685092    6.353810
   5 C      5.350611    8.568849    6.344524
   6 C      9.834071    7.938951    6.151004
   7 C      7.327209    7.892258    6.127355
   8 C      3.471869    7.456601    5.876599
   9 C      8.564525    7.243202    5.912568
  10 C      6.046740    7.329176    5.908134
  11 C     10.888424    7.037823    5.835865
  12 C      7.051395    2.750227    5.066560
  13 C      8.356760    3.054369    5.087818
  14 C      9.531056    3.614221    5.160821
  15 C      6.456679    4.034199    5.257104
  16 C      3.749603    4.840004    5.351783
  17 C      5.145666    4.804043    5.363809
  18 C      9.673601    4.988918    5.382744
  19 C      7.185695    5.295251    5.451042
  20 C      3.402520    6.187750    5.546112
  21 C      8.487565    5.838017    5.546666
  22 C      5.975406    6.021035    5.567683
  23 C     10.821613    5.817774    5.517488

Unit cell:
           periodic     x           y           z      points  spacing
  1. axis:    yes   16.000000    0.000000    0.000000    80     0.2000
  2. axis:    yes    0.000000   16.000000    0.000000    80     0.2000
  3. axis:    yes    0.000000    0.000000   10.000000    48     0.2083

Effective grid spacing dv^(1/3) = 0.2027

                     log10-error:    total        iterations:
           time      wfs    density  energy       fermi  poisson
iter:   1  11:54:01          +inf  -183.670834    3      5      
iter:   2  11:54:02         -1.67  -183.305776    3      2      
iter:   3  11:54:03         -1.85  -183.091888    4      2      
iter:   4  11:54:03         -1.86  -183.058884    3      2      
iter:   5  11:54:04         -2.15  -183.047574    2      2      
iter:   6  11:54:04         -2.49  -183.057806    3      2      
iter:   7  11:54:05         -2.59  -183.052258    3      2      
iter:   8  11:54:06         -2.87  -183.045302    2      2      
iter:   9  11:54:06         -2.95  -183.050588    2      1      
iter:  10  11:54:07         -3.15  -183.049913    2      2      
iter:  11  11:54:08         -3.36  -183.048629    2      1      
iter:  12  11:54:08         -3.54  -183.049102    2      1      
iter:  13  11:54:09         -3.79  -183.049177    2      1      
iter:  14  11:54:09         -3.92  -183.049222    2      1      
iter:  15  11:54:10         -3.99  -183.050416    2      1      
iter:  16  11:54:11         -4.29  -183.049365    2      1      

Converged after 16 iterations.

Dipole moment: (0.139303, 0.016903, -0.108083) |e|*Ang

Energy contributions relative to reference atoms: (reference = -24663.074771)

Kinetic:       +123.685354
Potential:     -129.873465
External:        +0.000000
XC:            -179.741871
Entropy (-ST):   -0.199439
Local:           +2.980337
--------------------------
Free energy:   -183.149085
Extrapolated:  -183.049365

Fermi level: -4.59300

 Band  Eigenvalues  Occupancy
    0    -23.57120    2.00000
    1    -22.61017    2.00000
    2    -22.21667    2.00000
    3    -20.99947    2.00000
    4    -20.67407    2.00000
    5    -20.47838    2.00000
    6    -19.65035    2.00000
    7    -19.44944    2.00000
    8    -19.10821    2.00000
    9    -18.56994    2.00000
   10    -17.70609    2.00000
   11    -17.22533    2.00000
   12    -16.81630    2.00000
   13    -16.69073    2.00000
   14    -15.63169    2.00000
   15    -14.61284    2.00000
   16    -14.27368    2.00000
   17    -13.85142    2.00000
   18    -13.12677    2.00000
   19    -12.69685    2.00000
   20    -12.42983    2.00000
   21    -12.35687    2.00000
   22    -12.00273    2.00000
   23    -11.30011    2.00000
   24    -11.17689    2.00000
   25    -10.79612    2.00000
   26    -10.74589    2.00000
   27    -10.21652    2.00000
   28     -9.97926    2.00000
   29     -9.91483    2.00000
   30     -9.84507    2.00000
   31     -9.12574    2.00000
   32     -9.08932    2.00000
   33     -8.63637    2.00000
   34     -8.52992    2.00000
   35     -8.43388    2.00000
   36     -7.53539    2.00000
   37     -7.28711    2.00000
   38     -7.21193    2.00000
   39     -7.07702    2.00000
   40     -6.96036    2.00000
   41     -6.76463    2.00000
   42     -6.54462    2.00000
   43     -6.18457    2.00000
   44     -5.60585    1.99992
   45     -4.97785    1.95826
   46     -4.96304    1.95176
   47     -4.80758    1.79054
   48     -4.41513    0.28891
   49     -4.06851    0.01049
   50     -3.59733    0.00009
   51     -3.37224    0.00001
   52     -2.94044    0.00000
   53     -2.31830    0.00000
   54     -1.50582    0.00000
   55     -1.48326    0.00000
   56     -1.35003    0.00000
   57     -0.73522    0.00000
   58     -0.43674    0.00000
   59     -0.41515    0.00000
   60      1.34512    0.00000
   61      1.88573    0.00000
   62      2.35430    0.00000
   63      2.88725    0.00000
   64      3.05533    0.00000
   65      3.16608    0.00000
   66      3.74104    0.00000
   67      3.94209    0.00000
   68      4.67250    0.00000
   69      4.76678    0.00000
   70      5.05849    0.00000
   71      5.19778    0.00000
   72      5.62098    0.00000
   73      5.84208    0.00000
   74      6.47277    0.00000
   75      6.57519    0.00000
   76      7.01313    0.00000
   77      7.39775    0.00000
   78      7.75007    0.00000
   79      7.75673    0.00000
   80      8.01214    0.00000
   81      8.26414    0.00000
   82      8.37911    0.00000
   83      8.43959    0.00000
   84      8.78091    0.00000
   85      8.79989    0.00000
   86      8.91627    0.00000
   87      9.11140    0.00000
   88      9.32629    0.00000
   89      9.33324    0.00000
   90      9.45506    0.00000
   91      9.56076    0.00000
   92      9.66181    0.00000
   93      9.74244    0.00000
   94     10.09708    0.00000
   95     10.18788    0.00000
   96     10.28858    0.00000
   97     10.40930    0.00000


Forces in eV/Ang:
  0 C    -0.05754   -0.00437   -0.00846
  1 C     0.02344    0.18144    0.11880
  2 C    -0.08219    0.29176    0.08407
  3 C    -0.35138    0.27730    0.01631
  4 C     0.11306   -2.20514   -0.97579
  5 C    -0.05778    0.61233    0.11616
  6 C     0.19504    0.32851   -0.02734
  7 C    -0.03226    0.24909   -0.14473
  8 C    -0.56635   -0.00008    0.38902
  9 C     0.30815    0.01411    0.21967
 10 C    -0.00504    0.20338    0.17892
 11 C     0.50196   -0.87598   -0.20972
 12 C    -0.05850   -0.00234   -0.01881
 13 C    -0.00045   -0.21759    0.01789
 14 C    -0.11537   -0.28712   -0.07561
 15 C    -0.38068   -0.21459   -0.13060
 16 C     0.35212    2.40396    0.19836
 17 C    -0.14406   -0.60154   -0.19316
 18 C     0.15606   -0.28114   -0.17040
 19 C    -0.04815   -0.15512   -0.23445
 20 C    -0.57804   -0.12482    0.36025
 21 C     0.29378   -0.14992    0.17832
 22 C    -0.03849   -0.26368    0.06435
 23 C     0.58579    0.83930    0.22971

System changes: positions 

Initializing position-dependent things.

Density initialized from wave functions
           .--------------------------------------.  
          /|                                      |  
         / |                                      |  
        /  |                                      |  
       /   |                                      |  
      /    |                                      |  
     /     |                                      |  
    /      |              C                       |  
   /       |           C    C  C                  |  
  /        |    C  C                              |  
 *         |  C     C   C C   C                   |  
 |         | C                  C                 |  
 |         .-------C--C--C--C--C------------------.  
 |        /  C   C C                             /   
 |       /          C  C  C                     /    
 |      /                                      /     
 |     /                                      /      
 |    /                                      /       
 |   /                                      /        
 |  /                                      /         
 | /                                      /          
 |/                                      /           
 *--------------------------------------*            

Positions:
   0 C      7.462303   10.301880    7.034137
   1 C      8.728492    9.898162    6.871605
   2 C      9.837365    9.258299    6.631971
   3 C      6.727782    9.158550    6.591589
   4 C      3.961353    8.648879    6.337737
   5 C      5.350773    8.581910    6.347505
   6 C      9.836522    7.944580    6.150431
   7 C      7.326094    7.895809    6.124516
   8 C      3.461110    7.445453    5.880087
   9 C      8.571078    7.246247    5.917106
  10 C      6.047668    7.334619    5.911651
  11 C     10.897215    7.036756    5.836009
  12 C      7.051494    2.749912    5.066178
  13 C      8.355811    3.050557    5.088096
  14 C      9.529618    3.610441    5.159749
  15 C      6.448643    4.031569    5.255293
  16 C      3.755819    4.879387    5.355000
  17 C      5.144129    4.790998    5.360088
  18 C      9.675425    4.984209    5.379719
  19 C      7.184348    5.293441    5.447040
  20 C      3.392783    6.196985    5.554942
  21 C      8.493535    5.832548    5.549029
  22 C      5.975591    6.014443    5.568181
  23 C     10.830298    5.818206    5.517840

Unit cell:
           periodic     x           y           z      points  spacing
  1. axis:    yes   16.000000    0.000000    0.000000    80     0.2000
  2. axis:    yes    0.000000   16.000000    0.000000    80     0.2000
  3. axis:    yes    0.000000    0.000000   10.000000    48     0.2083

Effective grid spacing dv^(1/3) = 0.2027

                     log10-error:    total        iterations:
           time      wfs    density  energy       fermi  poisson
iter:   1  11:54:13          +inf  -183.711042    3      5      
iter:   2  11:54:14         -1.75  -183.464672    3      2      
iter:   3  11:54:14         -1.92  -183.292588    3      2      
iter:   4  11:54:15         -1.93  -183.274299    3      2      
iter:   5  11:54:16         -2.46  -183.275551    2      2      
iter:   6  11:54:16         -2.63  -183.280398    2      2      
iter:   7  11:54:17         -2.60  -183.270254    2      2      
iter:   8  11:54:18         -3.06  -183.261981    2      1      
iter:   9  11:54:18         -3.18  -183.264238    2      1      
iter:  10  11:54:19         -3.23  -183.269497    2      1      
iter:  11  11:54:19         -3.67  -183.268288    2      1      
iter:  12  11:54:20         -3.75  -183.269042    2      1      
iter:  13  11:54:21         -3.96  -183.268902    2      1      
iter:  14  11:54:21         -4.03  -183.269942    2      1      

Converged after 14 iterations.

Dipole moment: (0.031596, 0.022621, -0.106318) |e|*Ang

Energy contributions relative to reference atoms: (reference = -24663.074771)

Kinetic:       +125.195073
Potential:     -131.020228
External:        +0.000000
XC:            -180.346307
Entropy (-ST):   -0.174915
Local:           +2.988977
--------------------------
Free energy:   -183.357400
Extrapolated:  -183.269942

Fermi level: -4.52043

 Band  Eigenvalues  Occupancy
    0    -23.53759    2.00000
    1    -22.61960    2.00000
    2    -22.16470    2.00000
    3    -20.97606    2.00000
    4    -20.67633    2.00000
    5    -20.51381    2.00000
    6    -19.61885    2.00000
    7    -19.43217    2.00000
    8    -19.15163    2.00000
    9    -18.51951    2.00000
   10    -17.70631    2.00000
   11    -17.19221    2.00000
   12    -16.88530    2.00000
   13    -16.65292    2.00000
   14    -15.58166    2.00000
   15    -14.59624    2.00000
   16    -14.29194    2.00000
   17    -13.98091    2.00000
   18    -13.16861    2.00000
   19    -12.63015    2.00000
   20    -12.48840    2.00000
   21    -12.34257    2.00000
   22    -12.01955    2.00000
   23    -11.30390    2.00000
   24    -11.13829    2.00000
   25    -10.76945    2.00000
   26    -10.70383    2.00000
   27    -10.29954    2.00000
   28     -9.97365    2.00000
   29     -9.95060    2.00000
   30     -9.84588    2.00000
   31     -9.10348    2.00000
   32     -9.09465    2.00000
   33     -8.63907    2.00000
   34     -8.63276    2.00000
   35     -8.39184    2.00000
   36     -7.64202    2.00000
   37     -7.25497    2.00000
   38     -7.18133    2.00000
   39     -7.05431    2.00000
   40     -6.99349    2.00000
   41     -6.80344    2.00000
   42     -6.50609    2.00000
   43     -6.14832    2.00000
   44     -5.57959    1.99995
   45     -5.01775    1.98625
   46     -4.90865    1.95962
   47     -4.74162    1.80263
   48     -4.31820    0.23377
   49     -4.04752    0.01751
   50     -3.62268    0.00025
   51     -3.34949    0.00002
   52     -2.89256    0.00000
   53     -2.28525    0.00000
   54     -1.46578    0.00000
   55     -1.43576    0.00000
   56     -1.32172    0.00000
   57     -0.70328    0.00000
   58     -0.45346    0.00000
   59     -0.39044    0.00000
   60      1.39052    0.00000
   61      1.92594    0.00000
   62      2.52910    0.00000
   63      2.80079    0.00000
   64      3.05206    0.00000
   65      3.11170    0.00000
   66      3.81028    0.00000
   67      4.01043    0.00000
   68      4.63526    0.00000
   69      4.81093    0.00000
   70      5.19660    0.00000
   71      5.24844    0.00000
   72      5.63323    0.00000
   73      5.84698    0.00000
   74      6.51919    0.00000
   75      6.58646    0.00000
   76      7.05224    0.00000
   77      7.41940    0.00000
   78      7.79760    0.00000
   79      7.83661    0.00000
   80      8.07275    0.00000
   81      8.30016    0.00000
   82      8.44253    0.00000
   83      8.50546    0.00000
   84      8.79103    0.00000
   85      8.86619    0.00000
   86      8.98480    0.00000
   87      9.13416    0.00000
   88      9.31995    0.00000
   89      9.35271    0.00000
   90      9.56234    0.00000
   91      9.58200    0.00000
   92      9.76061    0.00000
   93      9.76354    0.00000
   94     10.10214    0.00000
   95     10.21753    0.00000
   96     10.32308    0.00000
   97     10.37341    0.00000


Forces in eV/Ang:
  0 C    -0.17734    0.02715    0.00924
  1 C     0.02689    0.11141    0.08170
  2 C    -0.01716    0.32858    0.08737
  3 C    -0.01664    0.39994    0.02172
  4 C     0.12353   -1.51061   -0.67288
  5 C    -0.11017    0.16958   -0.03081
  6 C     0.35769    0.10667   -0.04872
  7 C     0.10470    0.23016   -0.08062
  8 C    -0.60545    0.93679    0.53332
  9 C     0.09732   -0.20021    0.11919
 10 C    -0.10577   -0.31682    0.01983
 11 C     0.29983   -0.59782   -0.14307
 12 C    -0.18215   -0.01901   -0.01371
 13 C     0.01208   -0.14255    0.01723
 14 C    -0.05145   -0.33250   -0.07824
 15 C    -0.06702   -0.36667   -0.18867
 16 C     0.28151    1.62545    0.13103
 17 C    -0.12936   -0.11404   -0.09113
 18 C     0.35063   -0.10078   -0.09581
 19 C     0.06838   -0.17977   -0.17232
 20 C    -0.70425   -0.99264    0.05645
 21 C     0.13651    0.10477    0.20042
 22 C    -0.06652    0.25988    0.17061
 23 C     0.35743    0.57870    0.16638

System changes: positions 

Initializing position-dependent things.

Density initialized from wave functions
           .--------------------------------------.  
          /|                                      |  
         / |                                      |  
        /  |                                      |  
       /   |                                      |  
      /    |                                      |  
     /     |                                      |  
    /      |              C                       |  
   /       |           C    C  C                  |  
  /        |    C  C                              |  
 *         |  C     C   C C   C                   |  
 |         | C                  C                 |  
 |         .-C-----C--C--C--C--C------------------.  
 |        /      C C                             /   
 |       /          C  C  C                     /    
 |      /                                      /     
 |     /                                      /      
 |    /                                      /       
 |   /                                      /        
 |  /                                      /         
 | /                                      /          
 |/                                      /           
 *--------------------------------------*            

Positions:
   0 C      7.460491   10.302860    7.034424
   1 C      8.727982    9.901194    6.873672
   2 C      9.837044    9.264278    6.633577
   3 C      6.722833    9.165516    6.591814
   4 C      3.964827    8.612526    6.321416
   5 C      5.350473    8.592635    6.349271
   6 C      9.841704    7.949118    6.149537
   7 C      7.326562    7.900162    6.121679
   8 C      3.445181    7.443080    5.886307
   9 C      8.576708    7.247046    5.921667
  10 C      6.047645    7.332998    5.913645
  11 C     10.906169    7.036428    5.836324
  12 C      7.049586    2.748941    5.065696
  13 C      8.354910    3.046886    5.088494
  14 C      9.528645    3.604491    5.158255
  15 C      6.442781    4.025699    5.251922
  16 C      3.763156    4.918532    5.358035
  17 C      5.142602    4.780988    5.356732
  18 C      9.680237    4.980254    5.376763
  19 C      7.184184    5.290754    5.442672
  20 C      3.377105    6.197949    5.562486
  21 C      8.499256    5.829060    5.552527
  22 C      5.975786    6.014558    5.570683
  23 C     10.839086    5.817923    5.518125

Unit cell:
           periodic     x           y           z      points  spacing
  1. axis:    yes   16.000000    0.000000    0.000000    80     0.2000
  2. axis:    yes    0.000000   16.000000    0.000000    80     0.2000
  3. axis:    yes    0.000000    0.000000   10.000000    48     0.2083

Effective grid spacing dv^(1/3) = 0.2027

                     log10-error:    total        iterations:
           time      wfs    density  energy       fermi  poisson
iter:   1  11:54:24          +inf  -183.758160    3      5      
iter:   2  11:54:24         -1.83  -183.583573    3      2      
iter:   3  11:54:25         -1.98  -183.421981    3      2      
iter:   4  11:54:25         -2.10  -183.429551    3      2      
iter:   5  11:54:26         -2.51  -183.433237    2      2      
iter:   6  11:54:27         -2.54  -183.432766    2      2      
iter:   7  11:54:27         -2.61  -183.421207    2      2      
iter:   8  11:54:28         -3.10  -183.421571    2      1      
iter:   9  11:54:29         -3.13  -183.417520    2      1      
iter:  10  11:54:29         -3.61  -183.419477    2      1      
iter:  11  11:54:30         -3.68  -183.420882    2      1      
iter:  12  11:54:30         -3.70  -183.419175    2      1      
iter:  13  11:54:31         -4.01  -183.419766    1      1      

Converged after 13 iterations.

Dipole moment: (-0.100965, 0.030666, -0.106713) |e|*Ang

Energy contributions relative to reference atoms: (reference = -24663.074771)

Kinetic:       +125.697713
Potential:     -131.339930
External:        +0.000000
XC:            -180.696833
Entropy (-ST):   -0.157310
Local:           +2.997940
--------------------------
Free energy:   -183.498421
Extrapolated:  -183.419766

Fermi level: -4.42806

 Band  Eigenvalues  Occupancy
    0    -23.48180    2.00000
    1    -22.57752    2.00000
    2    -22.10513    2.00000
    3    -20.92524    2.00000
    4    -20.75390    2.00000
    5    -20.49124    2.00000
    6    -19.60445    2.00000
    7    -19.40112    2.00000
    8    -19.20025    2.00000
    9    -18.47875    2.00000
   10    -17.71810    2.00000
   11    -17.15442    2.00000
   12    -16.91363    2.00000
   13    -16.62450    2.00000
   14    -15.54659    2.00000
   15    -14.58356    2.00000
   16    -14.34613    2.00000
   17    -14.08744    2.00000
   18    -13.21880    2.00000
   19    -12.59453    2.00000
   20    -12.54301    2.00000
   21    -12.32737    2.00000
   22    -12.00613    2.00000
   23    -11.30269    2.00000
   24    -11.09416    2.00000
   25    -10.74754    2.00000
   26    -10.67007    2.00000
   27    -10.35430    2.00000
   28     -9.99620    2.00000
   29     -9.94498    2.00000
   30     -9.82952    2.00000
   31     -9.10280    2.00000
   32     -9.06556    2.00000
   33     -8.75124    2.00000
   34     -8.61054    2.00000
   35     -8.34300    2.00000
   36     -7.76861    2.00000
   37     -7.21616    2.00000
   38     -7.15576    2.00000
   39     -7.01226    2.00000
   40     -6.97767    2.00000
   41     -6.86341    2.00000
   42     -6.46705    2.00000
   43     -6.13160    2.00000
   44     -5.58116    1.99998
   45     -5.04027    1.99562
   46     -4.83725    1.96713
   47     -4.66342    1.82643
   48     -4.19108    0.17101
   49     -4.03599    0.03888
   50     -3.65845    0.00091
   51     -3.30917    0.00003
   52     -2.85107    0.00000
   53     -2.26299    0.00000
   54     -1.41038    0.00000
   55     -1.37856    0.00000
   56     -1.28137    0.00000
   57     -0.75308    0.00000
   58     -0.50598    0.00000
   59     -0.35813    0.00000
   60      1.43220    0.00000
   61      1.93888    0.00000
   62      2.65570    0.00000
   63      2.67558    0.00000
   64      2.93327    0.00000
   65      3.16970    0.00000
   66      3.79185    0.00000
   67      4.06987    0.00000
   68      4.54607    0.00000
   69      4.85850    0.00000
   70      5.11718    0.00000
   71      5.35359    0.00000
   72      5.64536    0.00000
   73      5.86783    0.00000
   74      6.47544    0.00000
   75      6.77721    0.00000
   76      7.09280    0.00000
   77      7.44521    0.00000
   78      7.84205    0.00000
   79      7.90389    0.00000
   80      8.12158    0.00000
   81      8.31428    0.00000
   82      8.47248    0.00000
   83      8.55159    0.00000
   84      8.80082    0.00000
   85      8.90470    0.00000
   86      9.04807    0.00000
   87      9.16346    0.00000
   88      9.30435    0.00000
   89      9.38226    0.00000
   90      9.62998    0.00000
   91      9.64027    0.00000
   92      9.78287    0.00000
   93      9.93372    0.00000
   94     10.10743    0.00000
   95     10.26102    0.00000
   96     10.36211    0.00000
   97     10.37752    0.00000


Forces in eV/Ang:
  0 C    -0.18178    0.17960    0.07068
  1 C    -0.04738    0.07899    0.05447
  2 C     0.07077    0.25215    0.05401
  3 C     0.17269    0.27726   -0.06612
  4 C     0.21712   -0.69223   -0.34720
  5 C    -0.00251   -0.26102   -0.13355
  6 C     0.37060    0.00287   -0.03026
  7 C     0.07103    0.17180   -0.02854
  8 C    -0.78224    0.83282    0.43606
  9 C    -0.00770   -0.23231    0.04438
 10 C    -0.02258    0.04082    0.11174
 11 C     0.14926   -0.43757   -0.10263
 12 C    -0.19978   -0.17999   -0.03259
 13 C    -0.05547   -0.10145    0.01358
 14 C     0.04946   -0.25114   -0.06140
 15 C     0.13833   -0.22128   -0.17725
 16 C     0.28967    0.77209    0.02275
 17 C     0.01315    0.29462    0.00462
 18 C     0.38664   -0.02714   -0.03824
 19 C     0.06633   -0.15350   -0.10012
 20 C    -0.86320   -0.83124   -0.01357
 21 C     0.01453    0.16793    0.16115
 22 C    -0.03501   -0.09030    0.06998
 23 C     0.18882    0.41965    0.12115

System changes: positions 

Initializing position-dependent things.

Density initialized from wave functions
           .--------------------------------------.  
          /|                                      |  
         / |                                      |  
        /  |                                      |  
       /   |                                      |  
      /    |                                      |  
     /     |                                      |  
    /      |              C                       |  
   /       |           C    C  C                  |  
  /        |    C  C                              |  
 *         |  C     C   C C   C                   |  
 |         | C                  C                 |  
 |         .-C-----C--C--C--C--C------------------.  
 |        /      C C                             /   
 |       /          C  C  C                     /    
 |      /                                      /     
 |     /                                      /      
 |    /                                      /       
 |   /                                      /        
 |  /                                      /         
 | /                                      /          
 |/                                      /           
 *--------------------------------------*            

Positions:
   0 C      7.457128   10.307377    7.036105
   1 C      8.726069    9.904747    6.876035
   2 C      9.838326    9.271877    6.635353
   3 C      6.720873    9.173698    6.590391
   4 C      3.971690    8.577313    6.304758
   5 C      5.351615    8.597335    6.349025
   6 C      9.850248    7.953044    6.148594
   7 C      7.327183    7.905518    6.118926
   8 C      3.418885    7.443446    5.894826
   9 C      8.581676    7.245925    5.926171
  10 C      6.048652    7.336512    5.918019
  11 C     10.915481    7.034192    5.836254
  12 C      7.045805    2.744316    5.064646
  13 C      8.352589    3.042562    5.089001
  14 C      9.529201    3.597016    5.156342
  15 C      6.439770    4.019489    5.247010
  16 C      3.773783    4.957036    5.360168
  17 C      5.142906    4.777018    5.354207
  18 C      9.688777    4.976422    5.373871
  19 C      7.184500    5.286990    5.437954
  20 C      3.350913    6.196759    5.570408
  21 C      8.504223    5.827081    5.557112
  22 C      5.976209    6.009090    5.572617
  23 C     10.848342    5.819334    5.518923

Unit cell:
           periodic     x           y           z      points  spacing
  1. axis:    yes   16.000000    0.000000    0.000000    80     0.2000
  2. axis:    yes    0.000000   16.000000    0.000000    80     0.2000
  3. axis:    yes    0.000000    0.000000   10.000000    48     0.2083

Effective grid spacing dv^(1/3) = 0.2027

                     log10-error:    total        iterations:
           time      wfs    density  energy       fermi  poisson
iter:   1  11:54:33          +inf  -183.777964    3      5      
iter:   2  11:54:34         -1.92  -183.660042    3      2      
iter:   3  11:54:35         -2.05  -183.519687    3      2      
iter:   4  11:54:35         -2.42  -183.542611    2      2      
iter:   5  11:54:36         -2.45  -183.534156    2      2      
iter:   6  11:54:37         -2.65  -183.532503    2      2      
iter:   7  11:54:37         -2.76  -183.524392    2      2      
iter:   8  11:54:38         -3.28  -183.521226    2      1      
iter:   9  11:54:39         -3.32  -183.524694    2      1      
iter:  10  11:54:39         -3.64  -183.524262    2      1      
iter:  11  11:54:40         -3.76  -183.523647    2      1      
iter:  12  11:54:40         -3.82  -183.524423    2      1      
iter:  13  11:54:41         -3.99  -183.524104    2      1      
iter:  14  11:54:42         -4.11  -183.524053    1      1      

Converged after 14 iterations.

Dipole moment: (-0.241738, 0.038671, -0.108202) |e|*Ang

Energy contributions relative to reference atoms: (reference = -24663.074771)

Kinetic:       +125.131272
Potential:     -130.773977
External:        +0.000000
XC:            -180.802340
Entropy (-ST):   -0.146363
Local:           +2.994174
--------------------------
Free energy:   -183.597235
Extrapolated:  -183.524053

Fermi level: -4.34238

 Band  Eigenvalues  Occupancy
    0    -23.44103    2.00000
    1    -22.56607    2.00000
    2    -22.04481    2.00000
    3    -20.86354    2.00000
    4    -20.84844    2.00000
    5    -20.43345    2.00000
    6    -19.60890    2.00000
    7    -19.38045    2.00000
    8    -19.21906    2.00000
    9    -18.42156    2.00000
   10    -17.70033    2.00000
   11    -17.11348    2.00000
   12    -16.92852    2.00000
   13    -16.59087    2.00000
   14    -15.49817    2.00000
   15    -14.58077    2.00000
   16    -14.48473    2.00000
   17    -14.12087    2.00000
   18    -13.27354    2.00000
   19    -12.64006    2.00000
   20    -12.48055    2.00000
   21    -12.30218    2.00000
   22    -11.97816    2.00000
   23    -11.30989    2.00000
   24    -11.05232    2.00000
   25    -10.72534    2.00000
   26    -10.64257    2.00000
   27    -10.38141    2.00000
   28    -10.02168    2.00000
   29     -9.92352    2.00000
   30     -9.81280    2.00000
   31     -9.09103    2.00000
   32     -9.06019    2.00000
   33     -8.84600    2.00000
   34     -8.58538    2.00000
   35     -8.28460    2.00000
   36     -7.92438    2.00000
   37     -7.18099    2.00000
   38     -7.14003    2.00000
   39     -6.96139    2.00000
   40     -6.93323    2.00000
   41     -6.91054    2.00000
   42     -6.44305    2.00000
   43     -6.08950    2.00000
   44     -5.61564    1.99999
   45     -5.05259    1.99835
   46     -4.77192    1.97310
   47     -4.58958    1.84432
   48     -4.04976    0.10175
   49     -4.02326    0.07900
   50     -3.70565    0.00343
   51     -3.27604    0.00005
   52     -2.78560    0.00000
   53     -2.22805    0.00000
   54     -1.35998    0.00000
   55     -1.34498    0.00000
   56     -1.25370    0.00000
   57     -0.88551    0.00000
   58     -0.54570    0.00000
   59     -0.32725    0.00000
   60      1.46963    0.00000
   61      1.95021    0.00000
   62      2.61589    0.00000
   63      2.74271    0.00000
   64      2.84985    0.00000
   65      3.21235    0.00000
   66      3.81103    0.00000
   67      4.11773    0.00000
   68      4.41668    0.00000
   69      4.88970    0.00000
   70      4.97905    0.00000
   71      5.42043    0.00000
   72      5.61548    0.00000
   73      5.88911    0.00000
   74      6.41546    0.00000
   75      6.96058    0.00000
   76      7.10377    0.00000
   77      7.45065    0.00000
   78      7.87660    0.00000
   79      7.97023    0.00000
   80      8.16768    0.00000
   81      8.30626    0.00000
   82      8.48026    0.00000
   83      8.58959    0.00000
   84      8.79887    0.00000
   85      8.94612    0.00000
   86      9.10119    0.00000
   87      9.18020    0.00000
   88      9.29362    0.00000
   89      9.41691    0.00000
   90      9.66571    0.00000
   91      9.67242    0.00000
   92      9.80940    0.00000
   93     10.04377    0.00000
   94     10.11154    0.00000
   95     10.31845    0.00000
   96     10.36079    0.00000
   97     10.46124    0.00000


Forces in eV/Ang:
  0 C    -0.16284    0.26739    0.10018
  1 C    -0.02077    0.00295    0.00600
  2 C     0.06615    0.15041    0.02838
  3 C     0.25862    0.20446   -0.11697
  4 C     0.25664    0.02352   -0.07041
  5 C     0.05066   -0.36856   -0.13971
  6 C     0.26734   -0.06733   -0.00260
  7 C     0.13779    0.06151    0.01524
  8 C    -0.96670    0.50969    0.25176
  9 C     0.00292   -0.14919    0.00734
 10 C     0.05366   -0.34214   -0.01673
 11 C     0.02557    0.01082    0.02412
 12 C    -0.18172   -0.24679   -0.03882
 13 C    -0.00767   -0.01189    0.01175
 14 C     0.03925   -0.14442   -0.04392
 15 C     0.26044   -0.13618   -0.17464
 16 C     0.26588   -0.01541   -0.09143
 17 C     0.08978    0.37201    0.03088
 18 C     0.27853    0.03223    0.02894
 19 C     0.12858   -0.07718   -0.01426
 20 C    -1.01273   -0.44321    0.00592
 21 C     0.00299    0.10467    0.08603
 22 C     0.09954    0.29086    0.13748
 23 C     0.03334   -0.02494    0.00141

System changes: positions 

Initializing position-dependent things.

Density initialized from wave functions
           .--------------------------------------.  
          /|                                      |  
         / |                                      |  
        /  |                                      |  
       /   |                                      |  
      /    |                                      |  
     /     |                                      |  
    /      |              C                       |  
   /       |           C    C  C                  |  
  /        |    C  C                              |  
 *         |  C     C   C C   C                   |  
 |         | C                  C                 |  
 |         .-C-----C--C--C--C--C------------------.  
 |        /      C C                             /   
 |       /          C  C  C                     /    
 |      /                                      /     
 |     /                                      /      
 |    /                                      /       
 |   /                                      /        
 |  /                                      /         
 | /                                      /          
 |/                                      /           
 *--------------------------------------*            

Positions:
   0 C      7.452247   10.315490    7.039081
   1 C      8.724399    9.907759    6.878114
   2 C      9.839965    9.280435    6.637307
   3 C      6.721777    9.183557    6.587287
   4 C      3.981717    8.546271    6.288699
   5 C      5.353701    8.598307    6.347555
   6 C      9.860464    7.956284    6.147944
   7 C      7.329848    7.910719    6.116558
   8 C      3.380083    7.444987    5.904421
   9 C      8.587298    7.244141    5.930680
  10 C      6.051021    7.332801    5.921126
  11 C     10.924650    7.033363    5.836883
  12 C      7.040307    2.736516    5.063109
  13 C      8.350835    3.038764    5.089642
  14 C      9.529723    3.588715    5.154043
  15 C      6.439990    4.012526    5.240195
  16 C      3.787406    4.991033    5.360489
  17 C      5.144632    4.776478    5.351935
  18 C      9.698956    4.972904    5.371679
  19 C      7.186706    5.283014    5.433627
  20 C      3.312149    6.195507    5.579305
  21 C      8.509574    5.825309    5.562055
  22 C      5.979009    6.010237    5.576767
  23 C     10.857563    5.819161    5.519346

Unit cell:
           periodic     x           y           z      points  spacing
  1. axis:    yes   16.000000    0.000000    0.000000    80     0.2000
  2. axis:    yes    0.000000   16.000000    0.000000    80     0.2000
  3. axis:    yes    0.000000    0.000000   10.000000    48     0.2083

Effective grid spacing dv^(1/3) = 0.2027

                     log10-error:    total        iterations:
           time      wfs    density  energy       fermi  poisson
iter:   1  11:54:44          +inf  -183.734199    3      5      
iter:   2  11:54:45         -2.09  -183.683583    3      2      
iter:   3  11:54:45         -2.21  -183.613730    3      2      
iter:   4  11:54:46         -2.58  -183.626095    3      2      
iter:   5  11:54:46         -2.57  -183.617500    3      2      
iter:   6  11:54:47         -2.90  -183.615655    2      2      
iter:   7  11:54:48         -3.15  -183.613548    2      2      
iter:   8  11:54:48         -3.50  -183.614963    2      1      
iter:   9  11:54:49         -3.62  -183.614148    2      1      
iter:  10  11:54:50         -3.82  -183.613703    2      1      
iter:  11  11:54:50         -3.93  -183.613971    2      1      
iter:  12  11:54:51         -4.02  -183.613647    1      1      

Converged after 12 iterations.

Dipole moment: (-0.351191, 0.044595, -0.109862) |e|*Ang

Energy contributions relative to reference atoms: (reference = -24663.074771)

Kinetic:       +122.781686
Potential:     -128.849158
External:        +0.000000
XC:            -180.464643
Entropy (-ST):   -0.137054
Local:           +2.986996
--------------------------
Free energy:   -183.682174
Extrapolated:  -183.613647

Fermi level: -4.28905

 Band  Eigenvalues  Occupancy
    0    -23.38692    2.00000
    1    -22.51436    2.00000
    2    -21.98526    2.00000
    3    -20.89149    2.00000
    4    -20.79871    2.00000
    5    -20.38666    2.00000
    6    -19.59929    2.00000
    7    -19.35548    2.00000
    8    -19.19097    2.00000
    9    -18.38974    2.00000
   10    -17.70590    2.00000
   11    -17.07621    2.00000
   12    -16.93704    2.00000
   13    -16.56545    2.00000
   14    -15.47178    2.00000
   15    -14.63416    2.00000
   16    -14.56482    2.00000
   17    -14.10103    2.00000
   18    -13.31267    2.00000
   19    -12.67477    2.00000
   20    -12.42125    2.00000
   21    -12.27480    2.00000
   22    -11.94422    2.00000
   23    -11.30674    2.00000
   24    -11.00949    2.00000
   25    -10.69961    2.00000
   26    -10.62075    2.00000
   27    -10.37584    2.00000
   28    -10.02364    2.00000
   29     -9.88652    2.00000
   30     -9.79289    2.00000
   31     -9.11820    2.00000
   32     -9.01077    2.00000
   33     -8.89435    2.00000
   34     -8.55327    2.00000
   35     -8.23666    2.00000
   36     -8.05144    2.00000
   37     -7.16239    2.00000
   38     -7.12926    2.00000
   39     -6.92021    2.00000
   40     -6.90916    2.00000
   41     -6.88953    2.00000
   42     -6.42524    2.00000
   43     -6.07417    2.00000
   44     -5.60566    2.00000
   45     -5.07099    1.99920
   46     -4.73020    1.97602
   47     -4.54275    1.85339
   48     -4.01741    0.12402
   49     -3.90108    0.04048
   50     -3.72162    0.00684
   51     -3.24880    0.00006
   52     -2.75087    0.00000
   53     -2.21450    0.00000
   54     -1.33801    0.00000
   55     -1.32265    0.00000
   56     -1.22625    0.00000
   57     -1.07551    0.00000
   58     -0.55207    0.00000
   59     -0.29717    0.00000
   60      1.49294    0.00000
   61      1.94321    0.00000
   62      2.54012    0.00000
   63      2.77783    0.00000
   64      2.79247    0.00000
   65      3.22352    0.00000
   66      3.75607    0.00000
   67      4.13902    0.00000
   68      4.26320    0.00000
   69      4.81153    0.00000
   70      4.92743    0.00000
   71      5.47730    0.00000
   72      5.57795    0.00000
   73      5.93013    0.00000
   74      6.36224    0.00000
   75      7.08363    0.00000
   76      7.13494    0.00000
   77      7.44168    0.00000
   78      7.89785    0.00000
   79      8.01244    0.00000
   80      8.20146    0.00000
   81      8.28697    0.00000
   82      8.47621    0.00000
   83      8.60050    0.00000
   84      8.79813    0.00000
   85      9.00507    0.00000
   86      9.14076    0.00000
   87      9.19438    0.00000
   88      9.29132    0.00000
   89      9.45003    0.00000
   90      9.68206    0.00000
   91      9.71557    0.00000
   92      9.84398    0.00000
   93     10.06010    0.00000
   94     10.12304    0.00000
   95     10.35870    0.00000
   96     10.36408    0.00000
   97     10.48355    0.00000


Forces in eV/Ang:
  0 C    -0.01999    0.27761    0.08833
  1 C    -0.09078    0.00681   -0.01548
  2 C     0.06216   -0.02644   -0.01247
  3 C     0.26282   -0.05205   -0.18885
  4 C     0.12973    0.35789    0.07087
  5 C     0.15708   -0.45681   -0.15708
  6 C     0.13474   -0.05656    0.05169
  7 C     0.15542   -0.03774    0.05511
  8 C    -0.95463    0.44108    0.19385
  9 C     0.02319   -0.01108    0.00653
 10 C     0.20029    0.06044    0.06663
 11 C    -0.03715    0.21456    0.07627
 12 C    -0.05950   -0.27501   -0.06044
 13 C    -0.07841    0.00051   -0.00495
 14 C     0.05676    0.00848   -0.01139
 15 C     0.27417    0.08234   -0.14741
 16 C     0.07474   -0.33897   -0.12421
 17 C     0.23479    0.44727    0.05418
 18 C     0.12133    0.00602    0.07795
 19 C     0.15899    0.00092    0.06237
 20 C    -0.97592   -0.39020   -0.00965
 21 C     0.01922   -0.00426    0.00574
 22 C     0.19293   -0.11388    0.01459
 23 C    -0.05233   -0.22387   -0.04793

System changes: positions 

Initializing position-dependent things.

Density initialized from wave functions
           .--------------------------------------.  
          /|                                      |  
         / |                                      |  
        /  |                                      |  
       /   |                                      |  
      /    |                                      |  
     /     |                                      |  
    /      |              C                       |  
   /       |           C    C  C                  |  
  /        |    C  C                              |  
 *         |  C     C   C C   C                   |  
 |         | C                  C                 |  
 |         .-C-----C--C--C--C--C------------------.  
 |        /      C C                             /   
 |       /          C  C  C                     /    
 |      /                                      /     
 |     /                                      /      
 |    /                                      /       
 |   /                                      /        
 |  /                                      /         
 | /                                      /          
 |/                                      /           
 *--------------------------------------*            

Positions:
   0 C      7.449104   10.324022    7.041977
   1 C      8.722049    9.910359    6.879598
   2 C      9.841469    9.286321    6.638655
   3 C      6.724238    9.189676    6.582961
   4 C      3.989838    8.523945    6.276271
   5 C      5.357058    8.595753    6.345204
   6 C      9.868845    7.958960    6.148218
   7 C      7.333633    7.914153    6.115227
   8 C      3.341331    7.448876    5.913540
   9 C      8.592269    7.243346    5.934496
  10 C      6.055313    7.332673    5.924685
  11 C     10.931834    7.032588    5.837502
  12 C      7.036216    2.728142    5.061253
  13 C      8.348487    3.035662    5.090022
  14 C      9.530387    3.582722    5.152240
  15 C      6.441992    4.008664    5.233630
  16 C      3.797787    5.016153    5.359837
  17 C      5.148512    4.779285    5.350469
  18 C      9.706966    4.969553    5.370682
  19 C      7.190190    5.280192    5.430936
  20 C      3.273464    6.191943    5.586736
  21 C      8.514323    5.823245    5.565743
  22 C      5.983252    6.007853    5.579556
  23 C     10.864841    5.819054    5.519796

Unit cell:
           periodic     x           y           z      points  spacing
  1. axis:    yes   16.000000    0.000000    0.000000    80     0.2000
  2. axis:    yes    0.000000   16.000000    0.000000    80     0.2000
  3. axis:    yes    0.000000    0.000000   10.000000    48     0.2083

Effective grid spacing dv^(1/3) = 0.2027

                     log10-error:    total        iterations:
           time      wfs    density  energy       fermi  poisson
iter:   1  11:54:53          +inf  -183.713282    3      5      
iter:   2  11:54:54         -2.39  -183.702912    3      1      
iter:   3  11:54:54         -2.48  -183.681358    3      2      
iter:   4  11:54:55         -2.74  -183.693432    3      2      
iter:   5  11:54:56         -2.68  -183.685167    3      2      
iter:   6  11:54:56         -3.09  -183.680670    2      2      
iter:   7  11:54:57         -3.27  -183.682897    2      1      
iter:   8  11:54:58         -3.70  -183.682381    2      1      
iter:   9  11:54:58         -3.82  -183.681673    2      1      
iter:  10  11:54:59         -3.89  -183.682106    2      1      
iter:  11  11:54:59         -4.04  -183.682055    2      1      

Converged after 11 iterations.

Dipole moment: (-0.407452, 0.047929, -0.110923) |e|*Ang

Energy contributions relative to reference atoms: (reference = -24663.074771)

Kinetic:       +119.787833
Potential:     -126.437917
External:        +0.000000
XC:            -179.945364
Entropy (-ST):   -0.130633
Local:           +2.978710
--------------------------
Free energy:   -183.747371
Extrapolated:  -183.682055

Fermi level: -4.26935

 Band  Eigenvalues  Occupancy
    0    -23.36554    2.00000
    1    -22.50376    2.00000
    2    -21.94647    2.00000
    3    -20.88498    2.00000
    4    -20.76135    2.00000
    5    -20.35602    2.00000
    6    -19.57585    2.00000
    7    -19.34361    2.00000
    8    -19.16835    2.00000
    9    -18.36454    2.00000
   10    -17.68620    2.00000
   11    -17.05785    2.00000
   12    -16.92887    2.00000
   13    -16.55587    2.00000
   14    -15.44732    2.00000
   15    -14.74302    2.00000
   16    -14.54670    2.00000
   17    -14.08786    2.00000
   18    -13.33360    2.00000
   19    -12.67810    2.00000
   20    -12.38313    2.00000
   21    -12.26138    2.00000
   22    -11.92929    2.00000
   23    -11.30621    2.00000
   24    -10.98678    2.00000
   25    -10.67663    2.00000
   26    -10.61171    2.00000
   27    -10.36521    2.00000
   28    -10.02005    2.00000
   29     -9.87270    2.00000
   30     -9.77369    2.00000
   31     -9.11929    2.00000
   32     -8.99456    2.00000
   33     -8.90121    2.00000
   34     -8.53645    2.00000
   35     -8.20687    2.00000
   36     -8.12370    2.00000
   37     -7.15670    2.00000
   38     -7.12412    2.00000
   39     -6.91001    2.00000
   40     -6.88677    2.00000
   41     -6.86281    2.00000
   42     -6.41936    2.00000
   43     -6.05254    2.00000
   44     -5.59314    2.00000
   45     -5.07433    1.99936
   46     -4.71829    1.97780
   47     -4.52441    1.85523
   48     -4.01477    0.14543
   49     -3.75408    0.01150
   50     -3.74600    0.01061
   51     -3.24053    0.00007
   52     -2.73082    0.00000
   53     -2.19986    0.00000
   54     -1.42303    0.00000
   55     -1.30705    0.00000
   56     -1.25934    0.00000
   57     -1.17753    0.00000
   58     -0.55840    0.00000
   59     -0.27790    0.00000
   60      1.49572    0.00000
   61      1.93849    0.00000
   62      2.52406    0.00000
   63      2.74122    0.00000
   64      2.78586    0.00000
   65      3.21203    0.00000
   66      3.74101    0.00000
   67      4.13625    0.00000
   68      4.15098    0.00000
   69      4.68443    0.00000
   70      4.92598    0.00000
   71      5.47462    0.00000
   72      5.55128    0.00000
   73      5.96354    0.00000
   74      6.29964    0.00000
   75      7.05769    0.00000
   76      7.21240    0.00000
   77      7.42222    0.00000
   78      7.88813    0.00000
   79      8.02796    0.00000
   80      8.24457    0.00000
   81      8.26535    0.00000
   82      8.47214    0.00000
   83      8.60871    0.00000
   84      8.79427    0.00000
   85      9.05618    0.00000
   86      9.16190    0.00000
   87      9.19802    0.00000
   88      9.29496    0.00000
   89      9.46806    0.00000
   90      9.68487    0.00000
   91      9.71721    0.00000
   92      9.86965    0.00000
   93     10.05438    0.00000
   94     10.13001    0.00000
   95     10.35262    0.00000
   96     10.37982    0.00000
   97     10.47195    0.00000


Forces in eV/Ang:
  0 C     0.02156    0.19480    0.05074
  1 C    -0.04052   -0.02086   -0.03982
  2 C    -0.01559   -0.10302   -0.03266
  3 C     0.27797   -0.10799   -0.17496
  4 C    -0.02624    0.37064    0.10223
  5 C     0.12148   -0.40803   -0.14780
  6 C     0.00823   -0.05828    0.08091
  7 C     0.19740   -0.07428    0.08159
  8 C    -0.74652    0.26421    0.12502
  9 C     0.06145    0.02989   -0.01052
 10 C     0.24401   -0.07981    0.00186
 11 C    -0.08324    0.35293    0.10656
 12 C    -0.00903   -0.20567   -0.08233
 13 C    -0.04324    0.02603   -0.02081
 14 C     0.00968    0.07033    0.01809
 15 C     0.27792    0.14638   -0.11245
 16 C    -0.05046   -0.37063   -0.10158
 17 C     0.16973    0.41021    0.04726
 18 C    -0.00100    0.00994    0.10356
 19 C     0.20275    0.00956    0.09266
 20 C    -0.78342   -0.20658    0.01127
 21 C     0.07832   -0.01603   -0.02164
 22 C     0.24998    0.04339    0.03518
 23 C    -0.12671   -0.35923   -0.07869

System changes: positions 

Initializing position-dependent things.

Density initialized from wave functions
           .--------------------------------------.  
          /|                                      |  
         / |                                      |  
        /  |                                      |  
       /   |                                      |  
      /    |                                      |  
     /     |                                      |  
    /      |              C                       |  
   /       |           C    C  C                  |  
  /        |    C  C                              |  
 *         |  C     C   C C   C                   |  
 |         | C                  C                 |  
 |         .-C-----C--C--C--C--C------------------.  
 |        /      C C                             /   
 |       /          C  C  C                     /    
 |      /                                      /     
 |     /                                      /      
 |    /                                      /       
 |   /                                      /        
 |  /                                      /         
 | /                                      /          
 |/                                      /           
 *--------------------------------------*            

Positions:
   0 C      7.446644   10.332296    7.044567
   1 C      8.720350    9.912279    6.880417
   2 C      9.841719    9.290431    6.639517
[...]

Converged after 9 iterations.

Dipole moment: (-0.407129, 0.048347, -0.111548) |e|*Ang

Energy contributions relative to reference atoms: (reference = -24663.074771)

Kinetic:       +113.196976
Potential:     -121.236697
External:        +0.000000
XC:            -178.702511
Entropy (-ST):   -0.113563
Local:           +2.999523
--------------------------
Free energy:   -183.856273
Extrapolated:  -183.799492

Fermi level: -4.27422

 Band  Eigenvalues  Occupancy
    0    -23.36333    2.00000
    1    -22.46201    2.00000
    2    -21.94772    2.00000
    3    -20.76813    2.00000
    4    -20.75132    2.00000
    5    -20.36751    2.00000
    6    -19.50828    2.00000
    7    -19.33603    2.00000
    8    -19.12309    2.00000
    9    -18.37056    2.00000
   10    -17.62012    2.00000
   11    -17.07169    2.00000
   12    -16.90285    2.00000
   13    -16.57439    2.00000
   14    -15.44751    2.00000
   15    -14.87253    2.00000
   16    -14.50437    2.00000
   17    -14.03655    2.00000
   18    -13.32606    2.00000
   19    -12.62158    2.00000
   20    -12.40599    2.00000
   21    -12.27714    2.00000
   22    -11.96189    2.00000
   23    -11.34052    2.00000
   24    -10.99192    2.00000
   25    -10.65206    2.00000
   26    -10.63363    2.00000
   27    -10.25363    2.00000
   28    -10.00362    2.00000
   29     -9.84583    2.00000
   30     -9.75217    2.00000
   31     -9.11966    2.00000
   32     -8.96820    2.00000
   33     -8.85522    2.00000
   34     -8.52040    2.00000
   35     -8.20292    2.00000
   36     -8.17173    2.00000
   37     -7.16260    2.00000
   38     -7.13221    2.00000
   39     -6.91520    2.00000
   40     -6.87698    2.00000
   41     -6.84893    2.00000
   42     -6.41283    2.00000
   43     -6.03654    2.00000
   44     -5.55227    1.99999
   45     -5.04576    1.99911
   46     -4.74798    1.98263
   47     -4.54751    1.87789
   48     -4.00031    0.12142
   49     -3.80533    0.01823
   50     -3.47023    0.00064
   51     -3.26553    0.00008
   52     -2.75153    0.00000
   53     -2.19148    0.00000
   54     -1.90504    0.00000
   55     -1.37695    0.00000
   56     -1.30422    0.00000
   57     -1.19350    0.00000
   58     -0.54142    0.00000
   59     -0.24938    0.00000
   60      1.46813    0.00000
   61      1.90858    0.00000
   62      2.59285    0.00000
   63      2.70681    0.00000
   64      2.74252    0.00000
   65      3.13443    0.00000
   66      3.56323    0.00000
   67      3.97518    0.00000
   68      4.10605    0.00000
   69      4.35227    0.00000
   70      4.92940    0.00000
   71      5.41917    0.00000
   72      5.66540    0.00000
   73      6.05209    0.00000
   74      6.22351    0.00000
   75      7.03149    0.00000
   76      7.20662    0.00000
   77      7.45051    0.00000
   78      7.82670    0.00000
   79      8.03130    0.00000
   80      8.27320    0.00000
   81      8.32456    0.00000
   82      8.50243    0.00000
   83      8.68725    0.00000
   84      8.79492    0.00000
   85      9.15903    0.00000
   86      9.16437    0.00000
   87      9.24143    0.00000
   88      9.28914    0.00000
   89      9.48116    0.00000
   90      9.66807    0.00000
   91      9.74734    0.00000
   92      9.92696    0.00000
   93      9.99945    0.00000
   94     10.12853    0.00000
   95     10.32980    0.00000
   96     10.34216    0.00000
   97     10.44819    0.00000


Forces in eV/Ang:
  0 C    -0.02570   -0.05773   -0.10370
  1 C     0.06540   -0.02490   -0.05114
  2 C    -0.06367   -0.03192    0.02778
  3 C    -0.06238   -0.03926   -0.01724
  4 C    -0.15686   -0.09418    0.03330
  5 C    -0.02854    0.00034   -0.06111
  6 C    -0.03093   -0.04671    0.02961
  7 C     0.02107   -0.00705    0.02842
  8 C     0.08598   -0.08917    0.02360
  9 C     0.03732   -0.02117   -0.00372
 10 C     0.05405    0.01556   -0.01767
 11 C    -0.00013   -0.05487    0.01903
 12 C    -0.00482    0.11853   -0.06827
 13 C     0.06839    0.03943   -0.03566
 14 C    -0.05567    0.01556    0.04039
 15 C    -0.03436    0.05063    0.00587
 16 C     0.01024   -0.04882    0.05931
 17 C    -0.09744    0.04850   -0.05015
 18 C    -0.02072    0.02036    0.04542
 19 C     0.05011   -0.00113    0.04015
 20 C     0.02681    0.17413    0.08163
 21 C     0.03972    0.01119   -0.00604
 22 C     0.05949    0.00080   -0.02022
 23 C    -0.00007    0.03496    0.04704

System changes: positions 

Initializing position-dependent things.

Density initialized from wave functions
           .--------------------------------------.  
          /|                                      |  
         / |                                      |  
        /  |                                      |  
       /   |                                      |  
      /    |                                      |  
     /     |                                      |  
    /      |              C                       |  
   /       |           C    C  C                  |  
  /        |    C  C                              |  
 *         |  C     C   C  C  C                   |  
 |         | C                  C                 |  
 |         .-C-----C--C--C--C--C------------------.  
 |        /      C C                             /   
 |       /          C  C  C                     /    
 |      /                                      /     
 |     /                                      /      
 |    /                                      /       
 |   /                                      /        
 |  /                                      /         
 | /                                      /          
 |/                                      /           
 *--------------------------------------*            

Positions:
   0 C      7.445588   10.341314    7.040208
   1 C      8.719811    9.914876    6.877079
   2 C      9.835516    9.285821    6.639487
   3 C      6.743169    9.191100    6.562713
   4 C      3.984938    8.486706    6.258684
   5 C      5.358219    8.565920    6.326269
   6 C      9.878204    7.957250    6.157107
   7 C      7.358350    7.915528    6.120401
   8 C      3.238159    7.458181    5.939542
   9 C      8.610131    7.240997    5.938143
  10 C      6.087104    7.325146    5.929258
  11 C     10.938314    7.033280    5.842238
  12 C      7.031437    2.714727    5.048505
  13 C      8.346341    3.032385    5.085659
  14 C      9.526220    3.580904    5.154421
  15 C      6.461632    4.015600    5.214841
  16 C      3.799022    5.057623    5.361475
  17 C      5.153488    4.814923    5.347177
  18 C      9.716372    4.964607    5.379017
  19 C      7.216313    5.274528    5.435024
  20 C      3.168639    6.183272    5.607428
  21 C      8.534417    5.822272    5.570210
  22 C      6.016745    6.009436    5.586157
  23 C     10.870070    5.815281    5.523246

Unit cell:
           periodic     x           y           z      points  spacing
  1. axis:    yes   16.000000    0.000000    0.000000    80     0.2000
  2. axis:    yes    0.000000   16.000000    0.000000    80     0.2000
  3. axis:    yes    0.000000    0.000000   10.000000    48     0.2083

Effective grid spacing dv^(1/3) = 0.2027

                     log10-error:    total        iterations:
           time      wfs    density  energy       fermi  poisson
iter:   1  11:55:35          +inf  -183.804417    2      4      
iter:   2  11:55:35         -2.74  -183.802550    2      1      
iter:   3  11:55:36         -2.84  -183.799276    2      1      
iter:   4  11:55:37         -3.22  -183.798557    2      1      
iter:   5  11:55:37         -3.45  -183.799689    2      1      
iter:   6  11:55:38         -3.53  -183.799604    2      1      
iter:   7  11:55:39         -3.97  -183.801398    2      1      
iter:   8  11:55:39         -3.68  -183.802290    2      1      
iter:   9  11:55:40         -4.27  -183.802005    1      1      

Converged after 9 iterations.

Dipole moment: (-0.404308, 0.047745, -0.110514) |e|*Ang

Energy contributions relative to reference atoms: (reference = -24663.074771)

Kinetic:       +114.627016
Potential:     -122.372612
External:        +0.000000
XC:            -179.008694
Entropy (-ST):   -0.115031
Local:           +3.009801
--------------------------
Free energy:   -183.859521
Extrapolated:  -183.802005

Fermi level: -4.26792

 Band  Eigenvalues  Occupancy
    0    -23.36710    2.00000
    1    -22.45614    2.00000
    2    -21.96597    2.00000
    3    -20.78279    2.00000
    4    -20.75944    2.00000
    5    -20.36946    2.00000
    6    -19.51048    2.00000
    7    -19.34394    2.00000
    8    -19.12820    2.00000
    9    -18.37328    2.00000
   10    -17.61760    2.00000
   11    -17.07888    2.00000
   12    -16.90275    2.00000
   13    -16.57647    2.00000
   14    -15.45577    2.00000
   15    -14.85446    2.00000
   16    -14.52426    2.00000
   17    -14.02478    2.00000
   18    -13.33148    2.00000
   19    -12.61159    2.00000
   20    -12.41616    2.00000
   21    -12.27658    2.00000
   22    -11.97237    2.00000
   23    -11.34887    2.00000
   24    -10.99831    2.00000
   25    -10.65099    2.00000
   26    -10.63631    2.00000
   27    -10.23629    2.00000
   28    -10.00414    2.00000
   29     -9.84257    2.00000
   30     -9.76287    2.00000
   31     -9.10645    2.00000
   32     -8.98038    2.00000
   33     -8.86785    2.00000
   34     -8.52228    2.00000
   35     -8.20458    2.00000
   36     -8.17331    2.00000
   37     -7.16187    2.00000
   38     -7.13574    2.00000
   39     -6.91639    2.00000
   40     -6.88126    2.00000
   41     -6.85006    2.00000
   42     -6.41436    2.00000
   43     -6.03373    2.00000
   44     -5.57076    2.00000
   45     -5.04445    1.99915
   46     -4.73870    1.98211
   47     -4.54005    1.87654
   48     -3.99456    0.12204
   49     -3.80273    0.01891
   50     -3.52297    0.00116
   51     -3.26005    0.00008
   52     -2.75007    0.00000
   53     -2.18933    0.00000
   54     -1.87237    0.00000
   55     -1.36774    0.00000
   56     -1.29983    0.00000
   57     -1.18853    0.00000
   58     -0.53007    0.00000
   59     -0.25430    0.00000
   60      1.47886    0.00000
   61      1.91880    0.00000
   62      2.61797    0.00000
   63      2.71870    0.00000
   64      2.77001    0.00000
   65      3.14938    0.00000
   66      3.57425    0.00000
   67      3.99520    0.00000
   68      4.12416    0.00000
   69      4.35750    0.00000
   70      4.95263    0.00000
   71      5.46229    0.00000
   72      5.69389    0.00000
   73      6.05178    0.00000
   74      6.25704    0.00000
   75      7.05484    0.00000
   76      7.22144    0.00000
   77      7.45609    0.00000
   78      7.86410    0.00000
   79      8.04244    0.00000
   80      8.27368    0.00000
   81      8.35422    0.00000
   82      8.50774    0.00000
   83      8.67144    0.00000
   84      8.79457    0.00000
   85      9.15654    0.00000
   86      9.15879    0.00000
   87      9.25036    0.00000
   88      9.28599    0.00000
   89      9.48274    0.00000
   90      9.67707    0.00000
   91      9.76126    0.00000
   92      9.93663    0.00000
   93     10.00414    0.00000
   94     10.12736    0.00000
   95     10.34079    0.00000
   96     10.35569    0.00000
   97     10.45744    0.00000


Forces in eV/Ang:
  0 C    -0.01992   -0.03187   -0.08069
  1 C    -0.04922    0.01195   -0.02676
  2 C     0.02011   -0.04038    0.02383
  3 C    -0.08397    0.01504    0.00198
  4 C     0.11573    0.02565    0.06103
  5 C    -0.05184    0.04717   -0.04632
  6 C     0.03264   -0.01448    0.02021
  7 C    -0.00862    0.00677    0.00527
  8 C    -0.03755   -0.08342    0.02653
  9 C    -0.00250   -0.00715    0.02577
 10 C    -0.04296   -0.02959   -0.03125
 11 C     0.03815   -0.04455    0.02433
 12 C    -0.01037    0.08882   -0.07064
 13 C    -0.03874    0.00195   -0.02638
 14 C     0.02444    0.01835    0.02805
 15 C    -0.05873    0.01668    0.00623
 16 C    -0.00874    0.10781    0.07632
 17 C     0.03170   -0.01017   -0.05332
 18 C     0.03226   -0.00783    0.02315
 19 C    -0.04161   -0.00651    0.00396
 20 C     0.05909   -0.09413    0.01852
 21 C     0.00836   -0.00575    0.02373
 22 C    -0.03158    0.03903   -0.00795
 23 C     0.04663    0.01759    0.04552

System changes: positions 

Initializing position-dependent things.

Density initialized from wave functions
           .--------------------------------------.  
          /|                                      |  
         / |                                      |  
        /  |                                      |  
       /   |                                      |  
      /    |                                      |  
     /     |                                      |  
    /      |              C                       |  
   /       |           C    C  C                  |  
  /        |    C  C                              |  
 *         |  C     C   C  C  C                   |  
 |         | C                  C                 |  
 |         .-C-----C--C--C--C--C------------------.  
 |        /      C C                             /   
 |       /          C  C  C                     /    
 |      /                                      /     
 |     /                                      /      
 |    /                                      /       
 |   /                                      /        
 |  /                                      /         
 | /                                      /          
 |/                                      /           
 *--------------------------------------*            

Positions:
   0 C      7.445268   10.340408    7.038411
   1 C      8.719503    9.914865    6.876363
   2 C      9.835421    9.284829    6.639914
   3 C      6.741717    9.190836    6.562634
   4 C      3.985365    8.487290    6.260122
   5 C      5.357267    8.566366    6.325225
   6 C      9.878303    7.956616    6.157580
   7 C      7.358330    7.915451    6.120719
   8 C      3.238760    7.456637    5.939899
   9 C      8.610241    7.240820    5.938367
  10 C      6.086897    7.324973    5.928689
  11 C     10.938583    7.032907    5.842831
  12 C      7.031379    2.716762    5.047141
  13 C      8.346201    3.032705    5.085053
  14 C      9.526266    3.581489    5.155114
  15 C      6.460711    4.016329    5.215065
  16 C      3.798579    5.058002    5.362865
  17 C      5.153360    4.815282    5.346212
  18 C      9.716539    4.964761    5.379697
  19 C      7.216037    5.274512    5.435445
  20 C      3.170233    6.182845    5.607945
  21 C      8.534692    5.822284    5.570375
  22 C      6.016728    6.009875    5.585827
  23 C     10.870395    5.815187    5.524011

Unit cell:
           periodic     x           y           z      points  spacing
  1. axis:    yes   16.000000    0.000000    0.000000    80     0.2000
  2. axis:    yes    0.000000   16.000000    0.000000    80     0.2000
  3. axis:    yes    0.000000    0.000000   10.000000    48     0.2083

Effective grid spacing dv^(1/3) = 0.2027

                     log10-error:    total        iterations:
           time      wfs    density  energy       fermi  poisson
iter:   1  11:55:42          +inf  -183.802716    2      4      
iter:   2  11:55:43         -3.31  -183.802198    2      1      
iter:   3  11:55:43         -3.42  -183.801431    2      1      
iter:   4  11:55:44         -3.69  -183.801662    2      1      
iter:   5  11:55:44         -3.91  -183.801736    2      1      
iter:   6  11:55:45         -4.11  -183.802327    2      1      

Converged after 6 iterations.

Dipole moment: (-0.405166, 0.047912, -0.109709) |e|*Ang

Energy contributions relative to reference atoms: (reference = -24663.074771)

Kinetic:       +114.932334
Potential:     -122.602671
External:        +0.000000
XC:            -179.081324
Entropy (-ST):   -0.116053
Local:           +3.007361
--------------------------
Free energy:   -183.860353
Extrapolated:  -183.802327

Fermi level: -4.26563

 Band  Eigenvalues  Occupancy
    0    -23.36756    2.00000
    1    -22.45682    2.00000
    2    -21.96774    2.00000
    3    -20.78662    2.00000
    4    -20.75971    2.00000
    5    -20.36942    2.00000
    6    -19.51226    2.00000
    7    -19.34511    2.00000
    8    -19.12835    2.00000
    9    -18.37373    2.00000
   10    -17.62264    2.00000
   11    -17.07620    2.00000
   12    -16.90593    2.00000
   13    -16.57554    2.00000
   14    -15.45657    2.00000
   15    -14.85379    2.00000
   16    -14.52657    2.00000
   17    -14.02695    2.00000
   18    -13.33360    2.00000
   19    -12.61597    2.00000
   20    -12.41639    2.00000
   21    -12.27721    2.00000
   22    -11.97335    2.00000
   23    -11.35003    2.00000
   24    -10.99919    2.00000
   25    -10.65012    2.00000
   26    -10.63935    2.00000
   27    -10.24137    2.00000
   28    -10.00659    2.00000
   29     -9.84326    2.00000
   30     -9.76505    2.00000
   31     -9.10728    2.00000
   32     -8.98010    2.00000
   33     -8.87032    2.00000
   34     -8.52281    2.00000
   35     -8.20481    2.00000
   36     -8.17386    2.00000
   37     -7.16255    2.00000
   38     -7.13648    2.00000
   39     -6.91506    2.00000
   40     -6.88049    2.00000
   41     -6.84935    2.00000
   42     -6.41471    2.00000
   43     -6.03488    2.00000
   44     -5.56900    2.00000
   45     -5.04789    1.99920
   46     -4.73519    1.98189
   47     -4.53631    1.87484
   48     -3.99407    0.12411
   49     -3.79895    0.01863
   50     -3.52709    0.00124
   51     -3.26102    0.00009
   52     -2.74827    0.00000
   53     -2.18936    0.00000
   54     -1.86122    0.00000
   55     -1.36450    0.00000
   56     -1.30169    0.00000
   57     -1.19035    0.00000
   58     -0.52849    0.00000
   59     -0.25343    0.00000
   60      1.48182    0.00000
   61      1.92057    0.00000
   62      2.61563    0.00000
   63      2.72286    0.00000
   64      2.77053    0.00000
   65      3.15447    0.00000
   66      3.57893    0.00000
   67      3.99509    0.00000
   68      4.12815    0.00000
   69      4.36355    0.00000
   70      4.96117    0.00000
   71      5.46584    0.00000
   72      5.69776    0.00000
   73      6.04784    0.00000
   74      6.25905    0.00000
   75      7.06123    0.00000
   76      7.23160    0.00000
   77      7.46075    0.00000
   78      7.87294    0.00000
   79      8.04943    0.00000
   80      8.27687    0.00000
   81      8.35781    0.00000
   82      8.50780    0.00000
   83      8.66890    0.00000
   84      8.79441    0.00000
   85      9.15827    0.00000
   86      9.16239    0.00000
   87      9.25248    0.00000
   88      9.28595    0.00000
   89      9.48268    0.00000
   90      9.67877    0.00000
   91      9.76470    0.00000
   92      9.93960    0.00000
   93     10.00689    0.00000
   94     10.12751    0.00000
   95     10.34298    0.00000
   96     10.35632    0.00000
   97     10.45941    0.00000


Forces in eV/Ang:
  0 C    -0.03100   -0.00340   -0.05871
  1 C    -0.02485   -0.00688   -0.03151
  2 C     0.00906   -0.00389    0.03315
  3 C    -0.05963    0.00561   -0.01226
  4 C     0.00793   -0.08058    0.01631
  5 C     0.02203    0.02660   -0.03711
  6 C     0.03241   -0.01596    0.02062
  7 C    -0.03174    0.00256    0.00274
  8 C     0.01256    0.06524    0.07308
  9 C    -0.00922   -0.00447    0.02797
 10 C    -0.03710    0.01159   -0.02455
 11 C     0.04117   -0.02148    0.03142
 12 C    -0.01983    0.05358   -0.06335
 13 C    -0.01552    0.01642   -0.02347
 14 C     0.01370   -0.01308    0.01756
 15 C    -0.04762    0.01683   -0.00386
 16 C     0.06663    0.00964    0.04557
 17 C     0.01388    0.00068   -0.03820
 18 C     0.03311   -0.00415    0.02448
 19 C    -0.02028    0.00660    0.00433
 20 C    -0.00889   -0.06148    0.02805
 21 C    -0.01473   -0.01225    0.02646
 22 C    -0.04486    0.00735   -0.01959
 23 C     0.04544   -0.00558    0.03947

