
  ___ ___ ___ _ _ _  
 |   |   |_  | | | | 
 | | | | | . | | | | 
 |__ |  _|___|_____|  1.3.0b1
 |___|_|             

User:   esb@s65n31.grendel.cscaa.dk
Date:   Thu Nov  9 12:02:20 2017
Arch:   x86_64
Pid:    18905
Python: 2.7.13
gpaw:   /home/esb/DFT/gpaw_git/gpaw
_gpaw:  /home/esb/DFT/gpaw_git/build/bin.linux-x86_64-2.7/gpaw-python
ase:    /home/esb/DFT/ase_git/ase (version 3.15.0b1)
numpy:  /comm/swstack/core/python/2.7.13/lib/python2.7/site-packages/numpy (version 1.13.3)
scipy:  /comm/swstack/core/python/2.7.13/lib/python2.7/site-packages/scipy (version 0.19.1)
units:  Angstrom and eV
cores:  16
Extra parameters: {'blacs': True}

Input parameters:
  basis: dzp
  gpts: [80 80 48]
  kpts: [1 1 1]
  maxiter: 99
  mixer: {backend: pulay,
          beta: 0.05,
          method: separate,
          nmaxold: 5,
          weight: 75}
  mode: lcao
  nbands: -50
  occupations: {name: fermi-dirac,
                width: 0.1}
  poissonsolver: {eps: 1e-07,
                  name: fd,
                  nn: 3,
                  relax: GS}
  xc: PBE

System changes: positions, numbers, cell, pbc, initial_charges, initial_magmoms 

Initialize ...

C-setup:
  name: Carbon
  id: 4aa54d4b901d75f77cc0ea3eec22967b
  Z: 6
  valence: 4
  core: 2
  charge: 0.0
  file: /home/esb/DFT/gpaw-setups-0.8.7929/C.PBE.gz
  cutoffs: 0.64(comp), 1.14(filt), 1.14(core), lmax=2
  valence states:
                energy  radius
    2s(2.00)   -13.751   0.635
    2p(2.00)    -5.284   0.635
    *s          13.461   0.635
    *p          21.927   0.635
    *d           0.000   0.635

  LCAO basis set for C:
    Name: dzp
    File: /home/esb/DFT/gpaw-setups-0.8.7929/C.dzp.basis.gz
    Number of radial functions: 5
    Number of spherical harmonics: 13
      l=0, rc=5.5469 Bohr: 2s-sz confined orbital
      l=1, rc=6.6719 Bohr: 2p-sz confined orbital
      l=0, rc=3.0312 Bohr: 2s-dz split-valence wave
      l=1, rc=3.7500 Bohr: 2p-dz split-valence wave
      l=2, rc=6.6719 Bohr: d-type Gaussian polarization

Reference energy: -24663.074771

Spin-paired calculation

Occupation numbers:
  Fermi-Dirac: width=0.1000 eV

Convergence criteria:
  Maximum total energy change: 0.0005 eV / electron
  Maximum integral of absolute density change: 0.0001 electrons
  Maximum integral of absolute eigenstate change: 4e-08 eV^2
  Maximum number of iterations: 99

Symmetries present (total): 1

  ( 1  0  0)
  ( 0  1  0)
  ( 0  0  1)

1 k-point (Gamma)
1 k-point in the irreducible part of the Brillouin zone
       k-points in crystal coordinates                weights
   0:     0.00000000    0.00000000    0.00000000          1/1

Wave functions: LCAO
  Diagonalizer: Serial LAPACK
  Atomic Correction: dense with blas
  Datatype: float
  Eigensolver: None 

LCAO using direct dense diagonalizer 

Densities:
  Coarse grid: 80*80*48 grid
  Fine grid: 160*160*96 grid
  Total Charge: 0.000000 

Density mixing:
  Method: separate
  Backend: pulay
  Linear mixing parameter: 0.05
  Mixing with 5 old densities
  Damping of long wave oscillations: 75 

Hamiltonian:
  XC and Coulomb potentials evaluated on a 160*160*96 grid
  Using the PBE Exchange-Correlation functional
  Interpolation: tri-quintic (5. degree polynomial)
  Poisson solver: Gauss-Seidel solver with 6 multi-grid levels
    Coarsest grid: 5 x 5 x 3 points
    Stencil: 6*3+1=19 point O(h^6) finite-difference Laplacian
    Max iterations: 1000
    Tolerance: 1.000000e-07 

Memory estimate:
  Process memory now: 79.56 MiB
  Calculator: 15.59 MiB
    Density: 6.13 MiB
      Arrays: 3.81 MiB
      Localized functions: 0.86 MiB
      Mixer: 1.46 MiB
    Hamiltonian: 5.40 MiB
      Arrays: 2.49 MiB
      XC: 0.00 MiB
      Poisson: 2.85 MiB
      vbar: 0.07 MiB
    Wavefunctions: 4.05 MiB
      C [qnM]: 0.23 MiB
      S, T [2 x qmm]: 1.49 MiB
      P [aqMi]: 0.01 MiB
      TCI: 0.00 MiB
      BasisFunctions: 2.33 MiB
      Eigensolver: 0.00 MiB

Total number of cores used: 16
Domain decomposition: 2 x 4 x 2

Number of atoms: 24
Number of atomic orbitals: 312
Number of bands in calculation: 98
Bands to converge: occupied states only
Number of valence electrons: 96

... initialized

Initializing position-dependent things.

Density initialized from atomic densities
           .--------------------------------------.  
          /|                                      |  
         / |                                      |  
        /  |                                      |  
       /   |                                      |  
      /    |                                      |  
     /     |                                      |  
    /      |                 C                    |  
   /       |          C        C                  |  
  /        |      C     C                         |  
 *         |  C      C    C   C  C                |  
 |         |    C  C            C                 |  
 |         .----------C--C-----C------------------.  
 |        /    C            C                    /   
 |       /       C  C     C                     /    
 |      /              C                       /     
 |     /                                      /      
 |    /                                      /       
 |   /                                      /        
 |  /                                      /         
 | /                                      /          
 |/                                      /           
 *--------------------------------------*            

Positions:
   0 C      9.799762    9.063655    6.756290
   1 C      8.840903    9.566706    7.392013
   2 C      5.991744   10.012670    6.296697
   3 C      7.153159    9.476422    6.310743
   4 C      4.696028    9.434889    6.265489
   5 C      7.430763    8.070011    6.240706
   6 C      4.943852    8.023854    6.489085
   7 C      6.190631    7.387407    6.401922
   8 C      8.536587    7.201613    5.862819
   9 C     10.734691    5.529216    5.162138
  10 C     11.038655    6.785276    5.277637
  11 C     11.080323    8.220092    5.407091
  12 C      9.854505    7.679203    5.669321
  13 C      9.255071    3.886307    4.346313
  14 C      9.564880    5.142666    4.880196
  15 C      8.159939    3.277575    4.418648
  16 C      8.409757    5.753245    5.621567
  17 C      6.989294    3.696174    5.058286
  18 C      7.146232    5.035173    5.719325
  19 C      5.708739    3.158161    5.223853
  20 C      3.775784    5.574255    7.298115
  21 C      4.726908    4.880772    6.543396
  22 C      6.031018    5.618635    6.452140
  23 C      4.748184    3.663144    5.855929

Unit cell:
           periodic     x           y           z      points  spacing
  1. axis:    yes   16.000000    0.000000    0.000000    80     0.2000
  2. axis:    yes    0.000000   16.000000    0.000000    80     0.2000
  3. axis:    yes    0.000000    0.000000   10.000000    48     0.2083

Effective grid spacing dv^(1/3) = 0.2027

                     log10-error:    total        iterations:
           time      wfs    density  energy       fermi  poisson
iter:   1  12:02:22          +inf  -176.053912    3      6      
iter:   2  12:02:22         -0.90  -174.989290    4      3      
iter:   3  12:02:23         -0.94  -173.228682    33     3      
iter:   4  12:02:24         -1.06  -172.269819    4      3      
iter:   5  12:02:24         -1.17  -172.013510    34     3      
iter:   6  12:02:25         -1.39  -171.778650    4      3      
iter:   7  12:02:26         -1.59  -171.737327    4      3      
iter:   8  12:02:26         -1.72  -171.707999    3      2      
iter:   9  12:02:27         -1.81  -171.676972    4      3      
iter:  10  12:02:28         -2.03  -171.671535    3      2      
iter:  11  12:02:28         -2.14  -171.661140    4      2      
iter:  12  12:02:29         -2.31  -171.651824    3      2      
iter:  13  12:02:29         -2.55  -171.649655    3      2      
iter:  14  12:02:30         -2.79  -171.649901    2      2      
iter:  15  12:02:31         -2.90  -171.650226    2      1      
iter:  16  12:02:31         -2.95  -171.651286    2      2      
iter:  17  12:02:32         -3.23  -171.654836    2      1      
iter:  18  12:02:33         -3.36  -171.663028    3      1      
iter:  19  12:02:33         -3.82  -171.652297    2      1      
iter:  20  12:02:34         -3.89  -171.650141    2      1      
iter:  21  12:02:34         -3.92  -171.650210    2      1      
iter:  22  12:02:35         -4.02  -171.649204    2      1      

Converged after 22 iterations.

Dipole moment: (0.243170, -0.794704, -0.480595) |e|*Ang

Energy contributions relative to reference atoms: (reference = -24663.074771)

Kinetic:       +116.473776
Potential:     -119.687710
External:        +0.000000
XC:            -171.241056
Entropy (-ST):   -0.330721
Local:           +2.971148
--------------------------
Free energy:   -171.814565
Extrapolated:  -171.649204

Fermi level: -4.52436

 Band  Eigenvalues  Occupancy
    0    -24.36119    2.00000
    1    -22.69242    2.00000
    2    -21.96899    2.00000
    3    -21.75584    2.00000
    4    -20.55396    2.00000
    5    -20.54077    2.00000
    6    -19.43672    2.00000
    7    -19.20526    2.00000
    8    -18.46750    2.00000
    9    -18.24066    2.00000
   10    -17.82710    2.00000
   11    -17.59943    2.00000
   12    -16.37612    2.00000
   13    -16.18668    2.00000
   14    -15.30150    2.00000
   15    -14.64736    2.00000
   16    -14.10566    2.00000
   17    -13.96391    2.00000
   18    -13.16825    2.00000
   19    -12.85980    2.00000
   20    -12.66121    2.00000
   21    -12.56267    2.00000
   22    -11.92344    2.00000
   23    -11.32247    2.00000
   24    -11.21786    2.00000
   25    -10.99445    2.00000
   26    -10.61528    2.00000
   27    -10.34121    2.00000
   28    -10.06837    2.00000
   29     -9.82407    2.00000
   30     -9.45966    2.00000
   31     -9.04687    2.00000
   32     -8.40258    2.00000
   33     -8.10628    2.00000
   34     -8.03939    2.00000
   35     -7.48337    2.00000
   36     -7.38405    2.00000
   37     -6.97591    2.00000
   38     -6.85698    2.00000
   39     -6.75617    2.00000
   40     -6.61271    2.00000
   41     -6.47945    2.00000
   42     -6.37480    2.00000
   43     -6.15940    2.00000
   44     -5.66957    1.99998
   45     -5.45342    1.99982
   46     -4.75487    1.81859
   47     -4.60249    1.37192
   48     -4.48210    0.79177
   49     -4.04179    0.01591
   50     -3.82226    0.00178
   51     -3.58269    0.00016
   52     -3.47457    0.00006
   53     -3.27102    0.00001
   54     -2.89927    0.00000
   55     -2.43824    0.00000
   56     -1.68459    0.00000
   57     -1.66956    0.00000
   58     -1.00460    0.00000
   59     -0.85865    0.00000
   60     -0.42087    0.00000
   61      0.34359    0.00000
   62      0.85810    0.00000
   63      1.11834    0.00000
   64      1.73007    0.00000
   65      1.89808    0.00000
   66      2.51003    0.00000
   67      2.70395    0.00000
   68      3.38923    0.00000
   69      3.94179    0.00000
   70      4.20952    0.00000
   71      4.97201    0.00000
   72      5.26574    0.00000
   73      5.31685    0.00000
   74      6.13933    0.00000
   75      6.61184    0.00000
   76      6.83022    0.00000
   77      6.94789    0.00000
   78      7.35356    0.00000
   79      7.48258    0.00000
   80      7.88045    0.00000
   81      8.18183    0.00000
   82      8.27169    0.00000
   83      8.72500    0.00000
   84      8.79725    0.00000
   85      8.87668    0.00000
   86      9.03801    0.00000
   87      9.20110    0.00000
   88      9.22987    0.00000
   89      9.38870    0.00000
   90      9.43123    0.00000
   91      9.46187    0.00000
   92      9.65670    0.00000
   93      9.74871    0.00000
   94     10.02327    0.00000
   95     10.07640    0.00000
   96     10.16011    0.00000
   97     10.33245    0.00000


Forces in eV/Ang:
  0 C     4.03261   -2.21017   -1.47909
  1 C    -3.76426    2.36689   -0.00088
  2 C    -4.33822   -0.59074    0.21470
  3 C     5.63973   -0.81449    1.32453
  4 C     2.86541   -2.35401    0.73932
  5 C    -1.67332   -1.53538   -0.59241
  6 C    -0.95501    2.77476   -0.19368
  7 C    -2.33978   -5.19141    0.60449
  8 C    -0.58508   -2.05726   -0.12870
  9 C     7.82236    2.98428    0.46052
 10 C     1.55843    1.54395    1.41508
 11 C     2.97683    0.95052   -1.55234
 12 C    -3.74776    2.29868    2.24388
 13 C    -0.49149   -0.45750   -0.16640
 14 C    -6.59765   -4.40416   -0.21210
 15 C    -0.74190   -0.15634   -0.00533
 16 C    -1.09914    1.52373   -1.42986
 17 C     0.40196   -0.44595   -0.30721
 18 C    -0.60497    0.30794    0.85707
 19 C    -0.24508   -0.21762    0.09576
 20 C     0.09468    0.54750   -0.42998
 21 C    -0.12829    2.44154    1.13583
 22 C     1.72408    3.40114   -2.55633
 23 C     0.19618   -0.71830   -0.09589

System changes: positions 

Initializing position-dependent things.

Density initialized from wave functions
           .--------------------------------------.  
          /|                                      |  
         / |                                      |  
        /  |                                      |  
       /   |                                      |  
      /    |                                      |  
     /     |                                      |  
    /      |                C                     |  
   /       |          C C      C                  |  
  /        |      C     C                         |  
 *         |  C      C    C   C  C                |  
 |         |    C  C            C                 |  
 |         .----------C--C-----C------------------.  
 |        /    C           C                     /   
 |       /       C  C     C                     /    
 |      /              C                       /     
 |     /                                      /      
 |    /                                      /       
 |   /                                      /        
 |  /                                      /         
 | /                                      /          
 |/                                      /           
 *--------------------------------------*            

Positions:
   0 C      9.818999    9.053112    6.749234
   1 C      8.822946    9.577997    7.392008
   2 C      5.971049   10.009852    6.297721
   3 C      7.180063    9.472536    6.317062
   4 C      4.709698    9.423659    6.269016
   5 C      7.422780    8.062687    6.237880
   6 C      4.939296    8.037091    6.488161
   7 C      6.179470    7.362641    6.404806
   8 C      8.533796    7.191799    5.862205
   9 C     10.772008    5.543452    5.164335
  10 C     11.046090    6.792642    5.284387
  11 C     11.094523    8.224626    5.399686
  12 C      9.836627    7.690169    5.680025
  13 C      9.252726    3.884125    4.345519
  14 C      9.533406    5.121656    4.879184
  15 C      8.156400    3.276829    4.418622
  16 C      8.404514    5.760514    5.614746
  17 C      6.991212    3.694046    5.056820
  18 C      7.143346    5.036642    5.723414
  19 C      5.707570    3.157123    5.224310
  20 C      3.776236    5.576867    7.296063
  21 C      4.726296    4.892419    6.548815
  22 C      6.039243    5.634860    6.439946
  23 C      4.749120    3.659718    5.855472

Unit cell:
           periodic     x           y           z      points  spacing
  1. axis:    yes   16.000000    0.000000    0.000000    80     0.2000
  2. axis:    yes    0.000000   16.000000    0.000000    80     0.2000
  3. axis:    yes    0.000000    0.000000   10.000000    48     0.2083

Effective grid spacing dv^(1/3) = 0.2027

                     log10-error:    total        iterations:
           time      wfs    density  energy       fermi  poisson
iter:   1  12:02:37          +inf  -173.513138    3      5      
iter:   2  12:02:38         -1.63  -173.176882    3      2      
iter:   3  12:02:38         -1.92  -173.104085    3      2      
iter:   4  12:02:39         -2.15  -173.095632    2      2      
iter:   5  12:02:40         -2.24  -173.087147    2      2      
iter:   6  12:02:40         -2.42  -173.086595    3      2      
iter:   7  12:02:41         -2.60  -173.083148    3      2      
iter:   8  12:02:41         -2.72  -173.082492    2      2      
iter:   9  12:02:42         -2.83  -173.082356    3      2      
iter:  10  12:02:43         -3.18  -173.082583    2      1      
iter:  11  12:02:43         -3.28  -173.082510    2      1      
iter:  12  12:02:44         -3.44  -173.081162    2      1      
iter:  13  12:02:45         -3.60  -173.080699    2      1      
iter:  14  12:02:45         -3.76  -173.081272    2      1      
iter:  15  12:02:46         -3.82  -173.081468    2      1      
iter:  16  12:02:46         -3.88  -173.081337    2      1      
iter:  17  12:02:47         -3.97  -173.081706    2      1      
iter:  18  12:02:48         -4.08  -173.081748    2      1      

Converged after 18 iterations.

Dipole moment: (0.175166, -0.687893, -0.458208) |e|*Ang

Energy contributions relative to reference atoms: (reference = -24663.074771)

Kinetic:       +105.483207
Potential:     -111.636109
External:        +0.000000
XC:            -169.687419
Entropy (-ST):   -0.307315
Local:           +2.912231
--------------------------
Free energy:   -173.235405
Extrapolated:  -173.081748

Fermi level: -4.50218

 Band  Eigenvalues  Occupancy
    0    -24.10708    2.00000
    1    -22.63930    2.00000
    2    -21.92978    2.00000
    3    -21.57362    2.00000
    4    -20.58267    2.00000
    5    -20.34822    2.00000
    6    -19.41989    2.00000
    7    -19.19616    2.00000
    8    -18.51838    2.00000
    9    -18.20836    2.00000
   10    -17.74562    2.00000
   11    -17.58670    2.00000
   12    -16.40665    2.00000
   13    -16.04678    2.00000
   14    -15.27815    2.00000
   15    -14.63913    2.00000
   16    -14.03976    2.00000
   17    -13.95701    2.00000
   18    -13.11234    2.00000
   19    -12.79871    2.00000
   20    -12.62346    2.00000
   21    -12.53358    2.00000
   22    -11.85673    2.00000
   23    -11.33486    2.00000
   24    -11.14353    2.00000
   25    -10.98452    2.00000
   26    -10.55583    2.00000
   27    -10.36725    2.00000
   28    -10.04834    2.00000
   29     -9.81262    2.00000
   30     -9.48847    2.00000
   31     -8.99488    2.00000
   32     -8.40496    2.00000
   33     -8.14187    2.00000
   34     -8.05175    2.00000
   35     -7.56166    2.00000
   36     -7.33335    2.00000
   37     -7.00791    2.00000
   38     -6.87024    2.00000
   39     -6.76880    2.00000
   40     -6.63681    2.00000
   41     -6.48426    2.00000
   42     -6.38391    2.00000
   43     -6.13145    2.00000
   44     -5.68231    1.99999
   45     -5.43609    1.99982
   46     -4.78626    1.88969
   47     -4.58010    1.37102
   48     -4.44587    0.72568
   49     -3.99025    0.01189
   50     -3.79463    0.00169
   51     -3.56596    0.00017
   52     -3.43133    0.00004
   53     -3.31209    0.00001
   54     -2.84263    0.00000
   55     -2.50231    0.00000
   56     -1.66398    0.00000
   57     -1.63247    0.00000
   58     -1.01141    0.00000
   59     -0.76855    0.00000
   60     -0.55693    0.00000
   61      0.36809    0.00000
   62      0.86805    0.00000
   63      1.13036    0.00000
   64      1.76891    0.00000
   65      1.98370    0.00000
   66      2.57303    0.00000
   67      2.71442    0.00000
   68      3.34174    0.00000
   69      4.02615    0.00000
   70      4.13383    0.00000
   71      5.06666    0.00000
   72      5.28232    0.00000
   73      5.34623    0.00000
   74      6.16136    0.00000
   75      6.62422    0.00000
   76      6.85221    0.00000
   77      7.04224    0.00000
   78      7.41397    0.00000
   79      7.56818    0.00000
   80      7.94469    0.00000
   81      8.15628    0.00000
   82      8.39081    0.00000
   83      8.73070    0.00000
   84      8.87441    0.00000
   85      8.96150    0.00000
   86      9.09053    0.00000
   87      9.15815    0.00000
   88      9.24088    0.00000
   89      9.38594    0.00000
   90      9.47118    0.00000
   91      9.48906    0.00000
   92      9.65384    0.00000
   93      9.74580    0.00000
   94      9.98571    0.00000
   95     10.10752    0.00000
   96     10.18307    0.00000
   97     10.31048    0.00000


Forces in eV/Ang:
  0 C     1.98659   -1.48868   -0.52832
  1 C    -1.87793    1.24850   -1.53968
  2 C    -1.55150   -1.31351    0.29399
  3 C     3.61592    0.13840    1.49489
  4 C     2.29538   -2.12816    0.63351
  5 C    -1.80406   -1.72534   -0.53581
  6 C    -0.56531    1.92679   -0.10877
  7 C    -2.30772   -4.60642    0.48577
  8 C    -0.82864   -1.56380   -0.03542
  9 C     3.27920    0.62534   -0.65259
 10 C     1.40426    2.08058    1.55268
 11 C     1.98689    0.76762   -1.26664
 12 C    -2.56617    2.93724    2.19492
 13 C    -0.52310   -0.76017   -0.25108
 14 C    -1.64083   -1.95109    0.96155
 15 C    -0.91223   -0.24065   -0.02470
 16 C    -1.10914    0.79182   -1.43087
 17 C     0.29473   -0.41708   -0.20912
 18 C    -0.35450    0.31468    0.55611
 19 C    -0.16367   -0.20711    0.07715
 20 C    -0.00318    0.56527   -0.32900
 21 C     0.14682    1.90514    0.72417
 22 C     1.11678    3.30535   -2.29714
 23 C     0.04832   -0.20784    0.24155

System changes: positions 

Initializing position-dependent things.

Density initialized from wave functions
           .--------------------------------------.  
          /|                                      |  
         / |                                      |  
        /  |                                      |  
       /   |                                      |  
      /    |                                      |  
     /     |                                      |  
    /      |                C                     |  
   /       |          C C      C                  |  
  /        |      C     C                         |  
 *         |  C      C    C   C  C                |  
 |         |    C  C            C                 |  
 |         .----------C--C-----C------------------.  
 |        /    C           C                     /   
 |       /       C  C     C                     /    
 |      /              C                       /     
 |     /                                      /      
 |    /                                      /       
 |   /                                      /        
 |  /                                      /         
 | /                                      /          
 |/                                      /           
 *--------------------------------------*            

Positions:
   0 C      9.831018    9.042631    6.746777
   1 C      8.811498    9.585855    7.377018
   2 C      5.963822    9.998135    6.300194
   3 C      7.205027    9.475364    6.329212
   4 C      4.726843    9.407213    6.273841
   5 C      7.408253    8.048676    6.233739
   6 C      4.935526    8.050812    6.487454
   7 C      6.161249    7.327218    6.408438
   8 C      8.526790    7.180309    5.862094
   9 C     10.789728    5.544120    5.157144
  10 C     11.056932    6.810096    5.296935
  11 C     11.108463    8.230374    5.390172
  12 C      9.818448    7.714594    5.697321
  13 C      9.248525    3.877554    4.343377
  14 C      9.529414    5.110659    4.888932
  15 C      8.148865    3.274770    4.418392
  16 C      8.395711    5.765456    5.603410
  17 C      6.993351    3.690795    5.055342
  18 C      7.140993    5.039146    5.727272
  19 C      5.706421    3.155501    5.224887
  20 C      3.776033    5.581376    7.293641
  21 C      4.727959    4.906534    6.553803
  22 C      6.046985    5.660867    6.422221
  23 C      4.749234    3.658999    5.857998

Unit cell:
           periodic     x           y           z      points  spacing
  1. axis:    yes   16.000000    0.000000    0.000000    80     0.2000
  2. axis:    yes    0.000000   16.000000    0.000000    80     0.2000
  3. axis:    yes    0.000000    0.000000   10.000000    48     0.2083

Effective grid spacing dv^(1/3) = 0.2027

                     log10-error:    total        iterations:
           time      wfs    density  energy       fermi  poisson
iter:   1  12:02:50          +inf  -174.635619    3      5      
iter:   2  12:02:50         -1.66  -174.319394    3      2      
iter:   3  12:02:51         -1.92  -174.223757    3      2      
iter:   4  12:02:52         -2.20  -174.213230    3      2      
iter:   5  12:02:52         -2.30  -174.205502    2      2      
iter:   6  12:02:53         -2.49  -174.201408    2      2      
iter:   7  12:02:53         -2.67  -174.202167    2      2      
iter:   8  12:02:54         -2.75  -174.201464    2      2      
iter:   9  12:02:55         -2.90  -174.201196    2      2      
iter:  10  12:02:55         -3.18  -174.201315    2      1      
iter:  11  12:02:56         -3.37  -174.201328    2      1      
iter:  12  12:02:57         -3.54  -174.201409    2      1      
iter:  13  12:02:57         -3.69  -174.201464    2      1      
iter:  14  12:02:58         -3.79  -174.201356    2      1      
iter:  15  12:02:58         -3.87  -174.201282    2      1      
iter:  16  12:02:59         -3.93  -174.201080    2      1      
iter:  17  12:03:00         -4.27  -174.201177    2      1      

Converged after 17 iterations.

Dipole moment: (0.096203, -0.587474, -0.434481) |e|*Ang

Energy contributions relative to reference atoms: (reference = -24663.074771)

Kinetic:        +99.191719
Potential:     -107.128952
External:        +0.000000
XC:            -169.050723
Entropy (-ST):   -0.286496
Local:           +2.930027
--------------------------
Free energy:   -174.344425
Extrapolated:  -174.201177

Fermi level: -4.46960

 Band  Eigenvalues  Occupancy
    0    -23.86991    2.00000
    1    -22.60368    2.00000
    2    -21.92140    2.00000
    3    -21.44895    2.00000
    4    -20.64540    2.00000
    5    -20.22690    2.00000
    6    -19.44350    2.00000
    7    -19.15811    2.00000
    8    -18.55759    2.00000
    9    -18.21411    2.00000
   10    -17.73008    2.00000
   11    -17.50760    2.00000
   12    -16.41122    2.00000
   13    -15.95816    2.00000
   14    -15.27938    2.00000
   15    -14.67303    2.00000
   16    -14.00650    2.00000
   17    -13.96436    2.00000
   18    -13.08726    2.00000
   19    -12.80167    2.00000
   20    -12.63501    2.00000
   21    -12.42623    2.00000
   22    -11.79866    2.00000
   23    -11.38227    2.00000
   24    -11.08356    2.00000
   25    -10.96628    2.00000
   26    -10.49383    2.00000
   27    -10.43087    2.00000
   28    -10.04022    2.00000
   29     -9.79441    2.00000
   30     -9.58656    2.00000
   31     -8.97051    2.00000
   32     -8.49377    2.00000
   33     -8.24817    2.00000
   34     -8.02780    2.00000
   35     -7.68227    2.00000
   36     -7.29362    2.00000
   37     -7.02334    2.00000
   38     -6.89498    2.00000
   39     -6.76406    2.00000
   40     -6.67114    2.00000
   41     -6.45119    2.00000
   42     -6.38435    2.00000
   43     -6.10179    2.00000
   44     -5.67749    1.99999
   45     -5.40411    1.99983
   46     -4.80259    1.93088
   47     -4.55659    1.40945
   48     -4.39557    0.64585
   49     -3.95597    0.01169
   50     -3.78190    0.00206
   51     -3.53620    0.00018
   52     -3.42865    0.00006
   53     -3.31551    0.00002
   54     -2.79465    0.00000
   55     -2.51235    0.00000
   56     -1.60696    0.00000
   57     -1.58917    0.00000
   58     -1.00782    0.00000
   59     -0.68556    0.00000
   60     -0.57858    0.00000
   61      0.40852    0.00000
   62      0.88642    0.00000
   63      1.13063    0.00000
   64      1.80204    0.00000
   65      2.24581    0.00000
   66      2.59078    0.00000
   67      2.95783    0.00000
   68      3.30843    0.00000
   69      4.00793    0.00000
   70      4.13451    0.00000
   71      5.10237    0.00000
   72      5.34010    0.00000
   73      5.42585    0.00000
   74      6.12543    0.00000
   75      6.60093    0.00000
   76      6.87230    0.00000
   77      7.04499    0.00000
   78      7.47497    0.00000
   79      7.65556    0.00000
   80      7.97074    0.00000
   81      8.19269    0.00000
   82      8.42323    0.00000
   83      8.73394    0.00000
   84      8.91876    0.00000
   85      8.99545    0.00000
   86      9.09661    0.00000
   87      9.14680    0.00000
   88      9.26432    0.00000
   89      9.39244    0.00000
   90      9.47988    0.00000
   91      9.53421    0.00000
   92      9.66466    0.00000
   93      9.74043    0.00000
   94      9.96388    0.00000
   95     10.12086    0.00000
   96     10.19769    0.00000
   97     10.29240    0.00000


Forces in eV/Ang:
  0 C     0.81000   -1.44254   -0.36388
  1 C    -1.28673    0.80869   -2.19520
  2 C     0.04706   -1.27016    0.38177
  3 C     2.71710    0.08103    1.58981
  4 C     1.70052   -1.80603    0.47625
  5 C    -1.84122   -1.60866   -0.37495
  6 C    -0.29429    0.93887    0.00774
  7 C    -1.94689   -3.77656    0.28217
  8 C    -0.95385   -1.03348   -0.03921
  9 C     2.58616    1.14332   -0.74539
 10 C     0.78954    1.03378    1.40815
 11 C     1.56445    0.53319   -1.24152
 12 C    -1.70056    3.39185    2.49477
 13 C    -0.44608   -0.62593   -0.10063
 14 C    -0.61398   -1.36344    1.03211
 15 C    -0.66405   -0.26995   -0.15553
 16 C    -0.89416    0.31719   -1.38958
 17 C    -0.06895   -0.24618    0.03610
 18 C    -0.12441    0.25356    0.19960
 19 C    -0.20433   -0.10126    0.14208
 20 C    -0.07296    0.56727   -0.25751
 21 C     0.31639    1.48973    0.38335
 22 C     0.48761    2.94750   -2.01074
 23 C     0.07663    0.15704    0.44780

System changes: positions 

Initializing position-dependent things.

Density initialized from wave functions
           .--------------------------------------.  
          /|                                      |  
         / |                                      |  
        /  |                                      |  
       /   |                                      |  
      /    |                                      |  
     /     |                                      |  
    /      |                C                     |  
   /       |          C  C     C                  |  
  /        |      C                               |  
 *         |  C      C  C C   C  C                |  
 |         |    C  C            C                 |  
 |         .----------C--C-----C------------------.  
 |        /    C           C                     /   
 |       /       C  C     C                     /    
 |      /              C                       /     
 |     /                                      /      
 |    /                                      /       
 |   /                                      /        
 |  /                                      /         
 | /                                      /          
 |/                                      /           
 *--------------------------------------*            

Positions:
   0 C      9.835551    9.030501    6.744361
   1 C      8.802052    9.591758    7.356128
   2 C      5.967714    9.986614    6.303681
   3 C      7.226573    9.476602    6.343339
   4 C      4.740725    9.391896    6.277773
   5 C      7.392013    8.034603    6.230668
   6 C      4.933489    8.057424    6.487702
   7 C      6.144621    7.295429    6.410611
   8 C      8.518152    7.172149    5.861805
   9 C     10.808788    5.553231    5.149826
  10 C     11.063075    6.818333    5.309190
  11 C     11.121081    8.234672    5.379508
  12 C      9.805242    7.745181    5.719459
  13 C      9.244685    3.872033    4.342608
  14 C      9.528241    5.100889    4.898774
  15 C      8.143218    3.272322    4.416875
  16 C      8.388112    5.767259    5.591290
  17 C      6.992283    3.688845    5.055988
  18 C      7.140311    5.041303    5.728442
  19 C      5.704639    3.154737    5.226191
  20 C      3.775257    5.586355    7.291528
  21 C      4.731085    4.918788    6.556530
  22 C      6.050188    5.686219    6.405093
  23 C      4.749844    3.661090    5.862354

Unit cell:
           periodic     x           y           z      points  spacing
  1. axis:    yes   16.000000    0.000000    0.000000    80     0.2000
  2. axis:    yes    0.000000   16.000000    0.000000    80     0.2000
  3. axis:    yes    0.000000    0.000000   10.000000    48     0.2083

Effective grid spacing dv^(1/3) = 0.2027

                     log10-error:    total        iterations:
           time      wfs    density  energy       fermi  poisson
iter:   1  12:03:02          +inf  -175.331420    4      5      
iter:   2  12:03:02         -1.83  -175.196969    3      2      
iter:   3  12:03:03         -2.04  -175.142565    3      2      
iter:   4  12:03:04         -2.30  -175.137587    2      2      
iter:   5  12:03:04         -2.41  -175.132734    2      2      
iter:   6  12:03:05         -2.56  -175.130008    2      2      
iter:   7  12:03:05         -2.74  -175.129603    2      2      
iter:   8  12:03:06         -2.84  -175.129313    2      2      
iter:   9  12:03:07         -3.06  -175.129816    2      2      
iter:  10  12:03:07         -3.26  -175.129788    2      1      
iter:  11  12:03:08         -3.41  -175.129952    2      1      
iter:  12  12:03:09         -3.52  -175.130103    2      1      
iter:  13  12:03:09         -3.75  -175.129990    2      1      
iter:  14  12:03:10         -3.86  -175.129892    2      1      
iter:  15  12:03:10         -3.97  -175.129880    2      1      
iter:  16  12:03:11         -4.10  -175.129822    1      1      

Converged after 16 iterations.

Dipole moment: (0.044236, -0.510649, -0.406594) |e|*Ang

Energy contributions relative to reference atoms: (reference = -24663.074771)

Kinetic:        +95.960343
Potential:     -104.935109
External:        +0.000000
XC:            -168.951275
Entropy (-ST):   -0.269301
Local:           +2.930869
--------------------------
Free energy:   -175.264473
Extrapolated:  -175.129822

Fermi level: -4.43989

 Band  Eigenvalues  Occupancy
    0    -23.64740    2.00000
    1    -22.56930    2.00000
    2    -21.92921    2.00000
    3    -21.35304    2.00000
    4    -20.67055    2.00000
    5    -20.15736    2.00000
    6    -19.45485    2.00000
    7    -19.14886    2.00000
    8    -18.57200    2.00000
    9    -18.23533    2.00000
   10    -17.74913    2.00000
   11    -17.44868    2.00000
   12    -16.39883    2.00000
   13    -15.91116    2.00000
   14    -15.27274    2.00000
   15    -14.70796    2.00000
   16    -14.06462    2.00000
   17    -13.91620    2.00000
   18    -13.09485    2.00000
   19    -12.79005    2.00000
   20    -12.63278    2.00000
   21    -12.35000    2.00000
   22    -11.75292    2.00000
   23    -11.40534    2.00000
   24    -11.06324    2.00000
   25    -10.93245    2.00000
   26    -10.50271    2.00000
   27    -10.41441    2.00000
   28    -10.03015    2.00000
   29     -9.74820    2.00000
   30     -9.66240    2.00000
   31     -8.96730    2.00000
   32     -8.60646    2.00000
   33     -8.28780    2.00000
   34     -8.01728    2.00000
   35     -7.77293    2.00000
   36     -7.27114    2.00000
   37     -7.02590    2.00000
   38     -6.95598    2.00000
   39     -6.74726    2.00000
   40     -6.70712    2.00000
   41     -6.42488    2.00000
   42     -6.38074    2.00000
   43     -6.07456    2.00000
   44     -5.68787    1.99999
   45     -5.40407    1.99987
   46     -4.82574    1.95867
   47     -4.53430    1.43985
   48     -4.35209    0.58717
   49     -3.92780    0.01187
   50     -3.76285    0.00229
   51     -3.51104    0.00018
   52     -3.42729    0.00008
   53     -3.30745    0.00002
   54     -2.75734    0.00000
   55     -2.51088    0.00000
   56     -1.58204    0.00000
   57     -1.56309    0.00000
   58     -1.01041    0.00000
   59     -0.60825    0.00000
   60     -0.49415    0.00000
   61      0.48471    0.00000
   62      0.89868    0.00000
   63      1.14579    0.00000
   64      1.89823    0.00000
   65      2.38113    0.00000
   66      2.63023    0.00000
   67      3.27520    0.00000
   68      3.36378    0.00000
   69      3.92124    0.00000
   70      4.24618    0.00000
   71      5.18462    0.00000
   72      5.42017    0.00000
   73      5.52972    0.00000
   74      6.06129    0.00000
   75      6.62032    0.00000
   76      6.89362    0.00000
   77      7.04587    0.00000
   78      7.50533    0.00000
   79      7.75213    0.00000
   80      8.01149    0.00000
   81      8.26998    0.00000
   82      8.42333    0.00000
   83      8.72712    0.00000
   84      8.94721    0.00000
   85      9.00052    0.00000
   86      9.06862    0.00000
   87      9.17967    0.00000
   88      9.26623    0.00000
   89      9.40314    0.00000
   90      9.49247    0.00000
   91      9.56403    0.00000
   92      9.67421    0.00000
   93      9.74934    0.00000
   94      9.93258    0.00000
   95     10.11649    0.00000
   96     10.20428    0.00000
   97     10.27203    0.00000


Forces in eV/Ang:
  0 C     0.05511   -1.54948   -0.39798
  1 C    -1.09639    0.58553   -2.51625
  2 C     0.72864   -1.11667    0.46612
  3 C     2.24405   -0.15355    1.64424
  4 C     1.44514   -1.43376    0.34119
  5 C    -1.65836   -1.51402   -0.27514
  6 C    -0.19470    0.15490    0.13305
  7 C    -1.66212   -2.93369    0.11629
  8 C    -0.86466   -0.59355   -0.06983
  9 C     1.62519    0.68924   -0.91495
 10 C     0.70683    1.10986    1.32163
 11 C     1.27234    0.10753   -1.28434
 12 C    -1.33074    3.68730    2.77312
 13 C    -0.31048   -0.46013    0.02293
 14 C     0.29829   -0.89726    1.04445
 15 C    -0.62121   -0.29250   -0.17762
 16 C    -0.59794    0.08214   -1.25770
 17 C    -0.14889   -0.12472    0.13590
 18 C    -0.09382    0.23428   -0.03506
 19 C    -0.31703   -0.02996    0.22466
 20 C    -0.07746    0.54073   -0.24009
 21 C     0.32452    1.28682    0.19600
 22 C     0.11605    2.36604   -1.78941
 23 C     0.14133    0.33388    0.52485

System changes: positions 

Initializing position-dependent things.

Density initialized from wave functions
           .--------------------------------------.  
          /|                                      |  
         / |                                      |  
        /  |                                      |  
       /   |                                      |  
      /    |                                      |  
     /     |                                      |  
    /      |                C                     |  
   /       |          C  C     C                  |  
  /        |      C                               |  
 *         |  C     C   C C   C  C                |  
 |         |    C  C            C                 |  
 |         .----------C--C-----C------------------.  
 |        /    C           C                     /   
 |       /       C  C     C                     /    
 |      /              C                       /     
 |     /                                      /      
 |    /                                      /       
 |   /                                      /        
 |  /                                      /         
 | /                                      /          
 |/                                      /           
 *--------------------------------------*            

Positions:
   0 C      9.836136    9.017283    6.740659
   1 C      8.792392    9.596842    7.335606
   2 C      5.973099    9.977765    6.307594
   3 C      7.245541    9.474756    6.356941
   4 C      4.752802    9.380308    6.280521
   5 C      7.378582    8.022189    6.228431
   6 C      4.931767    8.058355    6.488895
   7 C      6.131058    7.271711    6.411480
   8 C      8.511243    7.167436    5.861159
   9 C     10.822593    5.558753    5.142382
  10 C     11.069161    6.827986    5.320050
  11 C     11.131714    8.235143    5.368713
  12 C      9.793960    7.775729    5.742686
  13 C      9.242271    3.868473    4.342920
  14 C      9.530022    5.093096    4.907066
  15 C      8.138059    3.269906    4.415442
  16 C      8.383465    5.768060    5.581032
  17 C      6.991148    3.687888    5.057103
  18 C      7.139391    5.043245    5.728089
  19 C      5.701853    3.154533    5.228140
  20 C      3.774672    5.590793    7.289498
  21 C      4.733622    4.929528    6.558182
  22 C      6.051121    5.705222    6.390358
  23 C      4.751134    3.663773    5.866609

Unit cell:
           periodic     x           y           z      points  spacing
  1. axis:    yes   16.000000    0.000000    0.000000    80     0.2000
  2. axis:    yes    0.000000   16.000000    0.000000    80     0.2000
  3. axis:    yes    0.000000    0.000000   10.000000    48     0.2083

Effective grid spacing dv^(1/3) = 0.2027

                     log10-error:    total        iterations:
           time      wfs    density  energy       fermi  poisson
iter:   1  12:03:13          +inf  -175.973729    4      5      
iter:   2  12:03:14         -1.95  -175.905349    3      2      
iter:   3  12:03:14         -2.13  -175.871541    3      2      
iter:   4  12:03:15         -2.40  -175.869090    2      2      
iter:   5  12:03:16         -2.54  -175.866349    2      2      
iter:   6  12:03:16         -2.65  -175.864599    2      2      
iter:   7  12:03:17         -2.81  -175.864250    2      2      
iter:   8  12:03:18         -2.91  -175.864259    2      2      
iter:   9  12:03:18         -3.19  -175.863175    2      1      
iter:  10  12:03:19         -3.33  -175.864025    2      1      
iter:  11  12:03:19         -3.56  -175.864868    2      1      
iter:  12  12:03:20         -3.69  -175.865051    2      1      
iter:  13  12:03:21         -3.88  -175.865105    2      1      
iter:  14  12:03:21         -3.99  -175.864818    2      1      
iter:  15  12:03:22         -4.06  -175.864678    2      1      

Converged after 15 iterations.

Dipole moment: (0.005797, -0.451363, -0.379369) |e|*Ang

Energy contributions relative to reference atoms: (reference = -24663.074771)

Kinetic:        +94.150661
Potential:     -103.785342
External:        +0.000000
XC:            -169.037827
Entropy (-ST):   -0.258829
Local:           +2.937245
--------------------------
Free energy:   -175.994093
Extrapolated:  -175.864678

Fermi level: -4.41887

 Band  Eigenvalues  Occupancy
    0    -23.47522    2.00000
    1    -22.54156    2.00000
    2    -21.94410    2.00000
    3    -21.29216    2.00000
    4    -20.68101    2.00000
    5    -20.12823    2.00000
    6    -19.45873    2.00000
    7    -19.14862    2.00000
    8    -18.57241    2.00000
    9    -18.25174    2.00000
   10    -17.77217    2.00000
   11    -17.39543    2.00000
   12    -16.38408    2.00000
   13    -15.87765    2.00000
   14    -15.26950    2.00000
   15    -14.73098    2.00000
   16    -14.14549    2.00000
   17    -13.87687    2.00000
   18    -13.11453    2.00000
   19    -12.80227    2.00000
   20    -12.61555    2.00000
   21    -12.28909    2.00000
   22    -11.72357    2.00000
   23    -11.42171    2.00000
   24    -11.08037    2.00000
   25    -10.89637    2.00000
   26    -10.55646    2.00000
   27    -10.35548    2.00000
   28    -10.02054    2.00000
   29     -9.72025    2.00000
   30     -9.70546    2.00000
   31     -8.99201    2.00000
   32     -8.68350    2.00000
   33     -8.29973    2.00000
   34     -8.02064    2.00000
   35     -7.83277    2.00000
   36     -7.25859    2.00000
   37     -7.04470    2.00000
   38     -7.00212    2.00000
   39     -6.74335    2.00000
   40     -6.71842    2.00000
   41     -6.41955    2.00000
   42     -6.34555    2.00000
   43     -6.05465    2.00000
   44     -5.68969    1.99999
   45     -5.39235    1.99988
   46     -4.85391    1.97453
   47     -4.51717    1.45544
   48     -4.32314    0.55487
   49     -3.91183    0.01248
   50     -3.74934    0.00247
   51     -3.49766    0.00020
   52     -3.43787    0.00011
   53     -3.30701    0.00003
   54     -2.72318    0.00000
   55     -2.49413    0.00000
   56     -1.57371    0.00000
   57     -1.54449    0.00000
   58     -1.02826    0.00000
   59     -0.57262    0.00000
   60     -0.34527    0.00000
   61      0.56117    0.00000
   62      0.90477    0.00000
   63      1.15613    0.00000
   64      2.01439    0.00000
   65      2.45256    0.00000
   66      2.65446    0.00000
   67      3.31556    0.00000
   68      3.60881    0.00000
   69      3.85431    0.00000
   70      4.38600    0.00000
   71      5.29089    0.00000
   72      5.46827    0.00000
   73      5.64891    0.00000
   74      6.02642    0.00000
   75      6.66864    0.00000
   76      6.91508    0.00000
   77      7.06516    0.00000
   78      7.52282    0.00000
   79      7.83701    0.00000
   80      8.08551    0.00000
   81      8.36025    0.00000
   82      8.42729    0.00000
   83      8.70633    0.00000
   84      8.94359    0.00000
   85      9.00647    0.00000
   86      9.07072    0.00000
   87      9.22813    0.00000
   88      9.26227    0.00000
   89      9.41636    0.00000
   90      9.51156    0.00000
   91      9.59834    0.00000
   92      9.69290    0.00000
   93      9.76247    0.00000
   94      9.90837    0.00000
   95     10.10380    0.00000
   96     10.20552    0.00000
   97     10.25621    0.00000


Forces in eV/Ang:
  0 C    -0.66464   -1.46118   -0.33833
  1 C    -0.95184    0.37239   -2.76436
  2 C     1.12531   -1.04177    0.53326
  3 C     1.90287   -0.28395    1.72130
  4 C     1.30983   -1.10588    0.22037
  5 C    -1.40176   -1.43189   -0.19860
  6 C    -0.18242   -0.37358    0.23462
  7 C    -1.39285   -2.20309   -0.03388
  8 C    -0.78558   -0.34691   -0.09461
  9 C     1.15793    0.69787   -0.93696
 10 C     0.57018    0.74997    1.17003
 11 C     1.08057   -0.17842   -1.30465
 12 C    -1.04068    3.75182    2.87808
 13 C    -0.34803   -0.45863    0.09605
 14 C     0.81329   -0.53941    1.03617
 15 C    -0.45353   -0.24684   -0.19078
 16 C    -0.44132   -0.01248   -1.15395
 17 C    -0.24271   -0.05188    0.20206
 18 C    -0.05397    0.23901   -0.20346
 19 C    -0.28117   -0.01326    0.23175
 20 C    -0.10020    0.53077   -0.21586
 21 C     0.32778    1.11707    0.06343
 22 C    -0.10459    1.78922   -1.60924
 23 C     0.10405    0.50721    0.61948

System changes: positions 

Initializing position-dependent things.

Density initialized from wave functions
           .--------------------------------------.  
          /|                                      |  
         / |                                      |  
        /  |                                      |  
       /   |                                      |  
      /    |                                      |  
     /     |                                      |  
    /      |                C                     |  
   /       |          C  C     C                  |  
  /        |      C                               |  
 *         |  C     C   C C   C  C                |  
 |         |    C  C            C                 |  
 |         .----------C--C-----C------------------.  
 |        /    C           C                     /   
 |       /       C  C     C                     /    
 |      /              C                       /     
 |     /                                      /      
 |    /                                      /       
 |   /                                      /        
 |  /                                      /         
 | /                                      /          
 |/                                      /           
 *--------------------------------------*            

Positions:
   0 C      9.832264    9.004787    6.737148
   1 C      8.782535    9.600943    7.313911
   2 C      5.978837    9.969473    6.312014
   3 C      7.263634    9.471682    6.371329
   4 C      4.764963    9.370999    6.282457
   5 C      7.367533    8.010226    6.226600
   6 C      4.929510    8.056429    6.490822
   7 C      6.119270    7.252914    6.411303
   8 C      8.505165    7.163733    5.860264
   9 C     10.835457    5.565363    5.135349
  10 C     11.074798    6.834798    5.329698
  11 C     11.141759    8.233614    5.357498
  12 C      9.783587    7.806126    5.766528
  13 C      9.239055    3.864474    4.343645
  14 C      9.533062    5.086810    4.914939
  15 C      8.134341    3.268067    4.414054
  16 C      8.379649    5.769085    5.571467
  17 C      6.989596    3.687267    5.058441
  18 C      7.138479    5.045381    5.726849
  19 C      5.699668    3.154237    5.229961
  20 C      3.773950    5.595229    7.287555
  21 C      4.735924    4.939613    6.559295
  22 C      6.051301    5.719701    6.376541
  23 C      4.751911    3.667475    5.871474

Unit cell:
           periodic     x           y           z      points  spacing
  1. axis:    yes   16.000000    0.000000    0.000000    80     0.2000
  2. axis:    yes    0.000000   16.000000    0.000000    80     0.2000
  3. axis:    yes    0.000000    0.000000   10.000000    48     0.2083

Effective grid spacing dv^(1/3) = 0.2027

                     log10-error:    total        iterations:
           time      wfs    density  energy       fermi  poisson
iter:   1  12:03:24          +inf  -176.583020    3      5      
iter:   2  12:03:25         -1.97  -176.532708    3      2      
iter:   3  12:03:25         -2.17  -176.509180    3      2      
iter:   4  12:03:26         -2.41  -176.505662    2      2      
iter:   5  12:03:27         -2.53  -176.503284    2      2      
iter:   6  12:03:27         -2.69  -176.501458    2      2      
iter:   7  12:03:28         -2.87  -176.498391    2      1      
iter:   8  12:03:28         -2.98  -176.501539    2      2      
iter:   9  12:03:29         -3.30  -176.502167    2      1      
iter:  10  12:03:30         -3.38  -176.501179    2      1      
iter:  11  12:03:30         -3.66  -176.502256    2      1      
iter:  12  12:03:31         -3.72  -176.502758    2      1      
iter:  13  12:03:32         -3.84  -176.501893    2      1      
iter:  14  12:03:32         -3.96  -176.501986    2      1      
iter:  15  12:03:33         -4.18  -176.502135    2      1      

Converged after 15 iterations.

Dipole moment: (-0.024547, -0.398292, -0.350787) |e|*Ang

Energy contributions relative to reference atoms: (reference = -24663.074771)

Kinetic:        +93.645779
Potential:     -103.636947
External:        +0.000000
XC:            -169.327701
Entropy (-ST):   -0.253823
Local:           +2.943645
--------------------------
Free energy:   -176.629047
Extrapolated:  -176.502135

Fermi level: -4.39942

 Band  Eigenvalues  Occupancy
    0    -23.32003    2.00000
    1    -22.50503    2.00000
    2    -21.95853    2.00000
    3    -21.24244    2.00000
    4    -20.68557    2.00000
    5    -20.13025    2.00000
    6    -19.44908    2.00000
    7    -19.15854    2.00000
    8    -18.57451    2.00000
    9    -18.26813    2.00000
   10    -17.80225    2.00000
   11    -17.34390    2.00000
   12    -16.37233    2.00000
   13    -15.85968    2.00000
   14    -15.26457    2.00000
   15    -14.74650    2.00000
   16    -14.23298    2.00000
   17    -13.84664    2.00000
   18    -13.13028    2.00000
   19    -12.82288    2.00000
   20    -12.58771    2.00000
   21    -12.24278    2.00000
   22    -11.70041    2.00000
   23    -11.43641    2.00000
   24    -11.10619    2.00000
   25    -10.86389    2.00000
   26    -10.59810    2.00000
   27    -10.29874    2.00000
   28    -10.01892    2.00000
   29     -9.75771    2.00000
   30     -9.66567    2.00000
   31     -9.02932    2.00000
   32     -8.72887    2.00000
   33     -8.30585    2.00000
   34     -8.03330    2.00000
   35     -7.87466    2.00000
   36     -7.24859    2.00000
   37     -7.10701    2.00000
   38     -6.99965    2.00000
   39     -6.76808    2.00000
   40     -6.70654    2.00000
   41     -6.43145    2.00000
   42     -6.30342    2.00000
   43     -6.03575    2.00000
   44     -5.68973    2.00000
   45     -5.38785    1.99990
   46     -4.88550    1.98463
   47     -4.49772    1.45540
   48     -4.30081    0.54335
   49     -3.90237    0.01378
   50     -3.73233    0.00253
   51     -3.49445    0.00023
   52     -3.44431    0.00014
   53     -3.29413    0.00003
   54     -2.69528    0.00000
   55     -2.46839    0.00000
   56     -1.58146    0.00000
   57     -1.51987    0.00000
   58     -1.05065    0.00000
   59     -0.54689    0.00000
   60     -0.19503    0.00000
   61      0.65267    0.00000
   62      0.92571    0.00000
   63      1.17717    0.00000
   64      2.14279    0.00000
   65      2.50782    0.00000
   66      2.67615    0.00000
   67      3.36753    0.00000
   68      3.73852    0.00000
   69      3.83939    0.00000
   70      4.55001    0.00000
   71      5.36499    0.00000
   72      5.49416    0.00000
   73      5.76966    0.00000
   74      6.04482    0.00000
   75      6.73156    0.00000
   76      6.92076    0.00000
   77      7.12961    0.00000
   78      7.53026    0.00000
   79      7.89078    0.00000
   80      8.17363    0.00000
   81      8.42329    0.00000
   82      8.49143    0.00000
   83      8.67600    0.00000
   84      8.92741    0.00000
   85      9.02673    0.00000
   86      9.08700    0.00000
   87      9.25288    0.00000
   88      9.30156    0.00000
   89      9.43203    0.00000
   90      9.53564    0.00000
   91      9.65375    0.00000
   92      9.71874    0.00000
   93      9.78788    0.00000
   94      9.88774    0.00000
   95     10.08620    0.00000
   96     10.20880    0.00000
   97     10.23567    0.00000


Forces in eV/Ang:
  0 C    -1.20992   -1.22428   -0.20233
  1 C    -0.94585    0.24200   -2.89077
  2 C     1.41667   -0.96638    0.61207
  3 C     1.65685   -0.33573    1.73788
  4 C     1.23676   -0.81139    0.13734
  5 C    -1.20101   -1.34257   -0.13039
  6 C    -0.21039   -0.80271    0.32573
  7 C    -1.14282   -1.52826   -0.11608
  8 C    -0.67363   -0.10972   -0.08432
  9 C     0.67658    0.53393   -0.96967
 10 C     0.55876    0.58401    1.02436
 11 C     0.87661   -0.41737   -1.28588
 12 C    -0.72725    3.58723    2.77774
 13 C    -0.21910   -0.32818    0.16959
 14 C     1.18988   -0.28970    0.99863
 15 C    -0.46940   -0.27633   -0.18090
 16 C    -0.26994   -0.08946   -1.03369
 17 C    -0.28399    0.00468    0.23541
 18 C    -0.02615    0.22593   -0.34880
 19 C    -0.33904    0.03514    0.29270
 20 C    -0.14204    0.54433   -0.18878
 21 C     0.34024    0.95318   -0.05571
 22 C    -0.28842    1.26073   -1.46240
 23 C     0.15890    0.58419    0.61193

System changes: positions 

Initializing position-dependent things.

Density initialized from wave functions
           .--------------------------------------.  
          /|                                      |  
         / |                                      |  
        /  |                                      |  
       /   |                                      |  
      /    |                                      |  
     /     |                                      |  
    /      |                C                     |  
   /       |          C  C     C                  |  
  /        |      C                               |  
 *         |  C     C   C C   C  C                |  
 |         |    C  C            C                 |  
 |         .----------C--C-----C------------------.  
 |        /    C           C                     /   
 |       /       C  C     C                     /    
 |      /              C                       /     
 |     /                                      /      
 |    /                                      /       
 |   /                                      /        
 |  /                                      /         
 | /                                      /          
 |/                                      /           
 *--------------------------------------*            

Positions:
   0 C      9.824911    8.993804    6.734617
   1 C      8.770338    9.605128    7.290130
   2 C      5.985436    9.961041    6.317557
   3 C      7.282910    9.468079    6.387065
   4 C      4.778598    9.362969    6.284118
   5 C      7.357104    7.997826    6.225029
   6 C      4.926241    8.051926    6.493613
   7 C      6.108226    7.237305    6.410787
   8 C      8.499708    7.161060    5.859493
   9 C     10.847467    5.571507    5.127795
  10 C     11.081680    6.841330    5.338995
  11 C     11.151570    8.230327    5.345393
  12 C      9.774192    7.836554    5.790733
  13 C      9.237014    3.861490    4.344977
  14 C      9.536936    5.080644    4.922820
  15 C      8.129489    3.265622    4.412789
  16 C      8.376721    5.770231    5.561999
  17 C      6.987911    3.686860    5.059887
  18 C      7.137507    5.047619    5.724619
  19 C      5.696602    3.154328    5.232584
  20 C      3.772735    5.600357    7.285613
  21 C      4.738448    4.949685    6.559863
  22 C      6.050691    5.731306    6.362217
  23 C      4.753484    3.671561    5.876217

Unit cell:
           periodic     x           y           z      points  spacing
  1. axis:    yes   16.000000    0.000000    0.000000    80     0.2000
  2. axis:    yes    0.000000   16.000000    0.000000    80     0.2000
  3. axis:    yes    0.000000    0.000000   10.000000    48     0.2083

Effective grid spacing dv^(1/3) = 0.2027

                     log10-error:    total        iterations:
           time      wfs    density  energy       fermi  poisson
iter:   1  12:03:35          +inf  -177.178083    3      5      
iter:   2  12:03:35         -1.96  -177.119186    3      2      
iter:   3  12:03:36         -2.18  -177.097831    3      2      
iter:   4  12:03:37         -2.38  -177.092587    2      2      
iter:   5  12:03:37         -2.53  -177.089568    2      2      
iter:   6  12:03:38         -2.73  -177.089187    2      2      
iter:   7  12:03:39         -2.84  -177.088370    2      2      
iter:   8  12:03:39         -3.00  -177.088637    2      2      
iter:   9  12:03:40         -3.34  -177.088743    2      1      
iter:  10  12:03:41         -3.41  -177.088829    2      1      
iter:  11  12:03:41         -3.67  -177.088943    1      1      
iter:  12  12:03:42         -3.75  -177.089299    2      1      
iter:  13  12:03:42         -3.96  -177.089086    2      1      
iter:  14  12:03:43         -4.13  -177.089113    2      1      

Converged after 14 iterations.

Dipole moment: (-0.049147, -0.345492, -0.320163) |e|*Ang

Energy contributions relative to reference atoms: (reference = -24663.074771)

Kinetic:        +93.909144
Potential:     -104.085973
External:        +0.000000
XC:            -169.735727
Entropy (-ST):   -0.252430
Local:           +2.949658
--------------------------
Free energy:   -177.215328
Extrapolated:  -177.089113

Fermi level: -4.38169

 Band  Eigenvalues  Occupancy
    0    -23.18841    2.00000
    1    -22.45613    2.00000
    2    -21.97099    2.00000
    3    -21.20144    2.00000
    4    -20.68257    2.00000
    5    -20.15291    2.00000
    6    -19.43166    2.00000
    7    -19.16689    2.00000
    8    -18.57489    2.00000
    9    -18.28557    2.00000
   10    -17.83410    2.00000
   11    -17.29527    2.00000
   12    -16.35599    2.00000
   13    -15.84694    2.00000
   14    -15.25931    2.00000
   15    -14.75602    2.00000
   16    -14.32846    2.00000
   17    -13.82035    2.00000
   18    -13.14170    2.00000
   19    -12.84429    2.00000
   20    -12.55651    2.00000
   21    -12.20309    2.00000
   22    -11.67895    2.00000
   23    -11.45526    2.00000
   24    -11.13638    2.00000
   25    -10.83849    2.00000
   26    -10.63642    2.00000
   27    -10.24746    2.00000
   28    -10.02897    2.00000
   29     -9.78484    2.00000
   30     -9.62943    2.00000
   31     -9.07478    2.00000
   32     -8.75502    2.00000
   33     -8.31040    2.00000
   34     -8.04519    2.00000
   35     -7.90347    2.00000
   36     -7.24717    2.00000
   37     -7.16356    2.00000
   38     -6.98990    2.00000
   39     -6.79125    2.00000
   40     -6.68681    2.00000
   41     -6.44937    2.00000
   42     -6.26032    2.00000
   43     -6.01787    2.00000
   44     -5.68368    2.00000
   45     -5.38416    1.99991
   46     -4.92300    1.99112
   47     -4.47770    1.44629
   48     -4.28323    0.54398
   49     -3.89791    0.01573
   50     -3.71289    0.00249
   51     -3.49433    0.00028
   52     -3.44256    0.00017
   53     -3.29056    0.00004
   54     -2.66553    0.00000
   55     -2.43080    0.00000
   56     -1.58958    0.00000
   57     -1.49449    0.00000
   58     -1.07609    0.00000
   59     -0.52300    0.00000
   60     -0.06632    0.00000
   61      0.75184    0.00000
   62      0.95791    0.00000
   63      1.20579    0.00000
   64      2.25904    0.00000
   65      2.55850    0.00000
   66      2.69368    0.00000
   67      3.47166    0.00000
   68      3.73885    0.00000
   69      3.91354    0.00000
   70      4.72603    0.00000
   71      5.37754    0.00000
   72      5.52609    0.00000
   73      5.84473    0.00000
   74      6.14355    0.00000
   75      6.81004    0.00000
   76      6.91106    0.00000
   77      7.21779    0.00000
   78      7.53268    0.00000
   79      7.92039    0.00000
   80      8.22911    0.00000
   81      8.42814    0.00000
   82      8.61363    0.00000
   83      8.66884    0.00000
   84      8.91854    0.00000
   85      9.05206    0.00000
   86      9.11652    0.00000
   87      9.24565    0.00000
   88      9.36634    0.00000
   89      9.45163    0.00000
   90      9.56215    0.00000
   91      9.69992    0.00000
   92      9.74466    0.00000
   93      9.83828    0.00000
   94      9.93398    0.00000
   95     10.06893    0.00000
   96     10.20948    0.00000
   97     10.22241    0.00000


Forces in eV/Ang:
  0 C    -1.67311   -0.73945    0.08724
  1 C    -1.00432    0.12947   -2.97933
  2 C     1.65924   -0.91317    0.70768
  3 C     1.44271   -0.41085    1.76739
  4 C     1.20032   -0.56908    0.04575
  5 C    -1.00924   -1.22707   -0.08996
  6 C    -0.28424   -1.13939    0.40826
  7 C    -0.89076   -0.89758   -0.21318
  8 C    -0.53041    0.11339   -0.05942
  9 C     0.29370    0.42721   -0.99189
 10 C     0.51432    0.34056    0.85687
 11 C     0.66984   -0.56683   -1.20186
 12 C    -0.41262    3.14536    2.42986
 13 C    -0.30236   -0.35701    0.22664
 14 C     1.49849   -0.01337    0.94685
 15 C    -0.27102   -0.21883   -0.20144
 16 C    -0.10295   -0.15629   -0.90398
 17 C    -0.35829    0.04157    0.26492
 18 C     0.01073    0.22036   -0.48287
 19 C    -0.26928    0.02728    0.27583
 20 C    -0.17021    0.55501   -0.17705
 21 C     0.30718    0.80656   -0.15437
 22 C    -0.43852    0.75220   -1.27701
 23 C     0.11177    0.70720    0.68532

System changes: positions 

Initializing position-dependent things.

Density initialized from wave functions
           .--------------------------------------.  
          /|                                      |  
         / |                                      |  
        /  |                                      |  
       /   |                                      |  
      /    |                                      |  
     /     |                                      |  
    /      |                C                     |  
   /       |          C  C     C                  |  
  /        |      CC                              |  
 *         |  C     C   C C   C  C                |  
 |         |    C  C            C                 |  
 |         .----------C--C-----C------------------.  
 |        /    C           C                     /   
 |       /       C  C     C                     /    
 |      /              C                       /     
 |     /                                      /      
 |    /                                      /       
 |   /                                      /        
 |  /                                      /         
 | /                                      /          
 |/                                      /           
 *--------------------------------------*            

Positions:
   0 C      9.813606    8.986445    6.734956
   1 C      8.753797    9.609870    7.261585
   2 C      5.993848    9.951225    6.325177
   3 C      7.305535    9.463079    6.406251
   4 C      4.795529    9.354815    6.285467
   5 C      7.346021    7.983953    6.223232
   6 C      4.921073    8.044916    6.497575
   7 C      6.096871    7.223074    6.409517
   8 C      8.494675    7.159291    5.858939
   9 C     10.860448    5.578372    5.118781
  10 C     11.089986    6.847205    5.348681
  11 C     11.161968    8.225840    5.331873
  12 C      9.765103    7.867067    5.814947
  13 C      9.233013    3.857029    4.346934
  14 C      9.542186    5.074769    4.931534
  15 C      8.126003    3.263484    4.411029
  16 C      8.374490    5.771503    5.551721
  17 C      6.985315    3.686449    5.061670
  18 C      7.136558    5.050307    5.721075
  19 C      5.694012    3.154087    5.235283
  20 C      3.771064    5.606721    7.283255
  21 C      4.740898    4.960960    6.560047
  22 C      6.049320    5.741302    6.346429
  23 C      4.754639    3.677363    5.882644

Unit cell:
           periodic     x           y           z      points  spacing
  1. axis:    yes   16.000000    0.000000    0.000000    80     0.2000
  2. axis:    yes    0.000000   16.000000    0.000000    80     0.2000
  3. axis:    yes    0.000000    0.000000   10.000000    48     0.2083

Effective grid spacing dv^(1/3) = 0.2027

                     log10-error:    total        iterations:
           time      wfs    density  energy       fermi  poisson
iter:   1  12:03:45          +inf  -177.802627    3      5      
iter:   2  12:03:46         -1.89  -177.706678    3      2      
iter:   3  12:03:46         -2.12  -177.677865    2      2      
iter:   4  12:03:47         -2.31  -177.669944    2      2      
iter:   5  12:03:48         -2.49  -177.666656    2      2      
iter:   6  12:03:48         -2.69  -177.666304    2      2      
iter:   7  12:03:49         -2.78  -177.665291    2      2      
iter:   8  12:03:50         -2.98  -177.662946    2      1      
iter:   9  12:03:50         -3.13  -177.665566    2      2      
iter:  10  12:03:51         -3.39  -177.666079    2      1      
iter:  11  12:03:51         -3.48  -177.665252    2      1      
iter:  12  12:03:52         -3.72  -177.666060    2      1      
iter:  13  12:03:53         -3.87  -177.666301    2      1      
iter:  14  12:03:53         -4.06  -177.665771    2      1      

Converged after 14 iterations.

Dipole moment: (-0.068967, -0.288701, -0.285170) |e|*Ang

Energy contributions relative to reference atoms: (reference = -24663.074771)

Kinetic:        +95.034092
Potential:     -105.223849
External:        +0.000000
XC:            -170.305569
Entropy (-ST):   -0.253057
Local:           +2.956085
--------------------------
Free energy:   -177.792299
Extrapolated:  -177.665771

Fermi level: -4.36120

 Band  Eigenvalues  Occupancy
    0    -23.07931    2.00000
    1    -22.38763    2.00000
    2    -21.97937    2.00000
    3    -21.16358    2.00000
    4    -20.67256    2.00000
    5    -20.19785    2.00000
    6    -19.40595    2.00000
    7    -19.18232    2.00000
    8    -18.57487    2.00000
    9    -18.31095    2.00000
   10    -17.86600    2.00000
   11    -17.23728    2.00000
   12    -16.34448    2.00000
   13    -15.84596    2.00000
   14    -15.25101    2.00000
   15    -14.76726    2.00000
   16    -14.42832    2.00000
   17    -13.79784    2.00000
   18    -13.14222    2.00000
   19    -12.86297    2.00000
   20    -12.52019    2.00000
   21    -12.16904    2.00000
   22    -11.66098    2.00000
   23    -11.49026    2.00000
   24    -11.17119    2.00000
   25    -10.82572    2.00000
   26    -10.66917    2.00000
   27    -10.20344    2.00000
   28    -10.04993    2.00000
   29     -9.80231    2.00000
   30     -9.59857    2.00000
   31     -9.12801    2.00000
   32     -8.76564    2.00000
   33     -8.31827    2.00000
   34     -8.05662    2.00000
   35     -7.91985    2.00000
   36     -7.27646    2.00000
   37     -7.18398    2.00000
   38     -6.97525    2.00000
   39     -6.81679    2.00000
   40     -6.67659    2.00000
   41     -6.47098    2.00000
   42     -6.22986    2.00000
   43     -5.99685    2.00000
   44     -5.66577    2.00000
   45     -5.38808    1.99993
   46     -4.96078    1.99503
   47     -4.45394    1.43309
   48     -4.26464    0.55149
   49     -3.88737    0.01735
   50     -3.69331    0.00251
   51     -3.50234    0.00037
   52     -3.43137    0.00018
   53     -3.26600    0.00004
   54     -2.63775    0.00000
   55     -2.38742    0.00000
   56     -1.60134    0.00000
   57     -1.46149    0.00000
   58     -1.10194    0.00000
   59     -0.49955    0.00000
   60      0.04220    0.00000
   61      0.85883    0.00000
   62      1.00432    0.00000
   63      1.25106    0.00000
   64      2.35016    0.00000
   65      2.58807    0.00000
   66      2.72506    0.00000
   67      3.66512    0.00000
   68      3.73043    0.00000
   69      3.99291    0.00000
   70      4.91372    0.00000
   71      5.34413    0.00000
   72      5.55972    0.00000
   73      5.87299    0.00000
   74      6.29296    0.00000
   75      6.89727    0.00000
   76      6.92251    0.00000
   77      7.31911    0.00000
   78      7.53422    0.00000
   79      7.92906    0.00000
   80      8.24474    0.00000
   81      8.43567    0.00000
   82      8.58762    0.00000
   83      8.77040    0.00000
   84      8.92203    0.00000
   85      9.07880    0.00000
   86      9.16435    0.00000
   87      9.24545    0.00000
   88      9.40650    0.00000
   89      9.47317    0.00000
   90      9.58851    0.00000
   91      9.71622    0.00000
   92      9.73603    0.00000
   93      9.86255    0.00000
   94     10.04633    0.00000
   95     10.06734    0.00000
   96     10.20197    0.00000
   97     10.22267    0.00000


Forces in eV/Ang:
  0 C    -2.03471   -0.09391    0.50843
  1 C    -1.09474    0.06898   -3.00399
  2 C     1.83561   -0.83214    0.76673
  3 C     1.17349   -0.47479    1.79367
  4 C     1.19873   -0.30002   -0.02063
  5 C    -0.79512   -1.09807   -0.02636
  6 C    -0.43026   -1.48744    0.51038
  7 C    -0.60610   -0.27628   -0.31034
  8 C    -0.37850    0.33186   -0.01918
  9 C    -0.11657    0.21333   -0.97088
 10 C     0.50003    0.14435    0.69747
 11 C     0.39480   -0.68629   -1.09412
 12 C    -0.03220    2.43866    1.89142
 13 C    -0.12211   -0.19908    0.30062
 14 C     1.74502    0.19464    0.87626
 15 C    -0.35726   -0.27745   -0.17812
 16 C     0.09271   -0.20923   -0.81538
 17 C    -0.35865    0.07847    0.25863
 18 C     0.04432    0.19076   -0.60516
 19 C    -0.33114    0.08102    0.33426
 20 C    -0.22482    0.60772   -0.16111
 21 C     0.30081    0.66913   -0.24562
 22 C    -0.57022    0.23417   -1.12691
 23 C     0.19325    0.71232    0.67196

System changes: positions 

Initializing position-dependent things.

Density initialized from wave functions
           .--------------------------------------.  
          /|                                      |  
         / |                                      |  
        /  |                                      |  
       /   |                                      |  
      /    |                                      |  
     /     |                                      |  
    /      |                C                     |  
   /       |          C  C     C                  |  
  /        |      CC                              |  
 *         |  C     C   C C   C  C                |  
 |         |    C  C            C                 |  
 |         .----------C--C-----C------------------.  
 |        /    C           C                     /   
 |       /       C  C     C                     /    
 |      /              C                       /     
 |     /                                      /      
 |    /                                      /       
 |   /                                      /        
 |  /                                      /         
 | /                                      /          
 |/                                      /           
 *--------------------------------------*            

Positions:
   0 C      9.799071    8.984369    6.739815
   1 C      8.732557    9.615769    7.228208
   2 C      6.004035    9.940195    6.334513
   3 C      7.330829    9.456704    6.429298
   4 C      4.816288    9.346798    6.286830
   5 C      7.334289    7.968482    6.221549
   6 C      4.913114    8.034722    6.503079
   7 C      6.085453    7.209909    6.407383
   8 C      8.489934    7.158478    5.858761
   9 C     10.873987    5.584841    5.108640
  10 C     11.100016    6.852880    5.359104
  11 C     11.172135    8.220364    5.316912
  12 C      9.757239    7.895333    5.837573
  13 C      9.230604    3.853588    4.349831
  14 C      9.548629    5.068377    4.941112
  15 C      8.119972    3.260001    4.409289
  16 C      8.373319    5.772911    5.539809
  17 C      6.982634    3.686097    5.063448
  18 C      7.135648    5.053159    5.716197
  19 C      5.690009    3.154395    5.239169
  20 C      3.768538    5.615003    7.280513
  21 C      4.743782    4.973679    6.559837
  22 C      6.047171    5.749818    6.328422
  23 C      4.757165    3.683539    5.889801

Unit cell:
           periodic     x           y           z      points  spacing
  1. axis:    yes   16.000000    0.000000    0.000000    80     0.2000
  2. axis:    yes    0.000000   16.000000    0.000000    80     0.2000
  3. axis:    yes    0.000000    0.000000   10.000000    48     0.2083

Effective grid spacing dv^(1/3) = 0.2027

                     log10-error:    total        iterations:
           time      wfs    density  energy       fermi  poisson
iter:   1  12:03:55          +inf  -178.423722    3      5      
iter:   2  12:03:56         -1.84  -178.282675    2      2      
iter:   3  12:03:57         -2.06  -178.236451    3      2      
iter:   4  12:03:57         -2.27  -178.227509    3      2      
iter:   5  12:03:58         -2.45  -178.224569    2      1      
iter:   6  12:03:58         -2.50  -178.221780    3      2      
iter:   7  12:03:59         -2.74  -178.220440    2      1      
iter:   8  12:04:00         -2.87  -178.221625    2      2      
iter:   9  12:04:00         -3.12  -178.221740    2      1      
iter:  10  12:04:01         -3.23  -178.221135    2      1      
iter:  11  12:04:02         -3.44  -178.220867    2      1      
iter:  12  12:04:02         -3.61  -178.222428    2      1      
iter:  13  12:04:03         -3.72  -178.222693    2      1      
iter:  14  12:04:03         -3.85  -178.221835    2      1      
iter:  15  12:04:04         -4.03  -178.222117    2      1      

Converged after 15 iterations.

Dipole moment: (-0.073395, -0.227737, -0.247732) |e|*Ang

Energy contributions relative to reference atoms: (reference = -24663.074771)

Kinetic:        +96.641834
Potential:     -106.746028
External:        +0.000000
XC:            -170.955470
Entropy (-ST):   -0.251003
Local:           +2.963048
--------------------------
Free energy:   -178.347619
Extrapolated:  -178.222117

Fermi level: -4.34047

 Band  Eigenvalues  Occupancy
    0    -23.00437    2.00000
    1    -22.30872    2.00000
    2    -21.97551    2.00000
    3    -21.12833    2.00000
    4    -20.65267    2.00000
    5    -20.26417    2.00000
    6    -19.37976    2.00000
    7    -19.19122    2.00000
    8    -18.56792    2.00000
    9    -18.34466    2.00000
   10    -17.89083    2.00000
   11    -17.18416    2.00000
   12    -16.33155    2.00000
   13    -15.84823    2.00000
   14    -15.24357    2.00000
   15    -14.78678    2.00000
   16    -14.51776    2.00000
   17    -13.77515    2.00000
   18    -13.12941    2.00000
   19    -12.88117    2.00000
   20    -12.48137    2.00000
   21    -12.14209    2.00000
   22    -11.65555    2.00000
   23    -11.55103    2.00000
   24    -11.20693    2.00000
   25    -10.83601    2.00000
   26    -10.68207    2.00000
   27    -10.17193    2.00000
   28    -10.07066    2.00000
   29     -9.80957    2.00000
   30     -9.57549    2.00000
   31     -9.18172    2.00000
   32     -8.76006    2.00000
   33     -8.33106    2.00000
   34     -8.06575    2.00000
   35     -7.92025    2.00000
   36     -7.32932    2.00000
   37     -7.17354    2.00000
   38     -6.95863    2.00000
   39     -6.83847    2.00000
   40     -6.65634    2.00000
   41     -6.49132    2.00000
   42     -6.21845    2.00000
   43     -5.97105    2.00000
   44     -5.63407    2.00000
   45     -5.40318    1.99995
   46     -4.99917    1.99725
   47     -4.43347    1.43415
   48     -4.24326    0.54894
   49     -3.86126    0.01645
   50     -3.67513    0.00258
   51     -3.50094    0.00045
   52     -3.41867    0.00020
   53     -3.25571    0.00004
   54     -2.59846    0.00000
   55     -2.34254    0.00000
   56     -1.60790    0.00000
   57     -1.43152    0.00000
   58     -1.12094    0.00000
   59     -0.47737    0.00000
   60      0.12206    0.00000
   61      0.95530    0.00000
   62      1.05703    0.00000
   63      1.29502    0.00000
   64      2.38715    0.00000
   65      2.59389    0.00000
   66      2.78180    0.00000
   67      3.72216    0.00000
   68      3.92942    0.00000
   69      4.09810    0.00000
   70      5.10719    0.00000
   71      5.30356    0.00000
   72      5.59483    0.00000
   73      5.87111    0.00000
   74      6.43409    0.00000
   75      6.88777    0.00000
   76      7.07067    0.00000
   77      7.42288    0.00000
   78      7.54935    0.00000
   79      7.93538    0.00000
   80      8.23262    0.00000
   81      8.46200    0.00000
   82      8.55757    0.00000
   83      8.84505    0.00000
   84      8.93486    0.00000
   85      9.11145    0.00000
   86      9.20238    0.00000
   87      9.26753    0.00000
   88      9.42673    0.00000
   89      9.49206    0.00000
   90      9.60540    0.00000
   91      9.70567    0.00000
   92      9.74660    0.00000
   93      9.89138    0.00000
   94     10.03034    0.00000
   95     10.10496    0.00000
   96     10.18424    0.00000
   97     10.23918    0.00000


Forces in eV/Ang:
  0 C    -2.27322    0.59066    0.95336
  1 C    -1.11398    0.05415   -2.88603
  2 C     1.99106   -0.70683    0.82147
  3 C     0.76159   -0.57674    1.70199
  4 C     1.23298   -0.13834   -0.06567
  5 C    -0.56590   -0.91328    0.01128
  6 C    -0.65255   -1.80395    0.60825
  7 C    -0.31393    0.35747   -0.42042
  8 C    -0.21046    0.53218    0.02504
  9 C    -0.47001    0.03653   -0.92592
 10 C     0.43683   -0.13226    0.49896
 11 C     0.12453   -0.68430   -0.92128
 12 C     0.36751    1.57664    1.16437
 13 C    -0.27233   -0.26789    0.35858
 14 C     1.91954    0.46645    0.75849
 15 C    -0.06654   -0.18577   -0.20308
 16 C     0.23438   -0.26994   -0.66988
 17 C    -0.43905    0.10545    0.26689
 18 C     0.11051    0.16222   -0.73017
 19 C    -0.21991    0.06575    0.29043
 20 C    -0.26987    0.67139   -0.16882
 21 C     0.26309    0.50261   -0.35411
 22 C    -0.68531   -0.24097   -0.95692
 23 C     0.11606    0.80185    0.75656

System changes: positions 

Initializing position-dependent things.

Density initialized from wave functions
           .--------------------------------------.  
          /|                                      |  
         / |                                      |  
        /  |                                      |  
       /   |                                      |  
      /    |                                      |  
     /     |                                      |  
    /      |                C                     |  
   /       |          C  C    C                   |  
  /        |      CC                              |  
 *         |  C     C   C C   C                   |  
[...]
    9    -18.27066    2.00000
   10    -17.71421    2.00000
   11    -17.12698    2.00000
   12    -16.46887    2.00000
   13    -16.04864    2.00000
   14    -15.06296    2.00000
   15    -14.82467    2.00000
   16    -14.53105    2.00000
   17    -14.25594    2.00000
   18    -13.00447    2.00000
   19    -12.56345    2.00000
   20    -12.26114    2.00000
   21    -12.12500    2.00000
   22    -11.79771    2.00000
   23    -11.26681    2.00000
   24    -11.19812    2.00000
   25    -10.82012    2.00000
   26    -10.64319    2.00000
   27    -10.53003    2.00000
   28    -10.23415    2.00000
   29     -9.70977    2.00000
   30     -9.64331    2.00000
   31     -9.42538    2.00000
   32     -9.23531    2.00000
   33     -8.47405    2.00000
   34     -8.44228    2.00000
   35     -8.09059    2.00000
   36     -7.30527    2.00000
   37     -6.93741    2.00000
   38     -6.92886    2.00000
   39     -6.62787    2.00000
   40     -6.51488    2.00000
   41     -6.46593    2.00000
   42     -6.45628    2.00000
   43     -6.35295    2.00000
   44     -6.15784    2.00000
   45     -5.17194    1.98893
   46     -4.81989    1.68331
   47     -4.80003    1.62673
   48     -4.59115    0.70103
   49     -3.30190    0.00000
   50     -3.08285    0.00000
   51     -2.99748    0.00000
   52     -2.84153    0.00000
   53     -2.75735    0.00000
   54     -2.54267    0.00000
   55     -1.46214    0.00000
   56     -1.25193    0.00000
   57     -1.14963    0.00000
   58     -0.50954    0.00000
   59     -0.23062    0.00000
   60      1.54027    0.00000
   61      1.93110    0.00000
   62      2.45513    0.00000
   63      3.27265    0.00000
   64      3.42305    0.00000
   65      4.04456    0.00000
   66      4.06076    0.00000
   67      4.33870    0.00000
   68      4.42755    0.00000
   69      4.97684    0.00000
   70      5.18608    0.00000
   71      6.10930    0.00000
   72      6.28150    0.00000
   73      6.87342    0.00000
   74      6.96047    0.00000
   75      7.09376    0.00000
   76      7.55286    0.00000
   77      7.77378    0.00000
   78      8.03691    0.00000
   79      8.25963    0.00000
   80      8.27931    0.00000
   81      8.37752    0.00000
   82      8.61861    0.00000
   83      9.12885    0.00000
   84      9.15808    0.00000
   85      9.33692    0.00000
   86      9.34618    0.00000
   87      9.56390    0.00000
   88      9.63499    0.00000
   89      9.65455    0.00000
   90      9.66269    0.00000
   91      9.85931    0.00000
   92      9.96265    0.00000
   93     10.05660    0.00000
   94     10.19533    0.00000
   95     10.30401    0.00000
   96     10.42257    0.00000
   97     10.45601    0.00000


Forces in eV/Ang:
  0 C    -0.03502    0.01605    0.01026
  1 C    -0.04644    0.00825   -0.00433
  2 C     0.08205   -0.01930    0.00049
  3 C    -0.01656   -0.04490   -0.03177
  4 C     0.02975    0.00300    0.06608
  5 C     0.00627   -0.00805   -0.00080
  6 C     0.00592   -0.04361   -0.00281
  7 C     0.01874    0.03803    0.05979
  8 C    -0.01445    0.01880   -0.05508
  9 C    -0.04089   -0.08759    0.01939
 10 C     0.03406   -0.03095   -0.02918
 11 C     0.03186    0.11708   -0.00964
 12 C    -0.02165   -0.05643   -0.02106
 13 C     0.01924   -0.02776    0.03380
 14 C     0.06323    0.04794    0.01279
 15 C     0.02566   -0.00139   -0.03400
 16 C     0.02835    0.02348   -0.02545
 17 C    -0.01184   -0.02911   -0.00474
 18 C     0.01681    0.00672    0.00679
 19 C    -0.02694    0.01825   -0.00751
 20 C     0.08811   -0.02235   -0.02118
 21 C    -0.01255   -0.00129   -0.03510
 22 C    -0.01582   -0.02324   -0.01465
 23 C    -0.01333    0.05559   -0.00981

System changes: positions 

Initializing position-dependent things.

Density initialized from wave functions
           .--------------------------------------.  
          /|                                      |  
         / |                                      |  
        /  |                                      |  
       /   |                                      |  
      /    |                                      |  
     /     |                                      |  
    /      |                                      |  
   /       |      C  C  C   C C                   |  
  /        |     C                                |  
 *         |   C    C   C C   C  C                |  
 |         |    C  C                              |  
 |         .---C------C--C-------C----------------.  
 |        /      C  C       C  C                 /   
 |       /             C  C                     /    
 |      /                                      /     
 |     /                                      /      
 |    /                                      /       
 |   /                                      /        
 |  /                                      /         
 | /                                      /          
 |/                                      /           
 *--------------------------------------*            

Positions:
   0 C      9.481554    9.404548    6.520953
   1 C      8.410315    9.993315    6.796983
   2 C      5.822831    9.714437    6.982131
   3 C      7.152896    9.356237    6.733467
   4 C      4.830973    8.915864    6.966273
   5 C      7.313127    7.916374    6.285108
   6 C      4.756779    7.558690    6.644727
   7 C      6.125748    7.168544    6.256844
   8 C      8.579601    7.254076    5.901218
   9 C     11.024981    5.403264    4.660294
  10 C     11.260067    6.605916    5.107632
  11 C     11.143877    7.793454    5.629217
  12 C      9.827633    8.134007    6.013036
  13 C      9.234362    3.695919    4.525828
  14 C      9.685770    4.992214    4.851963
  15 C      8.179647    3.036497    4.683737
  16 C      8.531038    5.808751    5.445233
  17 C      7.007461    3.620879    5.211067
  18 C      7.245513    5.081502    5.548071
  19 C      5.694811    3.204174    5.458109
  20 C      3.941212    6.382679    6.709840
  21 C      4.727147    5.306661    6.182640
  22 C      6.102611    5.788275    5.952118
  23 C      4.752952    3.940651    5.897980

Unit cell:
           periodic     x           y           z      points  spacing
  1. axis:    yes   16.000000    0.000000    0.000000    80     0.2000
  2. axis:    yes    0.000000   16.000000    0.000000    80     0.2000
  3. axis:    yes    0.000000    0.000000   10.000000    48     0.2083

Effective grid spacing dv^(1/3) = 0.2027

                     log10-error:    total        iterations:
           time      wfs    density  energy       fermi  poisson
iter:   1  12:12:52          +inf  -185.253918    3      4      
iter:   2  12:12:53         -2.32  -185.226583    3      2      
iter:   3  12:12:54         -2.75  -185.228047    3      1      
iter:   4  12:12:54         -3.16  -185.227432    2      1      
iter:   5  12:12:55         -3.34  -185.226614    2      1      
iter:   6  12:12:56         -3.50  -185.228728    2      1      
iter:   7  12:12:56         -3.17  -185.226570    3      1      
iter:   8  12:12:57         -3.41  -185.226062    2      1      
iter:   9  12:12:57         -3.08  -185.227550    3      1      
iter:  10  12:12:58         -3.93  -185.227354    2      1      
iter:  11  12:12:59         -3.97  -185.226744    2      1      
iter:  12  12:12:59         -3.69  -185.227229    2      1      
iter:  13  12:13:00         -4.53  -185.227279    2      1      

Converged after 13 iterations.

Dipole moment: (0.011091, 0.015473, -0.047019) |e|*Ang

Energy contributions relative to reference atoms: (reference = -24663.074771)

Kinetic:       +116.814583
Potential:     -125.055646
External:        +0.000000
XC:            -179.851190
Entropy (-ST):   -0.319744
Local:           +3.024845
--------------------------
Free energy:   -185.387151
Extrapolated:  -185.227279

Fermi level: -4.65353

 Band  Eigenvalues  Occupancy
    0    -22.84401    2.00000
    1    -21.88094    2.00000
    2    -21.81587    2.00000
    3    -20.73238    2.00000
    4    -20.70715    2.00000
    5    -20.12776    2.00000
    6    -19.44964    2.00000
    7    -19.26817    2.00000
    8    -18.40575    2.00000
    9    -18.26917    2.00000
   10    -17.71639    2.00000
   11    -17.13112    2.00000
   12    -16.46798    2.00000
   13    -16.04950    2.00000
   14    -15.06275    2.00000
   15    -14.82615    2.00000
   16    -14.52716    2.00000
   17    -14.26176    2.00000
   18    -13.00843    2.00000
   19    -12.56150    2.00000
   20    -12.26020    2.00000
   21    -12.12439    2.00000
   22    -11.79701    2.00000
   23    -11.27023    2.00000
   24    -11.20449    2.00000
   25    -10.81504    2.00000
   26    -10.64503    2.00000
   27    -10.53342    2.00000
   28    -10.23440    2.00000
   29     -9.70976    2.00000
   30     -9.64649    2.00000
   31     -9.43024    2.00000
   32     -9.22775    2.00000
   33     -8.47611    2.00000
   34     -8.44121    2.00000
   35     -8.09079    2.00000
   36     -7.30096    2.00000
   37     -6.93906    2.00000
   38     -6.93011    2.00000
   39     -6.62579    2.00000
   40     -6.51556    2.00000
   41     -6.46537    2.00000
   42     -6.45484    2.00000
   43     -6.34996    2.00000
   44     -6.15786    2.00000
   45     -5.17422    1.98910
   46     -4.82233    1.68791
   47     -4.79941    1.62269
   48     -4.59169    0.70029
   49     -3.30158    0.00000
   50     -3.07934    0.00000
   51     -2.99950    0.00000
   52     -2.83329    0.00000
   53     -2.75822    0.00000
   54     -2.53847    0.00000
   55     -1.48013    0.00000
   56     -1.25150    0.00000
   57     -1.15167    0.00000
   58     -0.50591    0.00000
   59     -0.22415    0.00000
   60      1.54440    0.00000
   61      1.92639    0.00000
   62      2.45547    0.00000
   63      3.26413    0.00000
   64      3.41952    0.00000
   65      4.05430    0.00000
   66      4.06235    0.00000
   67      4.34006    0.00000
   68      4.42863    0.00000
   69      4.97809    0.00000
   70      5.18646    0.00000
   71      6.10580    0.00000
   72      6.28385    0.00000
   73      6.87886    0.00000
   74      6.96419    0.00000
   75      7.08979    0.00000
   76      7.54731    0.00000
   77      7.77982    0.00000
   78      8.03140    0.00000
   79      8.25288    0.00000
   80      8.28326    0.00000
   81      8.38364    0.00000
   82      8.61186    0.00000
   83      9.12951    0.00000
   84      9.15734    0.00000
   85      9.33626    0.00000
   86      9.34953    0.00000
   87      9.56132    0.00000
   88      9.63738    0.00000
   89      9.65505    0.00000
   90      9.66117    0.00000
   91      9.86009    0.00000
   92      9.96957    0.00000
   93     10.06407    0.00000
   94     10.19775    0.00000
   95     10.30466    0.00000
   96     10.42201    0.00000
   97     10.45454    0.00000


Forces in eV/Ang:
  0 C    -0.03732   -0.00096    0.00312
  1 C    -0.02186    0.01052   -0.00121
  2 C     0.06633    0.01696    0.01548
  3 C     0.02129   -0.01078   -0.02898
  4 C    -0.04475   -0.08359    0.04182
  5 C     0.00583   -0.00589    0.01485
  6 C     0.03587    0.09108    0.04744
  7 C     0.00157   -0.02980   -0.00387
  8 C    -0.00546    0.00406   -0.05762
  9 C     0.03412    0.09000    0.06891
 10 C    -0.01218    0.02476    0.00050
 11 C    -0.00093   -0.07366   -0.07843
 12 C     0.00174   -0.02474   -0.02764
 13 C    -0.02766   -0.03058    0.04132
 14 C    -0.03861   -0.01267    0.02171
 15 C     0.02204    0.02952   -0.02113
 16 C    -0.01197   -0.01409   -0.00564
 17 C     0.01033    0.00800    0.00872
 18 C    -0.00250   -0.00842   -0.02714
 19 C     0.01343   -0.00708   -0.03313
 20 C    -0.09141   -0.03285    0.02968
 21 C     0.00134    0.00860   -0.04577
 22 C     0.02446   -0.00630    0.02825
 23 C    -0.02059   -0.00103   -0.01399

System changes: positions 

Initializing position-dependent things.

Density initialized from wave functions
           .--------------------------------------.  
          /|                                      |  
         / |                                      |  
        /  |                                      |  
       /   |                                      |  
      /    |                                      |  
     /     |                                      |  
    /      |                                      |  
   /       |      C  C  C   C C                   |  
  /        |     C                                |  
 *         |   C    C   C C   C  C                |  
 |         |    C  C                              |  
 |         .---C------C--C-------C----------------.  
 |        /      C  C       C  C                 /   
 |       /             C  C                     /    
 |      /                                      /     
 |     /                                      /      
 |    /                                      /       
 |   /                                      /        
 |  /                                      /         
 | /                                      /          
 |/                                      /           
 *--------------------------------------*            

Positions:
   0 C      9.481827    9.403401    6.522056
   1 C      8.410012    9.993560    6.792643
   2 C      5.824545    9.712832    6.983621
   3 C      7.153387    9.355574    6.731828
   4 C      4.832140    8.913923    6.970784
   5 C      7.313184    7.915624    6.285417
   6 C      4.757819    7.557674    6.648607
   7 C      6.126032    7.167583    6.259298
   8 C      8.579121    7.253736    5.900614
   9 C     11.025509    5.403208    4.663758
  10 C     11.258656    6.607516    5.106323
  11 C     11.143262    7.795300    5.627136
  12 C      9.826746    8.133424    6.012067
  13 C      9.234810    3.695729    4.527943
  14 C      9.686290    4.992683    4.853496
  15 C      8.180627    3.036069    4.683043
  16 C      8.530572    5.809037    5.444462
  17 C      7.007391    3.620415    5.209616
  18 C      7.244813    5.081633    5.545877
  19 C      5.695096    3.203478    5.458560
  20 C      3.939400    6.382405    6.708958
  21 C      4.725669    5.307655    6.180302
  22 C      6.101519    5.788737    5.949155
  23 C      4.753595    3.942033    5.896724

Unit cell:
           periodic     x           y           z      points  spacing
  1. axis:    yes   16.000000    0.000000    0.000000    80     0.2000
  2. axis:    yes    0.000000   16.000000    0.000000    80     0.2000
  3. axis:    yes    0.000000    0.000000   10.000000    48     0.2083

Effective grid spacing dv^(1/3) = 0.2027

                     log10-error:    total        iterations:
           time      wfs    density  energy       fermi  poisson
iter:   1  12:13:02          +inf  -185.227637    3      4      
iter:   2  12:13:03         -2.66  -185.230538    3      1      
iter:   3  12:13:03         -3.04  -185.228374    3      1      
iter:   4  12:13:04         -3.32  -185.225967    3      1      
iter:   5  12:13:05         -3.00  -185.227211    3      1      
iter:   6  12:13:05         -3.33  -185.232133    3      1      
iter:   7  12:13:06         -2.85  -185.227136    3      1      
iter:   8  12:13:07         -3.63  -185.228029    2      1      
iter:   9  12:13:07         -3.98  -185.228894    3      1      
iter:  10  12:13:08         -3.44  -185.227338    3      1      
iter:  11  12:13:08         -3.52  -185.227885    2      1      
iter:  12  12:13:09         -3.94  -185.228782    2      1      
iter:  13  12:13:10         -3.49  -185.227916    2      1      
iter:  14  12:13:10         -4.61  -185.227924    2      1      

Converged after 14 iterations.

Dipole moment: (0.010151, 0.016594, -0.046672) |e|*Ang

Energy contributions relative to reference atoms: (reference = -24663.074771)

Kinetic:       +117.091475
Potential:     -125.277934
External:        +0.000000
XC:            -179.909163
Entropy (-ST):   -0.320360
Local:           +3.027879
--------------------------
Free energy:   -185.388104
Extrapolated:  -185.227924

Fermi level: -4.65470

 Band  Eigenvalues  Occupancy
    0    -22.84671    2.00000
    1    -21.88354    2.00000
    2    -21.81912    2.00000
    3    -20.73494    2.00000
    4    -20.71002    2.00000
    5    -20.13014    2.00000
    6    -19.45093    2.00000
    7    -19.27101    2.00000
    8    -18.40750    2.00000
    9    -18.26965    2.00000
   10    -17.72037    2.00000
   11    -17.13239    2.00000
   12    -16.46848    2.00000
   13    -16.05172    2.00000
   14    -15.06607    2.00000
   15    -14.82766    2.00000
   16    -14.52647    2.00000
   17    -14.26580    2.00000
   18    -13.00994    2.00000
   19    -12.56254    2.00000
   20    -12.26085    2.00000
   21    -12.12487    2.00000
   22    -11.79699    2.00000
   23    -11.27122    2.00000
   24    -11.20750    2.00000
   25    -10.81253    2.00000
   26    -10.64723    2.00000
   27    -10.53092    2.00000
   28    -10.23518    2.00000
   29     -9.71185    2.00000
   30     -9.64949    2.00000
   31     -9.43171    2.00000
   32     -9.22955    2.00000
   33     -8.47782    2.00000
   34     -8.44297    2.00000
   35     -8.09253    2.00000
   36     -7.30032    2.00000
   37     -6.94145    2.00000
   38     -6.93083    2.00000
   39     -6.62495    2.00000
   40     -6.51817    2.00000
   41     -6.46611    2.00000
   42     -6.45524    2.00000
   43     -6.34896    2.00000
   44     -6.15669    2.00000
   45     -5.17636    1.98921
   46     -4.82313    1.68695
   47     -4.79986    1.62048
   48     -4.59353    0.70335
   49     -3.29886    0.00000
   50     -3.07865    0.00000
   51     -2.99780    0.00000
   52     -2.83338    0.00000
   53     -2.75902    0.00000
   54     -2.53859    0.00000
   55     -1.47321    0.00000
   56     -1.25361    0.00000
   57     -1.15147    0.00000
   58     -0.50348    0.00000
   59     -0.22599    0.00000
   60      1.54491    0.00000
   61      1.92878    0.00000
   62      2.45690    0.00000
   63      3.26701    0.00000
   64      3.42221    0.00000
   65      4.05652    0.00000
   66      4.06517    0.00000
   67      4.34021    0.00000
   68      4.42967    0.00000
   69      4.98131    0.00000
   70      5.18239    0.00000
   71      6.10866    0.00000
   72      6.28437    0.00000
   73      6.87651    0.00000
   74      6.96653    0.00000
   75      7.09203    0.00000
   76      7.54876    0.00000
   77      7.78695    0.00000
   78      8.02729    0.00000
   79      8.25657    0.00000
   80      8.28708    0.00000
   81      8.38414    0.00000
   82      8.61352    0.00000
   83      9.13000    0.00000
   84      9.15626    0.00000
   85      9.33635    0.00000
   86      9.34942    0.00000
   87      9.56186    0.00000
   88      9.63719    0.00000
   89      9.65447    0.00000
   90      9.66100    0.00000
   91      9.85921    0.00000
   92      9.97267    0.00000
   93     10.06364    0.00000
   94     10.20034    0.00000
   95     10.30375    0.00000
   96     10.42078    0.00000
   97     10.45330    0.00000


Forces in eV/Ang:
  0 C    -0.04400    0.01047   -0.00776
  1 C    -0.00729    0.01927    0.00084
  2 C     0.00742    0.00251    0.02028
  3 C     0.02036   -0.01152   -0.01352
  4 C    -0.01354   -0.03350    0.04732
  5 C     0.00470   -0.01122    0.01071
  6 C     0.03021    0.06276    0.05307
  7 C     0.00442   -0.02444   -0.02445
  8 C     0.00038    0.00629   -0.06024
  9 C     0.05225    0.04651    0.03296
 10 C     0.01067    0.02351    0.00731
 11 C     0.02628   -0.04544   -0.06697
 12 C     0.01330   -0.01266   -0.02215
 13 C     0.02528    0.00643    0.03349
 14 C    -0.05219   -0.03653    0.02207
 15 C    -0.03411    0.00942   -0.00577
 16 C    -0.00910   -0.02145   -0.00527
 17 C     0.01573    0.01509    0.01512
 18 C    -0.00861   -0.00370   -0.03098
 19 C    -0.00168    0.00758   -0.03742
 20 C    -0.01686   -0.02120    0.02126
 21 C     0.01184    0.01106   -0.04881
 22 C     0.04670   -0.01628    0.04941
 23 C    -0.01290   -0.03851   -0.01893

