
  ___ ___ ___ _ _ _  
 |   |   |_  | | | | 
 | | | | | . | | | | 
 |__ |  _|___|_____|  1.3.0b1
 |___|_|             

User:   esb@s65n12.grendel.cscaa.dk
Date:   Thu Nov  9 11:02:48 2017
Arch:   x86_64
Pid:    20522
Python: 2.7.13
gpaw:   /home/esb/DFT/gpaw_git/gpaw
_gpaw:  /home/esb/DFT/gpaw_git/build/bin.linux-x86_64-2.7/gpaw-python
ase:    /home/esb/DFT/ase_git/ase (version 3.15.0b1)
numpy:  /comm/swstack/core/python/2.7.13/lib/python2.7/site-packages/numpy (version 1.13.3)
scipy:  /comm/swstack/core/python/2.7.13/lib/python2.7/site-packages/scipy (version 0.19.1)
units:  Angstrom and eV
cores:  16
Extra parameters: {'blacs': True}

Input parameters:
  basis: dzp
  gpts: [80 80 48]
  kpts: [1 1 1]
  maxiter: 99
  mixer: {backend: pulay,
          beta: 0.05,
          method: separate,
          nmaxold: 5,
          weight: 75}
  mode: lcao
  nbands: -50
  occupations: {name: fermi-dirac,
                width: 0.1}
  poissonsolver: {eps: 1e-07,
                  name: fd,
                  nn: 3,
                  relax: GS}
  xc: PBE

System changes: positions, numbers, cell, pbc, initial_charges, initial_magmoms 

Initialize ...

C-setup:
  name: Carbon
  id: 4aa54d4b901d75f77cc0ea3eec22967b
  Z: 6
  valence: 4
  core: 2
  charge: 0.0
  file: /home/esb/DFT/gpaw-setups-0.8.7929/C.PBE.gz
  cutoffs: 0.64(comp), 1.14(filt), 1.14(core), lmax=2
  valence states:
                energy  radius
    2s(2.00)   -13.751   0.635
    2p(2.00)    -5.284   0.635
    *s          13.461   0.635
    *p          21.927   0.635
    *d           0.000   0.635

  LCAO basis set for C:
    Name: dzp
    File: /home/esb/DFT/gpaw-setups-0.8.7929/C.dzp.basis.gz
    Number of radial functions: 5
    Number of spherical harmonics: 13
      l=0, rc=5.5469 Bohr: 2s-sz confined orbital
      l=1, rc=6.6719 Bohr: 2p-sz confined orbital
      l=0, rc=3.0312 Bohr: 2s-dz split-valence wave
      l=1, rc=3.7500 Bohr: 2p-dz split-valence wave
      l=2, rc=6.6719 Bohr: d-type Gaussian polarization

Reference energy: -24663.074771

Spin-paired calculation

Occupation numbers:
  Fermi-Dirac: width=0.1000 eV

Convergence criteria:
  Maximum total energy change: 0.0005 eV / electron
  Maximum integral of absolute density change: 0.0001 electrons
  Maximum integral of absolute eigenstate change: 4e-08 eV^2
  Maximum number of iterations: 99

Symmetries present (total): 1

  ( 1  0  0)
  ( 0  1  0)
  ( 0  0  1)

1 k-point (Gamma)
1 k-point in the irreducible part of the Brillouin zone
       k-points in crystal coordinates                weights
   0:     0.00000000    0.00000000    0.00000000          1/1

Wave functions: LCAO
  Diagonalizer: Serial LAPACK
  Atomic Correction: dense with blas
  Datatype: float
  Eigensolver: None 

LCAO using direct dense diagonalizer 

Densities:
  Coarse grid: 80*80*48 grid
  Fine grid: 160*160*96 grid
  Total Charge: 0.000000 

Density mixing:
  Method: separate
  Backend: pulay
  Linear mixing parameter: 0.05
  Mixing with 5 old densities
  Damping of long wave oscillations: 75 

Hamiltonian:
  XC and Coulomb potentials evaluated on a 160*160*96 grid
  Using the PBE Exchange-Correlation functional
  Interpolation: tri-quintic (5. degree polynomial)
  Poisson solver: Gauss-Seidel solver with 6 multi-grid levels
    Coarsest grid: 5 x 5 x 3 points
    Stencil: 6*3+1=19 point O(h^6) finite-difference Laplacian
    Max iterations: 1000
    Tolerance: 1.000000e-07 

Memory estimate:
  Process memory now: 77.57 MiB
  Calculator: 15.59 MiB
    Density: 6.13 MiB
      Arrays: 3.81 MiB
      Localized functions: 0.86 MiB
      Mixer: 1.46 MiB
    Hamiltonian: 5.40 MiB
      Arrays: 2.49 MiB
      XC: 0.00 MiB
      Poisson: 2.85 MiB
      vbar: 0.07 MiB
    Wavefunctions: 4.05 MiB
      C [qnM]: 0.23 MiB
      S, T [2 x qmm]: 1.49 MiB
      P [aqMi]: 0.01 MiB
      TCI: 0.00 MiB
      BasisFunctions: 2.33 MiB
      Eigensolver: 0.00 MiB

Total number of cores used: 16
Domain decomposition: 2 x 4 x 2

Number of atoms: 24
Number of atomic orbitals: 312
Number of bands in calculation: 98
Bands to converge: occupied states only
Number of valence electrons: 96

... initialized

Initializing position-dependent things.

Density initialized from atomic densities
           .--------------------------------------.  
          /|                                      |  
         / |                                      |  
        /  |                                      |  
       /   |                                      |  
      /    |                                      |  
     /     |                                      |  
    /      |                                      |  
   /       |         C      C C                   |  
  /        |       C    C                         |  
 *         |     CC     C C   C                   |  
 |         |  C    CC           C                 |  
 |         .----C----C---C-----C------------------.  
 |        /      C         C                     /   
 |       /          C  C  C                     /    
 |      /                                      /     
 |     /                                      /      
 |    /                                      /       
 |   /                                      /        
 |  /                                      /         
 | /                                      /          
 |/                                      /           
 *--------------------------------------*            

Positions:
   0 C      7.216732    8.018755    6.230304
   1 C      8.125382    3.193699    4.772432
   2 C      6.878563    3.785099    5.003931
   3 C      9.254909    3.733691    4.872528
   4 C      6.994755    5.226605    5.413361
   5 C      9.547810    5.049461    5.246283
   6 C      8.308609    5.846477    5.541365
   7 C     10.715932    5.805012    5.393940
   8 C      8.658455    9.887700    6.722931
   9 C      9.694564    9.229946    6.455859
  10 C      9.771382    7.891246    6.055786
  11 C      8.419114    7.244377    5.946798
  12 C     10.809828    7.008931    5.740239
  13 C      4.449652   11.113887    5.093536
  14 C      4.339759    9.874896    5.249214
  15 C      6.477199   12.064456    4.740466
  16 C      5.226181   12.240251    4.885411
  17 C      3.552642    7.476312    5.560722
  18 C      5.886144    6.427313    5.407618
  19 C      4.826527    5.435002    5.532305
  20 C      5.882047    7.828701    5.285486
  21 C      4.517900    8.483880    5.369292
  22 C      5.465243    4.101427    5.487940
  23 C      3.665292    6.200130    5.612699

Unit cell:
           periodic     x           y           z      points  spacing
  1. axis:    yes   16.000000    0.000000    0.000000    80     0.2000
  2. axis:    yes    0.000000   16.000000    0.000000    80     0.2000
  3. axis:    yes    0.000000    0.000000   10.000000    48     0.2083

Effective grid spacing dv^(1/3) = 0.2027

                     log10-error:    total        iterations:
           time      wfs    density  energy       fermi  poisson
iter:   1  11:02:50          +inf  -180.417779    2      6      
iter:   2  11:02:50         -0.88  -178.441606    4      3      
iter:   3  11:02:51         -0.93  -176.148372    3      3      
iter:   4  11:02:51         -1.00  -175.287448    4      3      
iter:   5  11:02:52         -1.08  -174.941832    34     4      
iter:   6  11:02:53         -1.25  -174.541957    4      2      
iter:   7  11:02:53         -1.33  -174.229230    4      3      
iter:   8  11:02:54         -1.61  -174.166309    2      2      
iter:   9  11:02:54         -1.69  -174.174583    3      3      
iter:  10  11:02:55         -1.76  -174.126710    3      3      
iter:  11  11:02:56         -2.03  -174.113292    3      2      
iter:  12  11:02:56         -2.15  -174.100086    3      2      
iter:  13  11:02:57         -2.37  -174.094358    3      2      
iter:  14  11:02:57         -2.61  -174.090342    3      2      
iter:  15  11:02:58         -2.75  -174.090077    2      2      
iter:  16  11:02:59         -2.83  -174.092109    2      1      
iter:  17  11:02:59         -2.88  -174.091377    2      2      
iter:  18  11:03:00         -3.23  -174.107714    3      1      
iter:  19  11:03:00         -3.42  -174.095588    2      1      
iter:  20  11:03:01         -3.67  -174.089079    2      1      
iter:  21  11:03:01         -3.77  -174.089822    2      1      
iter:  22  11:03:02         -3.86  -174.088546    2      1      
iter:  23  11:03:03         -4.00  -174.087147    2      1      

Converged after 23 iterations.

Dipole moment: (-0.188776, -1.520046, -0.187334) |e|*Ang

Energy contributions relative to reference atoms: (reference = -24663.074771)

Kinetic:        +93.313096
Potential:     -102.914098
External:        +0.000000
XC:            -167.304761
Entropy (-ST):   -0.277347
Local:           +2.957289
--------------------------
Free energy:   -174.225821
Extrapolated:  -174.087147

Fermi level: -4.72602

 Band  Eigenvalues  Occupancy
    0    -23.32047    2.00000
    1    -22.26144    2.00000
    2    -21.85422    2.00000
    3    -20.88299    2.00000
    4    -20.28793    2.00000
    5    -20.01279    2.00000
    6    -19.67008    2.00000
    7    -19.15753    2.00000
    8    -18.67202    2.00000
    9    -18.02981    2.00000
   10    -17.53085    2.00000
   11    -17.11006    2.00000
   12    -16.67946    2.00000
   13    -15.79006    2.00000
   14    -15.51433    2.00000
   15    -14.61762    2.00000
   16    -14.45140    2.00000
   17    -13.46562    2.00000
   18    -13.30132    2.00000
   19    -12.82750    2.00000
   20    -12.55489    2.00000
   21    -12.36995    2.00000
   22    -12.06196    2.00000
   23    -11.88557    2.00000
   24    -11.56726    2.00000
   25    -10.88651    2.00000
   26    -10.51092    2.00000
   27    -10.35049    2.00000
   28     -9.75326    2.00000
   29     -9.44461    2.00000
   30     -9.01054    2.00000
   31     -8.67676    2.00000
   32     -8.14705    2.00000
   33     -8.00193    2.00000
   34     -7.85671    2.00000
   35     -7.48753    2.00000
   36     -7.39202    2.00000
   37     -7.03351    2.00000
   38     -6.87163    2.00000
   39     -6.71376    2.00000
   40     -6.61471    2.00000
   41     -6.39129    2.00000
   42     -5.91804    1.99999
   43     -5.79055    1.99995
   44     -5.45038    1.99857
   45     -5.24101    1.98847
   46     -4.97220    1.84285
   47     -4.88470    1.66033
   48     -4.61350    0.49012
   49     -4.26026    0.01880
   50     -3.95780    0.00092
   51     -3.37728    0.00000
   52     -3.30088    0.00000
   53     -3.04405    0.00000
   54     -2.34771    0.00000
   55     -2.31954    0.00000
   56     -1.64221    0.00000
   57     -1.20324    0.00000
   58     -0.85577    0.00000
   59     -0.58559    0.00000
   60     -0.02728    0.00000
   61      0.24626    0.00000
   62      0.34318    0.00000
   63      0.79172    0.00000
   64      0.99908    0.00000
   65      1.95057    0.00000
   66      2.48722    0.00000
   67      2.79734    0.00000
   68      3.08099    0.00000
   69      4.17203    0.00000
   70      4.41237    0.00000
   71      4.54127    0.00000
   72      5.28918    0.00000
   73      5.42067    0.00000
   74      5.93326    0.00000
   75      6.23549    0.00000
   76      6.28773    0.00000
   77      6.82603    0.00000
   78      7.04521    0.00000
   79      7.46053    0.00000
   80      7.83463    0.00000
   81      7.89928    0.00000
   82      8.47800    0.00000
   83      8.66872    0.00000
   84      8.78228    0.00000
   85      8.88016    0.00000
   86      9.00876    0.00000
   87      9.09941    0.00000
   88      9.25567    0.00000
   89      9.31746    0.00000
   90      9.46702    0.00000
   91      9.59150    0.00000
   92      9.63629    0.00000
   93      9.71380    0.00000
   94      9.77271    0.00000
   95      9.88159    0.00000
   96     10.00982    0.00000
   97     10.03794    0.00000


Forces in eV/Ang:
  0 C    -0.91138    0.78194   -2.63801
  1 C    -2.79678   -0.51362    0.41873
  2 C    -3.63382    2.95898    0.74611
  3 C     0.89848    0.24691    0.12958
  4 C     2.81513    4.45482   -1.29982
  5 C     0.10132   -0.00455   -0.02252
  6 C     0.26717   -0.82027    0.56996
  7 C    -0.07375   -0.52711   -0.23165
  8 C    -2.23490    0.94586    0.15888
  9 C     0.88571   -0.79716   -0.35677
 10 C    -0.56008    0.47805    0.53250
 11 C    -0.28525   -0.65631   -0.31615
 12 C    -0.07173    0.34096    0.08776
 13 C     1.29828    0.98611   -0.20279
 14 C    -0.27684   -2.07793    0.31466
 15 C     3.14204    0.54685   -0.40485
 16 C    -3.32161   -0.41817    0.37870
 17 C    -0.25947   -1.06261   -0.17675
 18 C     1.91906   -4.82205   -0.92369
 19 C     0.38005   -0.48111   -0.47598
 20 C     2.69765   -0.13796    3.75461
 21 C    -0.17425    1.19170    0.11206
 22 C     1.19562   -1.11482   -0.07639
 23 C    -0.96579    0.55175   -0.06456

System changes: positions 

Initializing position-dependent things.

Density initialized from wave functions
           .--------------------------------------.  
          /|                                      |  
         / |                                      |  
        /  |                                      |  
       /   |                                      |  
      /    |                                      |  
     /     |                                      |  
    /      |                                      |  
   /       |         C      C C                   |  
  /        |       C    C                         |  
 *         |     CC     C C   C                   |  
 |         |  C     C           C                 |  
 |         .----C--C-C---C-----C------------------.  
 |        /      C         C                     /   
 |       /          C  C  C                     /    
 |      /                                      /     
 |     /                                      /      
 |    /                                      /       
 |   /                                      /        
 |  /                                      /         
 | /                                      /          
 |/                                      /           
 *--------------------------------------*            

Positions:
   0 C      7.210016    8.024517    6.210863
   1 C      8.104771    3.189914    4.775518
   2 C      6.851784    3.806906    5.009429
   3 C      9.261531    3.735510    4.873483
   4 C      7.015501    5.259435    5.403782
   5 C      9.548557    5.049427    5.246118
   6 C      8.310578    5.840432    5.545565
   7 C     10.715388    5.801128    5.392233
   8 C      8.641985    9.894671    6.724102
   9 C      9.701092    9.224071    6.453230
  10 C      9.767254    7.894769    6.059710
  11 C      8.417011    7.239541    5.944468
  12 C     10.809299    7.011444    5.740886
  13 C      4.459220   11.121154    5.092042
  14 C      4.337718    9.859582    5.251533
  15 C      6.500354   12.068486    4.737482
  16 C      5.201702   12.237169    4.888201
  17 C      3.550730    7.468481    5.559420
  18 C      5.900287    6.391776    5.400811
  19 C      4.829328    5.431456    5.528797
  20 C      5.901928    7.827684    5.313156
  21 C      4.516615    8.492663    5.370118
  22 C      5.474055    4.093212    5.487377
  23 C      3.658175    6.204197    5.612223

Unit cell:
           periodic     x           y           z      points  spacing
  1. axis:    yes   16.000000    0.000000    0.000000    80     0.2000
  2. axis:    yes    0.000000   16.000000    0.000000    80     0.2000
  3. axis:    yes    0.000000    0.000000   10.000000    48     0.2083

Effective grid spacing dv^(1/3) = 0.2027

                     log10-error:    total        iterations:
           time      wfs    density  energy       fermi  poisson
iter:   1  11:03:04          +inf  -175.438692    4      5      
iter:   2  11:03:05         -1.71  -175.177313    3      2      
iter:   3  11:03:06         -1.94  -175.084141    3      2      
iter:   4  11:03:06         -2.12  -175.078663    3      2      
iter:   5  11:03:07         -2.24  -175.056538    3      2      
iter:   6  11:03:07         -2.39  -175.060587    3      2      
iter:   7  11:03:08         -2.54  -175.056245    3      1      
iter:   8  11:03:08         -2.67  -175.049919    3      2      
iter:   9  11:03:09         -2.91  -175.051423    2      1      
iter:  10  11:03:10         -3.12  -175.052186    2      1      
iter:  11  11:03:10         -3.31  -175.050801    2      1      
iter:  12  11:03:11         -3.43  -175.050924    2      1      
iter:  13  11:03:11         -3.52  -175.051541    2      1      
iter:  14  11:03:12         -3.72  -175.050978    2      1      
iter:  15  11:03:12         -3.82  -175.050496    2      1      
iter:  16  11:03:13         -4.04  -175.051147    2      1      

Converged after 16 iterations.

Dipole moment: (-0.215469, -1.363007, -0.186280) |e|*Ang

Energy contributions relative to reference atoms: (reference = -24663.074771)

Kinetic:        +86.773525
Potential:      -98.365576
External:        +0.000000
XC:            -166.245826
Entropy (-ST):   -0.283142
Local:           +2.928301
--------------------------
Free energy:   -175.192718
Extrapolated:  -175.051147

Fermi level: -4.69763

 Band  Eigenvalues  Occupancy
    0    -23.30097    2.00000
    1    -22.18149    2.00000
    2    -21.75197    2.00000
    3    -20.79633    2.00000
    4    -20.27512    2.00000
    5    -20.03944    2.00000
    6    -19.63145    2.00000
    7    -19.10168    2.00000
    8    -18.64340    2.00000
    9    -17.98073    2.00000
   10    -17.40576    2.00000
   11    -17.18219    2.00000
   12    -16.56846    2.00000
   13    -15.70996    2.00000
   14    -15.42160    2.00000
   15    -14.64248    2.00000
   16    -14.39946    2.00000
   17    -13.54998    2.00000
   18    -13.18044    2.00000
   19    -12.77833    2.00000
   20    -12.61226    2.00000
   21    -12.44508    2.00000
   22    -11.98663    2.00000
   23    -11.86113    2.00000
   24    -11.49532    2.00000
   25    -10.85132    2.00000
   26    -10.52650    2.00000
   27    -10.35507    2.00000
   28     -9.76249    2.00000
   29     -9.37552    2.00000
   30     -9.18587    2.00000
   31     -8.67840    2.00000
   32     -8.14164    2.00000
   33     -8.03024    2.00000
   34     -7.86098    2.00000
   35     -7.42993    2.00000
   36     -7.31877    2.00000
   37     -6.97204    2.00000
   38     -6.84349    2.00000
   39     -6.66409    2.00000
   40     -6.57643    2.00000
   41     -6.43121    2.00000
   42     -6.11049    2.00000
   43     -5.79231    1.99996
   44     -5.40625    1.99833
   45     -5.21529    1.98877
   46     -4.93375    1.82764
   47     -4.86462    1.68313
   48     -4.57674    0.45979
   49     -4.31295    0.04180
   50     -3.88156    0.00057
   51     -3.42417    0.00001
   52     -3.27330    0.00000
   53     -3.06073    0.00000
   54     -2.34635    0.00000
   55     -2.20081    0.00000
   56     -1.59366    0.00000
   57     -1.20679    0.00000
   58     -1.13101    0.00000
   59     -0.75347    0.00000
   60      0.03667    0.00000
   61      0.11305    0.00000
   62      0.31733    0.00000
   63      0.82392    0.00000
   64      1.27028    0.00000
   65      2.14730    0.00000
   66      2.64071    0.00000
   67      2.80503    0.00000
   68      3.14808    0.00000
   69      4.16743    0.00000
   70      4.44192    0.00000
   71      4.48692    0.00000
   72      5.30562    0.00000
   73      5.44600    0.00000
   74      6.00614    0.00000
   75      6.28881    0.00000
   76      6.34304    0.00000
   77      6.86667    0.00000
   78      7.14983    0.00000
   79      7.49071    0.00000
   80      7.80991    0.00000
   81      8.04267    0.00000
   82      8.52346    0.00000
   83      8.71484    0.00000
   84      8.80242    0.00000
   85      8.91562    0.00000
   86      9.04038    0.00000
   87      9.13163    0.00000
   88      9.24753    0.00000
   89      9.32607    0.00000
   90      9.44287    0.00000
   91      9.54390    0.00000
   92      9.64413    0.00000
   93      9.76667    0.00000
   94      9.76769    0.00000
   95      9.94179    0.00000
   96     10.03287    0.00000
   97     10.12263    0.00000


Forces in eV/Ang:
  0 C    -0.76053    0.47682   -2.65085
  1 C    -1.47808    0.55510    0.66812
  2 C    -2.38910    2.54770    0.64997
  3 C    -0.95197   -0.69139   -0.09197
  4 C     1.90621    3.66939   -1.38461
  5 C     0.09954   -0.13245   -0.00017
  6 C     0.77742   -0.24061    0.51683
  7 C     0.10327    0.15027   -0.04569
  8 C    -0.73695    0.01259   -0.22406
  9 C    -0.71401    0.56687    0.17334
 10 C    -0.46866   -0.01695    0.34180
 11 C    -0.26995   -0.37249   -0.17266
 12 C    -0.13692   -0.19197   -0.04361
 13 C     0.69122   -1.25483    0.11603
 14 C    -0.22316    0.05621    0.04209
 15 C     0.25814    0.88942   -0.07639
 16 C     0.04368    0.02383   -0.07047
 17 C    -0.01973   -0.21551   -0.25045
 18 C     1.93070   -3.33903   -0.75622
 19 C     0.01057   -0.74799   -0.42915
 20 C     2.25466   -0.71387    3.58617
 21 C     0.07021    0.17653    0.27695
 22 C     0.43315   -0.77793   -0.08924
 23 C    -0.44288   -0.34178   -0.04770

System changes: positions 

Initializing position-dependent things.

Density initialized from wave functions
           .--------------------------------------.  
          /|                                      |  
         / |                                      |  
        /  |                                      |  
       /   |                                      |  
      /    |                                      |  
     /     |                                      |  
    /      |                                      |  
   /       |         C      C C                   |  
  /        |       C    C                         |  
 *         |     CC     C C   C                   |  
 |         |  C     C           C                 |  
 |         .----C--C-C---C-----C------------------.  
 |        /      C         C                     /   
 |       /          C  C  C                     /    
 |      /                                      /     
 |     /                                      /      
 |    /                                      /       
 |   /                                      /        
 |  /                                      /         
 | /                                      /          
 |/                                      /           
 *--------------------------------------*            

Positions:
   0 C      7.203073    8.029103    6.187258
   1 C      8.090142    3.193676    4.781195
   2 C      6.829119    3.830061    5.015327
   3 C      9.255098    3.730389    4.872909
   4 C      7.033491    5.292998    5.391539
   5 C      9.549445    5.048389    5.246091
   6 C      8.316940    5.837646    5.550229
   7 C     10.716112    5.801717    5.391620
   8 C      8.633760    9.895816    6.722529
   9 C      9.696501    9.227612    6.454188
  10 C      9.762977    7.895166    6.062966
  11 C      8.414589    7.235908    5.942771
  12 C     10.808151    7.010324    5.740643
  13 C      4.466050   11.112455    5.092723
  14 C      4.335671    9.857720    5.252210
  15 C      6.505847   12.076031    4.736438
  16 C      5.198365   12.236892    4.888071
  17 C      3.550288    7.465623    5.557270
  18 C      5.917476    6.360385    5.393887
  19 C      4.829831    5.425087    5.524921
  20 C      5.922507    7.821961    5.345294
  21 C      4.516970    8.495359    5.372403
  22 C      5.478758    4.085907    5.486596
  23 C      3.653650    6.202141    5.611779

Unit cell:
           periodic     x           y           z      points  spacing
  1. axis:    yes   16.000000    0.000000    0.000000    80     0.2000
  2. axis:    yes    0.000000   16.000000    0.000000    80     0.2000
  3. axis:    yes    0.000000    0.000000   10.000000    48     0.2083

Effective grid spacing dv^(1/3) = 0.2027

                     log10-error:    total        iterations:
           time      wfs    density  energy       fermi  poisson
iter:   1  11:03:15          +inf  -175.946392    3      5      
iter:   2  11:03:15         -1.86  -175.822646    3      2      
iter:   3  11:03:16         -2.09  -175.773484    3      2      
iter:   4  11:03:17         -2.27  -175.761062    3      2      
iter:   5  11:03:17         -2.48  -175.750933    3      2      
iter:   6  11:03:18         -2.55  -175.758182    2      2      
iter:   7  11:03:18         -2.64  -175.750268    2      2      
iter:   8  11:03:19         -2.90  -175.750415    2      2      
iter:   9  11:03:20         -3.04  -175.750805    2      2      
iter:  10  11:03:20         -3.22  -175.749183    2      1      
iter:  11  11:03:21         -3.45  -175.750224    2      1      
iter:  12  11:03:21         -3.56  -175.751049    2      1      
iter:  13  11:03:22         -3.72  -175.750875    2      1      
iter:  14  11:03:22         -3.85  -175.751102    2      1      
iter:  15  11:03:23         -4.01  -175.750792    2      1      

Converged after 15 iterations.

Dipole moment: (-0.217469, -1.327522, -0.170428) |e|*Ang

Energy contributions relative to reference atoms: (reference = -24663.074771)

Kinetic:        +86.827055
Potential:      -98.788400
External:        +0.000000
XC:            -166.597851
Entropy (-ST):   -0.287436
Local:           +2.952123
--------------------------
Free energy:   -175.894510
Extrapolated:  -175.750792

Fermi level: -4.70550

 Band  Eigenvalues  Occupancy
    0    -23.32356    2.00000
    1    -22.16049    2.00000
    2    -21.69470    2.00000
    3    -20.76090    2.00000
    4    -20.33090    2.00000
    5    -20.03358    2.00000
    6    -19.60643    2.00000
    7    -19.06075    2.00000
    8    -18.68811    2.00000
    9    -17.96088    2.00000
   10    -17.38676    2.00000
   11    -17.25872    2.00000
   12    -16.56797    2.00000
   13    -15.68843    2.00000
   14    -15.39117    2.00000
   15    -14.70649    2.00000
   16    -14.37427    2.00000
   17    -13.54237    2.00000
   18    -13.10693    2.00000
   19    -12.75915    2.00000
   20    -12.61277    2.00000
   21    -12.54387    2.00000
   22    -11.94551    2.00000
   23    -11.85250    2.00000
   24    -11.43540    2.00000
   25    -10.86021    2.00000
   26    -10.59275    2.00000
   27    -10.36344    2.00000
   28     -9.80687    2.00000
   29     -9.39598    2.00000
   30     -9.35397    2.00000
   31     -8.68081    2.00000
   32     -8.15701    2.00000
   33     -8.02332    2.00000
   34     -7.87431    2.00000
   35     -7.41765    2.00000
   36     -7.31338    2.00000
   37     -6.98487    2.00000
   38     -6.83353    2.00000
   39     -6.66775    2.00000
   40     -6.55799    2.00000
   41     -6.48804    2.00000
   42     -6.13836    2.00000
   43     -5.83585    1.99998
   44     -5.39579    1.99799
   45     -5.23881    1.99039
   46     -4.94285    1.82957
   47     -4.87361    1.68611
   48     -4.57421    0.42401
   49     -4.37614    0.07159
   50     -3.84429    0.00036
   51     -3.42966    0.00001
   52     -3.29101    0.00000
   53     -3.08603    0.00000
   54     -2.35078    0.00000
   55     -2.07491    0.00000
   56     -1.56915    0.00000
   57     -1.17615    0.00000
   58     -1.16083    0.00000
   59     -0.71767    0.00000
   60      0.04906    0.00000
   61      0.11318    0.00000
   62      0.43888    0.00000
   63      0.85188    0.00000
   64      1.52580    0.00000
   65      2.30113    0.00000
   66      2.67112    0.00000
   67      2.97664    0.00000
   68      3.33901    0.00000
   69      4.14064    0.00000
   70      4.42426    0.00000
   71      4.58387    0.00000
   72      5.31335    0.00000
   73      5.49467    0.00000
   74      6.06161    0.00000
   75      6.34269    0.00000
   76      6.38186    0.00000
   77      6.81689    0.00000
   78      7.19704    0.00000
   79      7.47991    0.00000
   80      7.80086    0.00000
   81      8.16094    0.00000
   82      8.49798    0.00000
   83      8.79153    0.00000
   84      8.84609    0.00000
   85      8.90061    0.00000
   86      9.03213    0.00000
   87      9.11838    0.00000
   88      9.21017    0.00000
   89      9.34994    0.00000
   90      9.40971    0.00000
   91      9.52577    0.00000
   92      9.68918    0.00000
   93      9.76310    0.00000
   94      9.79310    0.00000
   95      9.97570    0.00000
   96     10.06319    0.00000
   97     10.16679    0.00000


Forces in eV/Ang:
  0 C    -0.46561    0.31814   -2.53585
  1 C    -1.43554    0.84493    0.72616
  2 C    -1.39725    2.22730    0.56833
  3 C    -1.22767   -0.61743   -0.09693
  4 C     1.10049    2.69088   -1.42006
  5 C     0.16445   -0.31516   -0.00666
  6 C     1.20081    0.21344    0.43365
  7 C     0.05869   -0.01462   -0.08889
  8 C    -0.67443   -0.08871   -0.26467
  9 C    -0.80591    0.53721    0.16447
 10 C    -0.36550   -0.03516    0.29360
 11 C    -0.12728   -0.08621   -0.03743
 12 C    -0.23068    0.03520    0.04779
 13 C     0.77661   -0.70730    0.05129
 14 C    -0.23428   -0.25907    0.07980
 15 C    -0.20159    0.93238   -0.01912
 16 C     0.42568   -0.11426   -0.10353
 17 C     0.20603   -0.05215   -0.27256
 18 C     1.67277   -2.26517   -0.57897
 19 C    -0.15174   -0.79271   -0.39397
 20 C     1.66529   -0.94201    3.24294
 21 C     0.24359   -0.22934    0.38710
 22 C    -0.19217   -0.63860   -0.08446
 23 C    -0.04500   -0.52910   -0.05931

System changes: positions 

Initializing position-dependent things.

Density initialized from wave functions
           .--------------------------------------.  
          /|                                      |  
         / |                                      |  
        /  |                                      |  
       /   |                                      |  
      /    |                                      |  
     /     |                                      |  
    /      |                                      |  
   /       |         C      C C                   |  
  /        |       C    C                         |  
 *         |     CC     C C   C                   |  
 |         |  C     C           C                 |  
 |         .----C--C--C--C-----C------------------.  
 |        /      C         C                     /   
 |       /          C  C  C                     /    
 |      /                                      /     
 |     /                                      /      
 |    /                                      /       
 |   /                                      /        
 |  /                                      /         
 | /                                      /          
 |/                                      /           
 *--------------------------------------*            

Positions:
   0 C      7.198223    8.032853    6.160279
   1 C      8.072372    3.201154    4.788593
   2 C      6.813246    3.854231    5.021478
   3 C      9.244993    3.725624    4.872275
   4 C      7.045825    5.321895    5.376433
   5 C      9.551303    5.044990    5.245969
   6 C      8.329458    5.839501    5.554855
   7 C     10.716349    5.800067    5.390260
   8 C      8.623840    9.896456    6.720348
   9 C      9.690710    9.230789    6.454952
  10 C      9.759038    7.895684    6.066398
  11 C      8.413400    7.234863    5.942295
  12 C     10.805668    7.012014    5.741529
  13 C      4.475620   11.109821    5.092588
  14 C      4.333045    9.850530    5.253625
  15 C      6.508395   12.085444    4.735704
  16 C      5.197214   12.234650    4.887750
  17 C      3.552371    7.463722    5.554456
  18 C      5.935008    6.334887    5.387626
  19 C      4.828662    5.417027    5.520664
  20 C      5.940333    7.812616    5.379861
  21 C      4.519372    8.494213    5.376400
  22 C      5.477228    4.078638    5.485722
  23 C      3.652761    6.197867    5.611096

Unit cell:
           periodic     x           y           z      points  spacing
  1. axis:    yes   16.000000    0.000000    0.000000    80     0.2000
  2. axis:    yes    0.000000   16.000000    0.000000    80     0.2000
  3. axis:    yes    0.000000    0.000000   10.000000    48     0.2083

Effective grid spacing dv^(1/3) = 0.2027

                     log10-error:    total        iterations:
           time      wfs    density  energy       fermi  poisson
iter:   1  11:03:25          +inf  -176.465028    3      5      
iter:   2  11:03:25         -1.94  -176.375291    3      2      
iter:   3  11:03:26         -2.19  -176.339301    3      2      
iter:   4  11:03:27         -2.36  -176.327402    3      2      
iter:   5  11:03:27         -2.56  -176.321085    2      2      
iter:   6  11:03:28         -2.62  -176.328944    2      2      
iter:   7  11:03:28         -2.68  -176.320868    2      2      
iter:   8  11:03:29         -2.98  -176.318489    2      1      
iter:   9  11:03:29         -3.09  -176.321348    2      2      
iter:  10  11:03:30         -3.26  -176.320685    2      1      
iter:  11  11:03:31         -3.45  -176.319640    2      1      
iter:  12  11:03:31         -3.62  -176.321335    2      1      
iter:  13  11:03:32         -3.71  -176.321937    2      1      
iter:  14  11:03:32         -3.87  -176.321109    2      1      
iter:  15  11:03:33         -4.04  -176.321347    2      1      

Converged after 15 iterations.

Dipole moment: (-0.220731, -1.273810, -0.158226) |e|*Ang

Energy contributions relative to reference atoms: (reference = -24663.074771)

Kinetic:        +88.001987
Potential:      -99.994457
External:        +0.000000
XC:            -167.141910
Entropy (-ST):   -0.295662
Local:           +2.960865
--------------------------
Free energy:   -176.469178
Extrapolated:  -176.321347

Fermi level: -4.71596

 Band  Eigenvalues  Occupancy
    0    -23.33658    2.00000
    1    -22.14937    2.00000
    2    -21.65873    2.00000
    3    -20.74665    2.00000
    4    -20.37951    2.00000
    5    -20.03595    2.00000
    6    -19.59908    2.00000
    7    -19.04046    2.00000
    8    -18.72888    2.00000
    9    -17.94928    2.00000
   10    -17.38160    2.00000
   11    -17.29396    2.00000
   12    -16.56296    2.00000
   13    -15.66355    2.00000
   14    -15.38393    2.00000
   15    -14.75785    2.00000
   16    -14.37082    2.00000
   17    -13.56937    2.00000
   18    -13.06014    2.00000
   19    -12.75659    2.00000
   20    -12.64147    2.00000
   21    -12.58886    2.00000
   22    -11.92711    2.00000
   23    -11.82089    2.00000
   24    -11.38593    2.00000
   25    -10.86838    2.00000
   26    -10.66282    2.00000
   27    -10.35797    2.00000
   28     -9.85043    2.00000
   29     -9.54004    2.00000
   30     -9.34486    2.00000
   31     -8.68713    2.00000
   32     -8.16934    2.00000
   33     -8.03800    2.00000
   34     -7.88795    2.00000
   35     -7.41657    2.00000
   36     -7.30827    2.00000
   37     -6.98797    2.00000
   38     -6.81196    2.00000
   39     -6.66142    2.00000
   40     -6.55406    2.00000
   41     -6.49980    2.00000
   42     -6.16010    2.00000
   43     -5.86587    1.99998
   44     -5.39279    1.99770
   45     -5.25699    1.99110
   46     -4.95064    1.82536
   47     -4.88066    1.67698
   48     -4.58146    0.41340
   49     -4.41639    0.09524
   50     -3.81346    0.00024
   51     -3.42717    0.00001
   52     -3.30771    0.00000
   53     -3.10129    0.00000
   54     -2.34294    0.00000
   55     -1.95785    0.00000
   56     -1.52358    0.00000
   57     -1.20465    0.00000
   58     -1.13261    0.00000
   59     -0.75517    0.00000
   60      0.02132    0.00000
   61      0.14304    0.00000
   62      0.55970    0.00000
   63      0.87728    0.00000
   64      1.74084    0.00000
   65      2.40467    0.00000
   66      2.69178    0.00000
   67      3.15028    0.00000
   68      3.48228    0.00000
   69      4.13827    0.00000
   70      4.40287    0.00000
   71      4.77242    0.00000
   72      5.35556    0.00000
   73      5.54156    0.00000
   74      6.10638    0.00000
   75      6.42358    0.00000
   76      6.44294    0.00000
   77      6.83053    0.00000
   78      7.23215    0.00000
   79      7.52593    0.00000
   80      7.82726    0.00000
   81      8.23724    0.00000
   82      8.52226    0.00000
   83      8.84798    0.00000
   84      8.89031    0.00000
   85      8.94495    0.00000
   86      9.07655    0.00000
   87      9.09620    0.00000
   88      9.20686    0.00000
   89      9.36662    0.00000
   90      9.41678    0.00000
   91      9.52327    0.00000
   92      9.73315    0.00000
   93      9.77756    0.00000
   94      9.83066    0.00000
   95     10.01816    0.00000
   96     10.11050    0.00000
   97     10.20217    0.00000


Forces in eV/Ang:
  0 C    -0.01964    0.20849   -2.24205
  1 C    -1.27616    0.95540    0.74134
  2 C    -0.77739    1.94599    0.51528
  3 C    -1.29568   -0.51287   -0.10498
  4 C     0.95348    1.87666   -1.30730
  5 C     0.18106   -0.41566   -0.00584
  6 C     1.10740    0.42559    0.30774
  7 C     0.11754    0.23182   -0.00706
  8 C    -0.60783   -0.19313   -0.29901
  9 C    -0.88726    0.53745    0.16235
 10 C    -0.27235    0.04265    0.27273
 11 C     0.02677    0.07686    0.03866
 12 C    -0.25663   -0.19002   -0.00003
 13 C     0.62668   -1.21542    0.12349
 14 C    -0.15576    0.26611    0.01259
 15 C    -0.30225    0.93468   -0.01350
 16 C     0.62054    0.00130   -0.13382
 17 C     0.31247   -0.21711   -0.25088
 18 C     1.17169   -1.41555   -0.43002
 19 C    -0.13947   -0.81909   -0.37318
 20 C     1.05842   -1.04779    2.73857
 21 C     0.34787   -0.46920    0.46646
 22 C    -0.69723   -0.48904   -0.11165
 23 C     0.19377   -0.42409   -0.07318

System changes: positions 

Initializing position-dependent things.

Density initialized from wave functions
           .--------------------------------------.  
          /|                                      |  
         / |                                      |  
        /  |                                      |  
       /   |                                      |  
      /    |                                      |  
     /     |                                      |  
    /      |                                      |  
   /       |         C      C C                   |  
  /        |       C    C                         |  
 *         |     CC     C C   C                   |  
 |         |  C     C           C                 |  
 |         .----C--C--C--C-----C------------------.  
 |        /      C         C                     /   
 |       /          C  C  C                     /    
 |      /                                      /     
 |     /                                      /      
 |    /                                      /       
 |   /                                      /        
 |  /                                      /         
 | /                                      /          
 |/                                      /           
 *--------------------------------------*            

Positions:
   0 C      7.198043    8.036262    6.131573
   1 C      8.052226    3.210699    4.797522
   2 C      6.800589    3.880231    5.028346
   3 C      9.233317    3.721783    4.871540
   4 C      7.060281    5.347323    5.359820
   5 C      9.553696    5.039805    5.245827
   6 C      8.342459    5.843741    5.558850
   7 C     10.717394    5.801262    5.389685
   8 C      8.611770    9.896489    6.717523
   9 C      9.683680    9.233839    6.455534
  10 C      9.755374    7.897707    6.070436
  11 C      8.413896    7.235314    5.942511
  12 C     10.802466    7.010993    5.741906
  13 C      4.485386   11.100313    5.093306
  14 C      4.330934    9.848168    5.254528
  15 C      6.512428   12.096593    4.734621
  16 C      5.195970   12.233436    4.887260
  17 C      3.555925    7.458427    5.551425
  18 C      5.949617    6.313512    5.381782
  19 C      4.827847    5.407138    5.515730
  20 C      5.954534    7.800498    5.415238
  21 C      4.523345    8.490651    5.382087
  22 C      5.469670    4.071529    5.484292
  23 C      3.654157    6.194929    5.610083

Unit cell:
           periodic     x           y           z      points  spacing
  1. axis:    yes   16.000000    0.000000    0.000000    80     0.2000
  2. axis:    yes    0.000000   16.000000    0.000000    80     0.2000
  3. axis:    yes    0.000000    0.000000   10.000000    48     0.2083

Effective grid spacing dv^(1/3) = 0.2027

                     log10-error:    total        iterations:
           time      wfs    density  energy       fermi  poisson
iter:   1  11:03:35          +inf  -176.912313    3      5      
iter:   2  11:03:35         -2.02  -176.841399    3      2      
iter:   3  11:03:36         -2.27  -176.816439    3      2      
iter:   4  11:03:36         -2.43  -176.808634    3      2      
iter:   5  11:03:37         -2.56  -176.804819    2      2      
iter:   6  11:03:38         -2.64  -176.810203    2      2      
iter:   7  11:03:38         -2.74  -176.801422    2      1      
iter:   8  11:03:39         -3.02  -176.801177    2      1      
iter:   9  11:03:39         -3.12  -176.803159    2      1      
iter:  10  11:03:40         -3.25  -176.801663    2      1      
iter:  11  11:03:40         -3.33  -176.805046    2      1      
iter:  12  11:03:41         -3.54  -176.805273    2      1      
iter:  13  11:03:42         -3.59  -176.802959    2      1      
iter:  14  11:03:42         -3.77  -176.805335    2      1      
iter:  15  11:03:43         -3.75  -176.804144    2      1      
iter:  16  11:03:43         -4.07  -176.803960    2      1      

Converged after 16 iterations.

Dipole moment: (-0.209603, -1.230689, -0.143542) |e|*Ang

Energy contributions relative to reference atoms: (reference = -24663.074771)

Kinetic:        +90.844236
Potential:     -102.513906
External:        +0.000000
XC:            -167.947793
Entropy (-ST):   -0.304075
Local:           +2.965540
--------------------------
Free energy:   -176.955997
Extrapolated:  -176.803960

Fermi level: -4.73668

 Band  Eigenvalues  Occupancy
    0    -23.34016    2.00000
    1    -22.15058    2.00000
    2    -21.63815    2.00000
    3    -20.74477    2.00000
    4    -20.43150    2.00000
    5    -20.02857    2.00000
    6    -19.59883    2.00000
    7    -19.01492    2.00000
    8    -18.76822    2.00000
    9    -17.94862    2.00000
   10    -17.40834    2.00000
   11    -17.30200    2.00000
   12    -16.58570    2.00000
   13    -15.65516    2.00000
   14    -15.38622    2.00000
   15    -14.79485    2.00000
   16    -14.36897    2.00000
   17    -13.57425    2.00000
   18    -13.03601    2.00000
   19    -12.74489    2.00000
   20    -12.70242    2.00000
   21    -12.58280    2.00000
   22    -11.92649    2.00000
   23    -11.77744    2.00000
   24    -11.35256    2.00000
   25    -10.88009    2.00000
   26    -10.73350    2.00000
   27    -10.34980    2.00000
   28     -9.90030    2.00000
   29     -9.62711    2.00000
   30     -9.34364    2.00000
   31     -8.69598    2.00000
   32     -8.19221    2.00000
   33     -8.04557    2.00000
   34     -7.89705    2.00000
   35     -7.41543    2.00000
   36     -7.31926    2.00000
   37     -6.99621    2.00000
   38     -6.79631    2.00000
   39     -6.67573    2.00000
   40     -6.58416    2.00000
   41     -6.47764    2.00000
   42     -6.18290    2.00000
   43     -5.89419    1.99998
   44     -5.40297    1.99745
   45     -5.28915    1.99206
   46     -4.96762    1.81930
   47     -4.89389    1.65617
   48     -4.60891    0.43587
   49     -4.44116    0.09898
   50     -3.81055    0.00019
   51     -3.43011    0.00000
   52     -3.29525    0.00000
   53     -3.08150    0.00000
   54     -2.33417    0.00000
   55     -1.83986    0.00000
   56     -1.46618    0.00000
   57     -1.23132    0.00000
   58     -1.09076    0.00000
   59     -0.72755    0.00000
   60     -0.01449    0.00000
   61      0.17875    0.00000
   62      0.68801    0.00000
   63      0.90434    0.00000
   64      1.94613    0.00000
   65      2.47072    0.00000
   66      2.73805    0.00000
   67      3.27082    0.00000
   68      3.62300    0.00000
   69      4.13783    0.00000
   70      4.40317    0.00000
   71      4.96086    0.00000
   72      5.40674    0.00000
   73      5.58107    0.00000
   74      6.13524    0.00000
   75      6.51058    0.00000
   76      6.53865    0.00000
   77      6.82695    0.00000
   78      7.26875    0.00000
   79      7.57676    0.00000
   80      7.87159    0.00000
   81      8.22941    0.00000
   82      8.58377    0.00000
   83      8.85098    0.00000
   84      8.89452    0.00000
   85      8.96714    0.00000
   86      9.06360    0.00000
   87      9.19095    0.00000
   88      9.26733    0.00000
   89      9.37959    0.00000
   90      9.45349    0.00000
   91      9.52171    0.00000
   92      9.74895    0.00000
   93      9.79934    0.00000
   94      9.88145    0.00000
   95     10.06470    0.00000
   96     10.14859    0.00000
   97     10.22826    0.00000


Forces in eV/Ang:
  0 C     0.50978    0.17103   -1.81962
  1 C    -1.05582    1.01444    0.72284
  2 C    -0.37714    1.67271    0.50314
  3 C    -1.33119   -0.42982   -0.11355
  4 C     0.81599    1.13895   -1.16469
  5 C     0.21102   -0.42499    0.01908
  6 C     1.00950    0.52067    0.11653
  7 C     0.10153    0.04043   -0.04263
  8 C    -0.54045   -0.26352   -0.31940
  9 C    -0.92938    0.54815    0.16064
 10 C    -0.12422    0.04109    0.22918
 11 C     0.15870    0.19987    0.07475
 12 C    -0.26827    0.02630    0.08743
 13 C     0.70856   -0.70822    0.05478
 14 C    -0.13557   -0.27498    0.08779
 15 C    -0.51957    0.93301   -0.00019
 16 C     0.78796   -0.10132   -0.13945
 17 C     0.39806    0.03125   -0.25213
 18 C     0.68249   -0.69881   -0.25130
 19 C    -0.16070   -0.80618   -0.34669
 20 C     0.35594   -1.07847    2.14346
 21 C     0.34960   -0.48080    0.52209
 22 C    -1.08028   -0.37858   -0.19896
 23 C     0.41857   -0.65870   -0.07357

System changes: positions 

Initializing position-dependent things.

Density initialized from wave functions
           .--------------------------------------.  
          /|                                      |  
         / |                                      |  
        /  |                                      |  
       /   |                                      |  
      /    |                                      |  
     /     |                                      |  
    /      |                                      |  
   /       |         C      C C                   |  
  /        |       C    C                         |  
 *         |     CC     C C   C                   |  
 |         |  C     C           C                 |  
 |         .----C--C--C--C-----C------------------.  
 |        /      C         C                     /   
 |       /          C  C  C                     /    
 |      /                                      /     
 |     /                                      /      
 |    /                                      /       
 |   /                                      /        
 |  /                                      /         
 | /                                      /          
 |/                                      /           
 *--------------------------------------*            

Positions:
   0 C      7.204290    8.040261    6.101924
   1 C      8.030877    3.222780    4.808108
   2 C      6.788371    3.908999    5.036771
   3 C      9.218653    3.717714    4.870470
   4 C      7.077669    5.370667    5.341479
   5 C      9.556886    5.033796    5.246027
   6 C      8.356263    5.849236    5.561314
   7 C     10.718545    5.800368    5.388558
   8 C      8.598225    9.895570    6.713785
   9 C      9.674281    9.238202    6.456405
  10 C      9.752702    7.899976    6.074825
  11 C      8.415914    7.236903    5.942957
  12 C     10.798600    7.012339    5.743404
  13 C      4.498244   11.094416    5.093389
  14 C      4.328609    9.838506    5.256591
  15 C      6.514522   12.110206    4.733453
  16 C      5.196815   12.230839    4.886546
  17 C      3.560951    7.455512    5.547709
  18 C      5.961595    6.294792    5.376685
  19 C      4.826790    5.395275    5.509989
  20 C      5.963697    7.785681    5.451245
  21 C      4.527818    8.486951    5.389558
  22 C      5.456641    4.064055    5.481320
  23 C      3.658095    6.188068    5.608883

Unit cell:
           periodic     x           y           z      points  spacing
  1. axis:    yes   16.000000    0.000000    0.000000    80     0.2000
  2. axis:    yes    0.000000   16.000000    0.000000    80     0.2000
  3. axis:    yes    0.000000    0.000000   10.000000    48     0.2083

Effective grid spacing dv^(1/3) = 0.2027

                     log10-error:    total        iterations:
           time      wfs    density  energy       fermi  poisson
iter:   1  11:03:45          +inf  -177.310330    3      5      
iter:   2  11:03:46         -2.08  -177.256784    3      2      
iter:   3  11:03:46         -2.30  -177.239209    3      2      
iter:   4  11:03:47         -2.44  -177.232497    3      2      
iter:   5  11:03:47         -2.56  -177.230482    3      2      
iter:   6  11:03:48         -2.65  -177.231737    2      2      
iter:   7  11:03:49         -2.88  -177.227296    2      1      
iter:   8  11:03:49         -3.08  -177.227279    2      1      
iter:   9  11:03:50         -3.19  -177.228352    2      1      
iter:  10  11:03:50         -3.38  -177.228073    2      1      
iter:  11  11:03:51         -3.44  -177.231513    2      1      
iter:  12  11:03:51         -3.53  -177.229999    2      1      
iter:  13  11:03:52         -3.66  -177.228810    2      1      
iter:  14  11:03:53         -3.95  -177.230014    2      1      
iter:  15  11:03:53         -4.00  -177.229454    2      1      

Converged after 15 iterations.

Dipole moment: (-0.192891, -1.164288, -0.132759) |e|*Ang

Energy contributions relative to reference atoms: (reference = -24663.074771)

Kinetic:        +93.817175
Potential:     -105.111229
External:        +0.000000
XC:            -168.749283
Entropy (-ST):   -0.308022
Local:           +2.967894
--------------------------
Free energy:   -177.383465
Extrapolated:  -177.229454

Fermi level: -4.76245

 Band  Eigenvalues  Occupancy
    0    -23.32653    2.00000
    1    -22.15071    2.00000
    2    -21.61814    2.00000
    3    -20.75131    2.00000
    4    -20.46122    2.00000
    5    -20.03306    2.00000
    6    -19.60741    2.00000
    7    -19.00592    2.00000
    8    -18.79341    2.00000
    9    -17.94002    2.00000
   10    -17.44121    2.00000
   11    -17.29745    2.00000
   12    -16.59455    2.00000
   13    -15.64771    2.00000
   14    -15.38163    2.00000
   15    -14.81669    2.00000
   16    -14.39551    2.00000
   17    -13.60833    2.00000
   18    -13.01613    2.00000
   19    -12.74785    2.00000
   20    -12.73526    2.00000
   21    -12.57523    2.00000
   22    -11.93503    2.00000
   23    -11.70634    2.00000
   24    -11.32470    2.00000
   25    -10.89181    2.00000
   26    -10.78162    2.00000
   27    -10.32846    2.00000
   28     -9.94608    2.00000
   29     -9.67288    2.00000
   30     -9.34160    2.00000
   31     -8.70822    2.00000
   32     -8.20347    2.00000
   33     -8.06860    2.00000
   34     -7.90349    2.00000
   35     -7.41466    2.00000
   36     -7.33239    2.00000
   37     -6.98969    2.00000
   38     -6.78291    2.00000
   39     -6.67337    2.00000
   40     -6.60023    2.00000
   41     -6.45267    2.00000
   42     -6.20677    2.00000
   43     -5.90917    1.99998
   44     -5.41280    1.99701
   45     -5.32314    1.99268
   46     -4.99227    1.81744
   47     -4.91087    1.63041
   48     -4.64800    0.48298
   49     -4.44380    0.07935
   50     -3.80779    0.00014
   51     -3.42944    0.00000
   52     -3.28895    0.00000
   53     -3.06790    0.00000
   54     -2.32666    0.00000
   55     -1.73196    0.00000
   56     -1.39682    0.00000
   57     -1.25480    0.00000
   58     -1.07163    0.00000
   59     -0.76462    0.00000
   60     -0.03671    0.00000
   61      0.22888    0.00000
   62      0.80908    0.00000
   63      0.93446    0.00000
   64      2.16110    0.00000
   65      2.53216    0.00000
   66      2.80682    0.00000
   67      3.34700    0.00000
   68      3.78865    0.00000
   69      4.13799    0.00000
   70      4.42399    0.00000
   71      5.11975    0.00000
   72      5.45137    0.00000
   73      5.62246    0.00000
   74      6.16110    0.00000
   75      6.58983    0.00000
   76      6.62800    0.00000
   77      6.84653    0.00000
   78      7.32758    0.00000
   79      7.65719    0.00000
   80      7.94465    0.00000
   81      8.20493    0.00000
   82      8.64840    0.00000
   83      8.84512    0.00000
   84      8.91147    0.00000
   85      8.97355    0.00000
   86      9.06127    0.00000
   87      9.20051    0.00000
   88      9.35626    0.00000
   89      9.40620    0.00000
   90      9.52687    0.00000
   91      9.55475    0.00000
   92      9.77167    0.00000
   93      9.82883    0.00000
   94      9.96234    0.00000
   95     10.11358    0.00000
   96     10.20751    0.00000
   97     10.25311    0.00000


Forces in eV/Ang:
  0 C     0.90336    0.20267   -1.38753
  1 C    -0.97027    1.01358    0.67565
  2 C    -0.02457    1.36825    0.48980
  3 C    -1.13847   -0.23625   -0.10252
  4 C     0.54439    0.47802   -0.94936
  5 C     0.19419   -0.46590    0.03462
  6 C     0.86837    0.59351   -0.07566
  7 C     0.15102    0.18492    0.02852
  8 C    -0.59829   -0.27265   -0.33207
  9 C    -0.86530    0.44999    0.13229
 10 C     0.01983    0.12433    0.20652
 11 C     0.29657    0.25814    0.06425
 12 C    -0.22719   -0.12251    0.06189
 13 C     0.58431   -1.12592    0.09778
 14 C    -0.02163    0.26512    0.04789
 15 C    -0.49900    0.90857   -0.00497
 16 C     0.80009   -0.05981   -0.13471
 17 C     0.41545   -0.30128   -0.21635
 18 C     0.31926   -0.02041   -0.06841
 19 C    -0.15228   -0.84337   -0.33006
 20 C    -0.16199   -1.08226    1.54053
 21 C     0.38678   -0.67856    0.57543
 22 C    -1.35831   -0.29918   -0.25861
 23 C     0.46821   -0.36414   -0.09309

System changes: positions 

Initializing position-dependent things.

Density initialized from wave functions
           .--------------------------------------.  
          /|                                      |  
         / |                                      |  
        /  |                                      |  
       /   |                                      |  
      /    |                                      |  
     /     |                                      |  
    /      |                                      |  
   /       |         C      C C                   |  
  /        |       C    C                         |  
 *         |     CC     C C   C                   |  
 |         |  C     C           C                 |  
 |         .----C--C--C--C-----C------------------.  
 |        /      C  C      C                     /   
 |       /             C  C                     /    
 |      /                                      /     
 |     /                                      /      
 |    /                                      /       
 |   /                                      /        
 |  /                                      /         
 | /                                      /          
 |/                                      /           
 *--------------------------------------*            

Positions:
   0 C      7.216142    8.045810    6.072015
   1 C      8.006295    3.236808    4.819992
   2 C      6.776969    3.939724    5.046780
   3 C      9.204171    3.715323    4.869368
   4 C      7.095150    5.391406    5.322450
   5 C      9.560371    5.026364    5.246488
   6 C      8.370753    5.856136    5.561841
   7 C     10.720516    5.800910    5.388074
   8 C      8.581117    9.894609    6.709236
   9 C      9.664180    9.242053    6.457066
  10 C      9.751311    7.903680    6.079797
  11 C      8.419855    7.239113    5.943095
  12 C     10.794689    7.012198    5.744880
  13 C      4.512065   11.082205    5.093983
  14 C      4.327296    9.833803    5.258598
  15 C      6.517661   12.126064    4.731967
  16 C      5.197481   12.228154    4.885832
  17 C      3.566834    7.447575    5.543751
  18 C      5.972018    6.279721    5.372797
  19 C      4.825678    5.380671    5.503322
  20 C      5.968939    7.768306    5.486891
  21 C      4.533366    8.480404    5.398989
  22 C      5.438616    4.055872    5.476991
  23 C      3.662745    6.183960    5.607211

Unit cell:
           periodic     x           y           z      points  spacing
  1. axis:    yes   16.000000    0.000000    0.000000    80     0.2000
  2. axis:    yes    0.000000   16.000000    0.000000    80     0.2000
  3. axis:    yes    0.000000    0.000000   10.000000    48     0.2083

Effective grid spacing dv^(1/3) = 0.2027

                     log10-error:    total        iterations:
           time      wfs    density  energy       fermi  poisson
iter:   1  11:03:55          +inf  -177.651186    3      5      
iter:   2  11:03:56         -2.20  -177.625003    3      2      
iter:   3  11:03:56         -2.35  -177.614885    3      2      
iter:   4  11:03:57         -2.46  -177.611957    3      2      
iter:   5  11:03:57         -2.55  -177.611326    2      2      
iter:   6  11:03:58         -2.67  -177.608995    3      2      
iter:   7  11:03:59         -3.06  -177.610890    2      2      
iter:   8  11:03:59         -3.17  -177.610255    2      1      
iter:   9  11:04:00         -3.41  -177.609974    2      1      
iter:  10  11:04:00         -3.50  -177.610677    2      1      
iter:  11  11:04:01         -3.61  -177.610501    2      1      
iter:  12  11:04:01         -3.82  -177.610918    2      1      
iter:  13  11:04:02         -4.00  -177.610358    2      1      
iter:  14  11:04:02         -4.09  -177.610044    1      1      

Converged after 14 iterations.

Dipole moment: (-0.161318, -1.109974, -0.119843) |e|*Ang

Energy contributions relative to reference atoms: (reference = -24663.074771)

Kinetic:        +97.201398
Potential:     -108.056124
External:        +0.000000
XC:            -169.580016
Entropy (-ST):   -0.307293
Local:           +2.978344
--------------------------
Free energy:   -177.763691
Extrapolated:  -177.610044

Fermi level: -4.79269

 Band  Eigenvalues  Occupancy
    0    -23.31080    2.00000
    1    -22.15875    2.00000
    2    -21.60796    2.00000
    3    -20.76292    2.00000
    4    -20.48250    2.00000
    5    -20.03414    2.00000
    6    -19.62311    2.00000
    7    -18.98783    2.00000
    8    -18.79449    2.00000
    9    -17.94483    2.00000
   10    -17.48296    2.00000
   11    -17.28777    2.00000
   12    -16.62492    2.00000
   13    -15.64783    2.00000
   14    -15.38304    2.00000
   15    -14.82812    2.00000
   16    -14.41928    2.00000
   17    -13.62694    2.00000
   18    -13.02050    2.00000
   19    -12.79058    2.00000
   20    -12.70816    2.00000
   21    -12.55655    2.00000
   22    -11.94908    2.00000
   23    -11.62857    2.00000
   24    -11.30216    2.00000
   25    -10.91278    2.00000
   26    -10.81359    2.00000
   27    -10.31055    2.00000
   28     -9.98219    2.00000
   29     -9.69447    2.00000
   30     -9.34441    2.00000
   31     -8.71840    2.00000
   32     -8.22016    2.00000
   33     -8.08464    2.00000
   34     -7.91084    2.00000
   35     -7.41067    2.00000
   36     -7.36674    2.00000
   37     -6.98476    2.00000
   38     -6.77358    2.00000
   39     -6.68390    2.00000
   40     -6.62380    2.00000
   41     -6.42178    2.00000
   42     -6.22816    2.00000
   43     -5.92174    1.99998
   44     -5.43339    1.99671
   45     -5.36809    1.99368
   46     -5.02491    1.82140
   47     -4.93464    1.61052
   48     -4.68713    0.51629
   49     -4.44728    0.06130
   50     -3.82877    0.00013
   51     -3.43933    0.00000
   52     -3.25047    0.00000
   53     -3.03411    0.00000
   54     -2.32121    0.00000
   55     -1.65736    0.00000
   56     -1.32480    0.00000
   57     -1.25603    0.00000
   58     -1.03984    0.00000
   59     -0.73293    0.00000
   60     -0.06522    0.00000
   61      0.26656    0.00000
   62      0.88353    0.00000
   63      0.99130    0.00000
   64      2.34844    0.00000
   65      2.57092    0.00000
   66      2.92732    0.00000
   67      3.41363    0.00000
   68      3.95589    0.00000
   69      4.15982    0.00000
   70      4.46852    0.00000
   71      5.23209    0.00000
   72      5.45939    0.00000
   73      5.64694    0.00000
   74      6.21338    0.00000
   75      6.57737    0.00000
   76      6.73919    0.00000
   77      6.86871    0.00000
   78      7.37119    0.00000
   79      7.71490    0.00000
   80      8.01118    0.00000
   81      8.20111    0.00000
   82      8.68736    0.00000
   83      8.83786    0.00000
   84      8.91801    0.00000
   85      8.98014    0.00000
   86      9.07821    0.00000
   87      9.19742    0.00000
   88      9.37417    0.00000
   89      9.42665    0.00000
   90      9.52964    0.00000
   91      9.63736    0.00000
   92      9.78135    0.00000
   93      9.85927    0.00000
   94     10.05894    0.00000
   95     10.14787    0.00000
   96     10.24348    0.00000
   97     10.27273    0.00000


Forces in eV/Ang:
  0 C     1.14576    0.25944   -0.99403
  1 C    -0.72688    1.04372    0.62623
  2 C     0.23171    1.01377    0.47639
  3 C    -1.09525   -0.17734   -0.09819
  4 C     0.28529    0.00114   -0.68676
  5 C     0.19166   -0.40758    0.05819
  6 C     0.70185    0.58653   -0.24999
  7 C     0.16042    0.10912    0.04288
  8 C    -0.52931   -0.34732   -0.35190
  9 C    -0.86984    0.48022    0.15244
 10 C     0.19126    0.12916    0.15436
 11 C     0.39654    0.31350    0.01955
 12 C    -0.15890   -0.03973    0.10589
 13 C     0.64157   -0.63289    0.05201
 14 C     0.03736   -0.24055    0.12545
 15 C    -0.55208    0.88246    0.00913
 16 C     0.81439   -0.16656   -0.11555
 17 C     0.41072    0.01422   -0.21869
 18 C     0.02681    0.47828    0.07649
 19 C    -0.21610   -0.77461   -0.32778
 20 C    -0.52072   -0.99520    0.99842
 21 C     0.37040   -0.63345    0.59320
 22 C    -1.50576   -0.20187   -0.32405
 23 C     0.57164   -0.64883   -0.08691

System changes: positions 

Initializing position-dependent things.

Density initialized from wave functions
           .--------------------------------------.  
          /|                                      |  
         / |                                      |  
        /  |                                      |  
       /   |                                      |  
      /    |                                      |  
     /     |                                      |  
    /      |                                      |  
   /       |         C      C C                   |  
  /        |       C    C                         |  
 *         |     CC     C C   C                   |  
 |         |  C     C           C                 |  
 |         .----C--C--C--C-----C------------------.  
 |        /      C  C      C                     /   
 |       /            C   C                     /    
 |      /                                      /     
 |     /                                      /      
 |    /                                      /       
 |   /                                      /        
 |  /                                      /         
 | /                                      /          
 |/                                      /           
 *--------------------------------------*            

Positions:
   0 C      7.232665    8.053412    6.041924
   1 C      7.981061    3.253789    4.833313
   2 C      6.766026    3.971230    5.058484
   3 C      9.187490    3.712852    4.868072
   4 C      7.112596    5.410694    5.303821
   5 C      9.564299    5.018661    5.247371
   6 C      8.385140    5.863681    5.560162
   7 C     10.723164    5.801282    5.387945
   8 C      8.562327    9.892223    6.703490
   9 C      9.651766    9.247587    6.458372
  10 C      9.751978    7.907983    6.084928
  11 C      8.425666    7.242102    5.942378
  12 C     10.791252    7.012334    5.746955
  13 C      4.528712   11.072604    5.094339
  14 C      4.326694    9.823029    5.261842
  15 C      6.520390   12.144475    4.730461
  16 C      5.199046   12.223901    4.885158
  17 C      3.573358    7.442538    5.539055
  18 C      5.981011    6.267676    5.370000
  19 C      4.823480    5.364378    5.495410
  20 C      5.971366    7.749232    5.521966
  21 C      4.539557    8.473398    5.410242
  22 C      5.416198    4.047466    5.471006
  23 C      3.669098    6.175213    5.605344

Unit cell:
           periodic     x           y           z      points  spacing
  1. axis:    yes   16.000000    0.000000    0.000000    80     0.2000
  2. axis:    yes    0.000000   16.000000    0.000000    80     0.2000
  3. axis:    yes    0.000000    0.000000   10.000000    48     0.2083

Effective grid spacing dv^(1/3) = 0.2027

                     log10-error:    total        iterations:
           time      wfs    density  energy       fermi  poisson
iter:   1  11:04:04          +inf  -177.983282    3      5      
iter:   2  11:04:05         -2.22  -177.967345    3      1      
iter:   3  11:04:06         -2.34  -177.956445    3      2      
iter:   4  11:04:06         -2.47  -177.959675    2      2      
iter:   5  11:04:07         -2.56  -177.954994    3      2      
iter:   6  11:04:07         -2.70  -177.956203    3      2      
iter:   7  11:04:08         -2.99  -177.954059    2      1      
iter:   8  11:04:08         -3.15  -177.952043    2      1      
iter:   9  11:04:09         -3.39  -177.953907    2      1      
iter:  10  11:04:10         -3.54  -177.954906    2      1      
iter:  11  11:04:10         -3.63  -177.955169    2      1      
iter:  12  11:04:11         -3.75  -177.955253    2      1      
iter:  13  11:04:11         -3.85  -177.955068    2      1      
iter:  14  11:04:12         -3.93  -177.954747    2      1      
iter:  15  11:04:12         -4.12  -177.954754    2      1      

Converged after 15 iterations.

Dipole moment: (-0.127244, -1.044167, -0.110731) |e|*Ang

Energy contributions relative to reference atoms: (reference = -24663.074771)

Kinetic:        +99.976954
Potential:     -110.486773
External:        +0.000000
XC:            -170.268059
Entropy (-ST):   -0.297723
Local:           +2.971986
--------------------------
Free energy:   -178.103615
Extrapolated:  -177.954754

Fermi level: -4.81796

 Band  Eigenvalues  Occupancy
    0    -23.29056    2.00000
    1    -22.16170    2.00000
    2    -21.59894    2.00000
    3    -20.77227    2.00000
    4    -20.48846    2.00000
    5    -20.04078    2.00000
    6    -19.64534    2.00000
    7    -18.97542    2.00000
    8    -18.78682    2.00000
    9    -17.94610    2.00000
   10    -17.52545    2.00000
   11    -17.26723    2.00000
   12    -16.63827    2.00000
   13    -15.64379    2.00000
   14    -15.38139    2.00000
   15    -14.83128    2.00000
   16    -14.46505    2.00000
   17    -13.66365    2.00000
   18    -13.03235    2.00000
   19    -12.82541    2.00000
   20    -12.68724    2.00000
   21    -12.52225    2.00000
   22    -11.95950    2.00000
   23    -11.53663    2.00000
   24    -11.27564    2.00000
   25    -10.93301    2.00000
   26    -10.82729    2.00000
   27    -10.28301    2.00000
   28    -10.00227    2.00000
   29     -9.70500    2.00000
   30     -9.34816    2.00000
   31     -8.72713    2.00000
   32     -8.22695    2.00000
   33     -8.10725    2.00000
   34     -7.91490    2.00000
   35     -7.41674    2.00000
   36     -7.40389    2.00000
   37     -6.96158    2.00000
   38     -6.77504    2.00000
   39     -6.67730    2.00000
   40     -6.63150    2.00000
   41     -6.39760    2.00000
   42     -6.25138    2.00000
   43     -5.92441    1.99997
   44     -5.45273    1.99650
   45     -5.40792    1.99453
   46     -5.05842    1.83434
   47     -4.96044    1.61218
   48     -4.71281    0.51786
   49     -4.43965    0.04449
   50     -3.84483    0.00012
   51     -3.43757    0.00000
   52     -3.22499    0.00000
   53     -3.00320    0.00000
   54     -2.31571    0.00000
   55     -1.61415    0.00000
   56     -1.31620    0.00000
   57     -1.20447    0.00000
   58     -1.03738    0.00000
   59     -0.73910    0.00000
   60     -0.07199    0.00000
   61      0.30146    0.00000
   62      0.90700    0.00000
   63      1.08660    0.00000
   64      2.46670    0.00000
   65      2.62517    0.00000
   66      3.09093    0.00000
   67      3.48279    0.00000
   68      4.08104    0.00000
   69      4.18533    0.00000
   70      4.54882    0.00000
   71      5.31317    0.00000
   72      5.43633    0.00000
   73      5.66269    0.00000
   74      6.27812    0.00000
   75      6.51005    0.00000
   76      6.81678    0.00000
   77      6.92820    0.00000
   78      7.42837    0.00000
   79      7.74856    0.00000
   80      8.06534    0.00000
   81      8.25670    0.00000
   82      8.70518    0.00000
   83      8.84256    0.00000
   84      8.92822    0.00000
   85      8.98754    0.00000
   86      9.10374    0.00000
   87      9.19297    0.00000
   88      9.38156    0.00000
   89      9.43821    0.00000
   90      9.54028    0.00000
   91      9.67408    0.00000
   92      9.78795    0.00000
   93      9.90181    0.00000
   94     10.13507    0.00000
   95     10.19124    0.00000
   96     10.27534    0.00000
   97     10.30543    0.00000


Forces in eV/Ang:
  0 C     1.12048    0.28870   -0.68925
  1 C    -0.57812    0.97602    0.53688
  2 C     0.39046    0.62703    0.43798
  3 C    -0.91751   -0.04885   -0.05575
  4 C    -0.05577   -0.36546   -0.42970
  5 C     0.16844   -0.34074    0.05343
  6 C     0.55852    0.55976   -0.40748
  7 C     0.15715    0.03171    0.06272
  8 C    -0.60614   -0.35915   -0.36200
  9 C    -0.74475    0.38834    0.13453
 10 C     0.34267    0.18925    0.11215
 11 C     0.49669    0.34188   -0.05170
 12 C    -0.08704    0.02308    0.14581
 13 C     0.54117   -0.89319    0.09662
 14 C     0.15141    0.13235    0.08576
 15 C    -0.53660    0.86099   -0.01458
 16 C     0.82142   -0.14206   -0.10775
 17 C     0.33049   -0.35953   -0.14462
 18 C    -0.18704    0.92788    0.24262
 19 C    -0.23271   -0.69946   -0.29716
 20 C    -0.60626   -0.85202    0.60936
 21 C     0.40216   -0.70365    0.59165
 22 C    -1.46744   -0.16675   -0.43257
 23 C     0.50534   -0.28325   -0.09912

System changes: positions 

Initializing position-dependent things.

Density initialized from wave functions
           .--------------------------------------.  
          /|                                      |  
         / |                                      |  
        /  |                                      |  
       /   |                                      |  
      /    |                                      |  
     /     |                                      |  
    /      |                                      |  
   /       |                C C                   |  
  /        |       C C   C                        |  
 *         |     CC     C C   C                   |  
 |         |  C     C           C                 |  
 |         .----C---C-C--C-----C------------------.  
 |        /      C  C      C                     /   
 |       /            C   C                     /    
 |      /                                      /     
 |     /                                      /      
 |    /                                      /       
 |   /                                      /        
 |  /                                      /         
 | /                                      /          
 |/                                      /           
 *--------------------------------------*            

Positions:
   0 C      7.250943    8.062700    6.011754
   1 C      7.954689    3.272536    4.847331
   2 C      6.755547    4.001594    5.071426
   3 C      9.170437    3.711537    4.867181
   4 C      7.127337    5.427838    5.286305
   5 C      9.568478    5.011004    5.248338
   6 C      8.399642    5.871826    5.555826
   7 C     10.726105    5.800098    5.387993
   8 C      8.539904    9.889054    6.696620
   9 C      9.638977    9.253036    6.459790
  10 C      9.755127    7.913601    6.090119
  11 C      8.433791    7.245933    5.940362
  12 C     10.788447    7.013910    5.750102
  13 C      4.546591   11.058574    5.095335
  14 C      4.327663    9.815067    5.265123
  15 C      6.523008   12.165481    4.728450
  16 C      5.201672   12.219174    4.884433
  17 C      3.579583    7.432062    5.534712
  18 C      5.988462    6.260328    5.369278
  19 C      4.820497    5.346828    5.486739
  20 C      5.973284    7.729515    5.556716
  21 C      4.547090    8.464491    5.423148
  22 C      5.391271    4.038296    5.462377
  23 C      3.675411    6.169777    5.603045

Unit cell:
           periodic     x           y           z      points  spacing
  1. axis:    yes   16.000000    0.000000    0.000000    80     0.2000
  2. axis:    yes    0.000000   16.000000    0.000000    80     0.2000
  3. axis:    yes    0.000000    0.000000   10.000000    48     0.2083

Effective grid spacing dv^(1/3) = 0.2027

                     log10-error:    total        iterations:
           time      wfs    density  energy       fermi  poisson
iter:   1  11:04:14          +inf  -178.272547    3      5      
iter:   2  11:04:15         -2.27  -178.264833    2      1      
iter:   3  11:04:15         -2.35  -178.256799    3      2      
iter:   4  11:04:16         -2.53  -178.258163    2      2      
iter:   5  11:04:17         -2.65  -178.255525    2      2      
iter:   6  11:04:17         -2.79  -178.256035    3      2      
iter:   7  11:04:18         -3.05  -178.253870    2      1      
iter:   8  11:04:18         -3.25  -178.254148    2      1      
iter:   9  11:04:19         -3.48  -178.256572    2      1      
iter:  10  11:04:19         -3.57  -178.255584    2      1      
iter:  11  11:04:20         -3.76  -178.255825    2      1      
iter:  12  11:04:21         -3.82  -178.256121    2      1      
iter:  13  11:04:21         -3.89  -178.255483    2      1      
iter:  14  11:04:22         -3.94  -178.255551    2      1      
iter:  15  11:04:22         -4.24  -178.255537    2      1      

Converged after 15 iterations.

Dipole moment: (-0.088004, -0.995015, -0.099354) |e|*Ang

Energy contributions relative to reference atoms: (reference = -24663.074771)

Kinetic:       +102.557839
Potential:     -112.755687
External:        +0.000000
XC:            -170.888922
Entropy (-ST):   -0.281685
Local:           +2.972075
--------------------------
Free energy:   -178.396380
Extrapolated:  -178.255537

Fermi level: -4.84363

 Band  Eigenvalues  Occupancy
    0    -23.27519    2.00000
    1    -22.16716    2.00000
    2    -21.60301    2.00000
    3    -20.78087    2.00000
    4    -20.48974    2.00000
    5    -20.04791    2.00000
    6    -19.66935    2.00000
    7    -18.95893    2.00000
    8    -18.76295    2.00000
    9    -17.96194    2.00000
   10    -17.56918    2.00000
   11    -17.25412    2.00000
   12    -16.66593    2.00000
   13    -15.63613    2.00000
   14    -15.37978    2.00000
   15    -14.83856    2.00000
   16    -14.50436    2.00000
   17    -13.68938    2.00000
   18    -13.06028    2.00000
   19    -12.85777    2.00000
   20    -12.67491    2.00000
   21    -12.46620    2.00000
   22    -11.96732    2.00000
   23    -11.45812    2.00000
   24    -11.23539    2.00000
   25    -10.95233    2.00000
   26    -10.83940    2.00000
   27    -10.26423    2.00000
   28    -10.00437    2.00000
   29     -9.71065    2.00000
   30     -9.35853    2.00000
   31     -8.73276    2.00000
   32     -8.23868    2.00000
   33     -8.12359    2.00000
   34     -7.92211    2.00000
   35     -7.46971    2.00000
   36     -7.40807    2.00000
   37     -6.94158    2.00000
   38     -6.78184    2.00000
   39     -6.68438    2.00000
   40     -6.62699    2.00000
   41     -6.37830    2.00000
   42     -6.26441    2.00000
   43     -5.92323    1.99996
   44     -5.48231    1.99664
   45     -5.44413    1.99508
   46     -5.09746    1.85356
   47     -4.99280    1.63268
   48     -4.73102    0.48978
   49     -4.43230    0.03218
   50     -3.87404    0.00012
   51     -3.44233    0.00000
   52     -3.17899    0.00000
   53     -2.96386    0.00000
   54     -2.30324    0.00000
   55     -1.58583    0.00000
   56     -1.31750    0.00000
   57     -1.15249    0.00000
   58     -1.01675    0.00000
   59     -0.70352    0.00000
   60     -0.07722    0.00000
   61      0.31957    0.00000
   62      0.90367    0.00000
   63      1.17454    0.00000
   64      2.51436    0.00000
   65      2.68620    0.00000
   66      3.27854    0.00000
   67      3.54682    0.00000
   68      4.15685    0.00000
   69      4.23279    0.00000
   70      4.64583    0.00000
   71      5.31515    0.00000
   72      5.43213    0.00000
   73      5.66509    0.00000
   74      6.31854    0.00000
   75      6.42915    0.00000
   76      6.84649    0.00000
   77      7.00868    0.00000
   78      7.47951    0.00000
   79      7.74331    0.00000
   80      8.09455    0.00000
   81      8.33435    0.00000
   82      8.70166    0.00000
   83      8.84668    0.00000
   84      8.93850    0.00000
   85      8.98727    0.00000
   86      9.12760    0.00000
   87      9.19481    0.00000
   88      9.37737    0.00000
   89      9.43420    0.00000
   90      9.54975    0.00000
   91      9.68888    0.00000
   92      9.78116    0.00000
   93      9.93526    0.00000
   94     10.16188    0.00000
   95     10.25079    0.00000
   96     10.28785    0.00000
   97     10.32223    0.00000


Forces in eV/Ang:
  0 C     0.99863    0.28941   -0.43759
  1 C    -0.28920    0.90310    0.42842
  2 C     0.37949    0.25002    0.39669
  3 C    -0.79534   -0.00119    0.00020
  4 C    -0.34485   -0.54217   -0.13575
  5 C     0.12228   -0.27311    0.03023
  6 C     0.33501    0.50703   -0.55110
  7 C     0.18395    0.18093    0.14566
  8 C    -0.53505   -0.48720   -0.40879
  9 C    -0.74427    0.42065    0.15723
 10 C     0.45428    0.22068    0.08223
 11 C     0.50773    0.35883   -0.15392
 12 C     0.00389   -0.14531    0.11854
 13 C     0.56722   -0.54867    0.05442
 14 C     0.19659   -0.25470    0.14717
 15 C    -0.47862    0.82444   -0.01413
 16 C     0.73196   -0.23653   -0.07633
 17 C     0.27317   -0.03058   -0.10929
 18 C    -0.31421    1.10910    0.39402
 19 C    -0.24493   -0.48305   -0.28877
 20 C    -0.57364   -0.60582    0.26985
 21 C     0.35741   -0.63430    0.59437
 22 C    -1.27551   -0.12768   -0.50544
 23 C     0.49484   -0.57038   -0.09706

System changes: positions 

Initializing position-dependent things.

Density initialized from wave functions
           .--------------------------------------.  
          /|                                      |  
         / |                                      |  
        /  |                                      |  
       /   |                                      |  
      /    |                                      |  
     /     |                                      |  
    /      |                                      |  
   /       |                C C                   |  
  /        |       C C   C                        |  
 *         |     CC C   C C   C                   |  
 |         |  C                 C                 |  
 |         .----C---C-C--C-----C------------------.  
[...]
    9    -18.13669    2.00000
   10    -17.48604    2.00000
   11    -17.42035    2.00000
   12    -16.91957    2.00000
   13    -15.76165    2.00000
   14    -15.34639    2.00000
   15    -14.96344    2.00000
   16    -14.77838    2.00000
   17    -14.30045    2.00000
   18    -13.55062    2.00000
   19    -13.07277    2.00000
   20    -12.63403    2.00000
   21    -12.51157    2.00000
   22    -11.89254    2.00000
   23    -11.54504    2.00000
   24    -11.29030    2.00000
   25    -11.00699    2.00000
   26    -10.92899    2.00000
   27    -10.38076    2.00000
   28     -9.98335    2.00000
   29     -9.65121    2.00000
   30     -9.51657    2.00000
   31     -9.42564    2.00000
   32     -8.83423    2.00000
   33     -8.34326    2.00000
   34     -8.10453    2.00000
   35     -7.89305    2.00000
   36     -7.60231    2.00000
   37     -6.90362    2.00000
   38     -6.82226    2.00000
   39     -6.78180    2.00000
   40     -6.50779    2.00000
   41     -6.47645    2.00000
   42     -6.21142    1.99998
   43     -5.65973    1.99609
   44     -5.48637    1.97808
   45     -5.43919    1.96510
   46     -5.31456    1.88367
   47     -5.10095    1.31332
   48     -5.00861    0.86338
   49     -4.15472    0.00030
   50     -4.00588    0.00007
   51     -3.27142    0.00000
   52     -3.05185    0.00000
   53     -2.79228    0.00000
   54     -2.31929    0.00000
   55     -1.31018    0.00000
   56     -1.25288    0.00000
   57     -1.13367    0.00000
   58     -0.90658    0.00000
   59      0.44019    0.00000
   60      0.77542    0.00000
   61      1.62775    0.00000
   62      2.53735    0.00000
   63      3.07433    0.00000
   64      3.20285    0.00000
   65      3.43779    0.00000
   66      3.77658    0.00000
   67      4.29773    0.00000
   68      4.44092    0.00000
   69      4.55762    0.00000
   70      4.93228    0.00000
   71      5.23942    0.00000
   72      5.47144    0.00000
   73      6.02781    0.00000
   74      6.31821    0.00000
   75      6.61497    0.00000
   76      6.89048    0.00000
   77      7.08896    0.00000
   78      7.24328    0.00000
   79      7.91713    0.00000
   80      8.12615    0.00000
   81      8.48945    0.00000
   82      8.69894    0.00000
   83      8.87523    0.00000
   84      8.93745    0.00000
   85      8.99224    0.00000
   86      9.03475    0.00000
   87      9.22154    0.00000
   88      9.34546    0.00000
   89      9.38262    0.00000
   90      9.55266    0.00000
   91      9.67613    0.00000
   92      9.88409    0.00000
   93      9.97572    0.00000
   94     10.17052    0.00000
   95     10.22465    0.00000
   96     10.31086    0.00000
   97     10.42251    0.00000


Forces in eV/Ang:
  0 C    -0.01163   -0.07596    0.00566
  1 C     0.01840   -0.00097   -0.00221
  2 C    -0.00091   -0.00598    0.01009
  3 C    -0.03090   -0.01735    0.01655
  4 C     0.04237   -0.01368   -0.02207
  5 C    -0.01434   -0.02293   -0.01826
  6 C     0.01689    0.00127    0.01327
  7 C     0.01016   -0.01720    0.01535
  8 C    -0.03680    0.07511   -0.03498
  9 C     0.00650    0.05387    0.01531
 10 C     0.00929   -0.05139   -0.00096
 11 C     0.02652   -0.04631   -0.01603
 12 C     0.02070   -0.00646    0.02314
 13 C     0.00898    0.01297    0.02410
 14 C    -0.04635    0.00796    0.00203
 15 C     0.00864    0.08646    0.00661
 16 C    -0.01757   -0.06505   -0.00636
 17 C    -0.01164   -0.04014   -0.03827
 18 C     0.01921    0.00398   -0.02623
 19 C    -0.02993    0.02847    0.01622
 20 C    -0.00073    0.03335   -0.00467
 21 C     0.00762   -0.13081   -0.02244
 22 C    -0.05316   -0.06078   -0.01434
 23 C    -0.07285   -0.01226    0.00351

System changes: positions 

Initializing position-dependent things.

Density initialized from wave functions
           .--------------------------------------.  
          /|                                      |  
         / |                                      |  
        /  |                                      |  
       /   |                                      |  
      /    |                                      |  
     /     |                                      |  
    /      |           C                          |  
   /       |         C                            |  
  /        |       CC      C  C                   |  
 *         |      C  C  C     C                   |  
 |         |   C   C      C     C                 |  
 |         .--C-C-----C--C-C---C------------------.  
 |        /     C   C    C                       /   
 |       /            C                         /    
 |      /                                      /     
 |     /                                      /      
 |    /                                      /       
 |   /                                      /        
 |  /                                      /         
 | /                                      /          
 |/                                      /           
 *--------------------------------------*            

Positions:
   0 C      7.398667    8.065251    5.838754
   1 C      7.898520    3.182117    5.151129
   2 C      6.686057    3.887450    5.253111
   3 C      9.119021    3.548643    5.247833
   4 C      7.107804    5.274508    5.607798
   5 C      9.588506    4.868449    5.512810
   6 C      8.416601    5.752370    5.711955
   7 C     10.730264    5.685982    5.579643
   8 C      8.105493    9.355091    5.889188
   9 C      9.378932    9.297525    5.923371
  10 C      9.805522    7.903688    5.866426
  11 C      8.518354    7.147680    5.857974
  12 C     10.816647    6.960751    5.727401
  13 C      5.040726   10.973246    5.331160
  14 C      4.864849    9.714997    5.411516
  15 C      5.394145   13.575061    5.072796
  16 C      5.194675   12.293184    5.229109
  17 C      3.734267    7.449633    5.244385
  18 C      6.000751    6.128829    5.590201
  19 C      4.825081    5.263461    5.241359
  20 C      6.081869    7.549241    5.674749
  21 C      4.830998    8.339328    5.456503
  22 C      5.276346    3.928774    5.044995
  23 C      3.771194    6.181638    5.139380

Unit cell:
           periodic     x           y           z      points  spacing
  1. axis:    yes   16.000000    0.000000    0.000000    80     0.2000
  2. axis:    yes    0.000000   16.000000    0.000000    80     0.2000
  3. axis:    yes    0.000000    0.000000   10.000000    48     0.2083

Effective grid spacing dv^(1/3) = 0.2027

                     log10-error:    total        iterations:
           time      wfs    density  energy       fermi  poisson
iter:   1  11:19:27          +inf  -181.988445    3      5      
iter:   2  11:19:28         -2.73  -181.987962    3      1      
iter:   3  11:19:28         -2.91  -181.986252    2      1      
iter:   4  11:19:29         -3.08  -181.985464    2      1      
iter:   5  11:19:29         -3.29  -181.985621    2      1      
iter:   6  11:19:30         -3.39  -181.985316    3      1      
iter:   7  11:19:31         -3.30  -181.984669    2      1      
iter:   8  11:19:31         -3.38  -181.984771    3      1      
iter:   9  11:19:32         -3.61  -181.985112    3      1      
iter:  10  11:19:32         -3.22  -181.984255    3      1      
iter:  11  11:19:33         -3.88  -181.984505    2      1      
iter:  12  11:19:33         -4.20  -181.984461    2      1      

Converged after 12 iterations.

Dipole moment: (0.313894, -1.403402, 0.149157) |e|*Ang

Energy contributions relative to reference atoms: (reference = -24663.074771)

Kinetic:       +114.641341
Potential:     -122.539026
External:        +0.000000
XC:            -176.910377
Entropy (-ST):   -0.343857
Local:           +2.995529
--------------------------
Free energy:   -182.156390
Extrapolated:  -181.984461

Fermi level: -5.03696

 Band  Eigenvalues  Occupancy
    0    -23.24167    2.00000
    1    -22.37347    2.00000
    2    -21.94026    2.00000
    3    -21.04757    2.00000
    4    -20.51570    2.00000
    5    -20.07517    2.00000
    6    -19.72655    2.00000
    7    -18.98195    2.00000
    8    -18.52420    2.00000
    9    -18.13502    2.00000
   10    -17.48031    2.00000
   11    -17.41570    2.00000
   12    -16.92086    2.00000
   13    -15.75604    2.00000
   14    -15.34929    2.00000
   15    -14.96805    2.00000
   16    -14.77763    2.00000
   17    -14.29328    2.00000
   18    -13.53729    2.00000
   19    -13.07504    2.00000
   20    -12.63340    2.00000
   21    -12.52006    2.00000
   22    -11.89442    2.00000
   23    -11.53879    2.00000
   24    -11.28445    2.00000
   25    -11.00633    2.00000
   26    -10.93123    2.00000
   27    -10.38142    2.00000
   28     -9.98480    2.00000
   29     -9.64932    2.00000
   30     -9.52022    2.00000
   31     -9.42469    2.00000
   32     -8.82685    2.00000
   33     -8.34316    2.00000
   34     -8.09499    2.00000
   35     -7.89005    2.00000
   36     -7.60260    2.00000
   37     -6.90809    2.00000
   38     -6.82812    2.00000
   39     -6.78825    2.00000
   40     -6.51179    2.00000
   41     -6.47795    2.00000
   42     -6.21189    1.99998
   43     -5.66061    1.99609
   44     -5.48413    1.97740
   45     -5.43506    1.96335
   46     -5.31211    1.88000
   47     -5.10417    1.32395
   48     -5.00854    0.85884
   49     -4.15736    0.00030
   50     -4.01036    0.00007
   51     -3.28370    0.00000
   52     -3.06202    0.00000
   53     -2.79451    0.00000
   54     -2.31445    0.00000
   55     -1.31242    0.00000
   56     -1.25534    0.00000
   57     -1.13948    0.00000
   58     -0.90878    0.00000
   59      0.43745    0.00000
   60      0.77338    0.00000
   61      1.62466    0.00000
   62      2.52208    0.00000
   63      3.07809    0.00000
   64      3.19918    0.00000
   65      3.42965    0.00000
   66      3.77602    0.00000
   67      4.30231    0.00000
   68      4.42106    0.00000
   69      4.54164    0.00000
   70      4.92146    0.00000
   71      5.21918    0.00000
   72      5.45209    0.00000
   73      6.02422    0.00000
   74      6.32151    0.00000
   75      6.61619    0.00000
   76      6.88199    0.00000
   77      7.08559    0.00000
   78      7.24309    0.00000
   79      7.92611    0.00000
   80      8.11244    0.00000
   81      8.48815    0.00000
   82      8.70140    0.00000
   83      8.87907    0.00000
   84      8.93530    0.00000
   85      8.98956    0.00000
   86      9.02974    0.00000
   87      9.21811    0.00000
   88      9.34792    0.00000
   89      9.38182    0.00000
   90      9.55008    0.00000
   91      9.67685    0.00000
   92      9.88159    0.00000
   93      9.98405    0.00000
   94     10.16960    0.00000
   95     10.22361    0.00000
   96     10.31379    0.00000
   97     10.41758    0.00000


Forces in eV/Ang:
  0 C     0.07019   -0.01152    0.00779
  1 C    -0.00485   -0.02133    0.00581
  2 C     0.00321    0.01014   -0.01000
  3 C     0.02198   -0.00920    0.01431
  4 C     0.02859   -0.04526    0.00136
  5 C     0.00703   -0.01211    0.01622
  6 C     0.03851    0.03490   -0.03548
  7 C    -0.00624   -0.03872    0.00165
  8 C     0.00710   -0.00449   -0.03386
  9 C    -0.02808   -0.05987    0.00176
 10 C     0.01701    0.08105    0.00903
 11 C    -0.05236   -0.01054   -0.00401
 12 C    -0.00838    0.00692    0.01113
 13 C     0.00616   -0.06729    0.01627
 14 C    -0.01570    0.09431   -0.01168
 15 C    -0.01129    0.14331    0.00045
 16 C    -0.02233   -0.15172   -0.00308
 17 C     0.00495    0.00778   -0.01383
 18 C    -0.00543    0.01464   -0.00419
 19 C    -0.02661    0.04089    0.00165
 20 C     0.05319   -0.05604   -0.02543
 21 C    -0.07750    0.07464    0.00103
 22 C     0.05221    0.09924    0.04466
 23 C    -0.01836   -0.07830   -0.00520

System changes: positions 

Initializing position-dependent things.

Density initialized from wave functions
           .--------------------------------------.  
          /|                                      |  
         / |                                      |  
        /  |                                      |  
       /   |                                      |  
      /    |                                      |  
     /     |                                      |  
    /      |           C                          |  
   /       |         C                            |  
  /        |       CC      C  C                   |  
 *         |      C  C  C     C                   |  
 |         |   C   C      C     C                 |  
 |         .--C-C-----C--C-C---C------------------.  
 |        /     C   C    C                       /   
 |       /            C                         /    
 |      /                                      /     
 |     /                                      /      
 |    /                                      /       
 |   /                                      /        
 |  /                                      /         
 | /                                      /          
 |/                                      /           
 *--------------------------------------*            

Positions:
   0 C      7.399731    8.064135    5.837731
   1 C      7.897893    3.181706    5.151668
   2 C      6.685093    3.886597    5.254307
   3 C      9.118510    3.547609    5.247764
   4 C      7.107831    5.273103    5.608776
   5 C      9.588374    4.867293    5.512944
   6 C      8.416911    5.751758    5.711701
   7 C     10.730485    5.684018    5.580903
   8 C      8.105910    9.354855    5.885924
   9 C      9.379005    9.296163    5.922367
  10 C      9.805978    7.903114    5.865939
  11 C      8.518346    7.146661    5.857437
  12 C     10.816722    6.959297    5.728235
  13 C      5.042595   10.973283    5.331812
  14 C      4.864351    9.715896    5.410065
  15 C      5.387310   13.577287    5.072740
  16 C      5.197282   12.293013    5.229909
  17 C      3.734597    7.449213    5.242825
  18 C      6.000858    6.128363    5.589831
  19 C      4.824397    5.263566    5.241691
  20 C      6.082598    7.548595    5.673066
  21 C      4.830655    8.339958    5.454608
  22 C      5.275505    3.928638    5.045662
  23 C      3.770415    6.180666    5.137984

Unit cell:
           periodic     x           y           z      points  spacing
  1. axis:    yes   16.000000    0.000000    0.000000    80     0.2000
  2. axis:    yes    0.000000   16.000000    0.000000    80     0.2000
  3. axis:    yes    0.000000    0.000000   10.000000    48     0.2083

Effective grid spacing dv^(1/3) = 0.2027

                     log10-error:    total        iterations:
           time      wfs    density  energy       fermi  poisson
iter:   1  11:19:35          +inf  -181.996198    3      4      
iter:   2  11:19:36         -2.47  -181.984715    3      1      
iter:   3  11:19:36         -3.04  -181.985541    3      1      
iter:   4  11:19:37         -3.24  -181.988000    3      1      
iter:   5  11:19:37         -2.98  -181.985008    3      1      
iter:   6  11:19:38         -3.24  -181.987982    3      1      
iter:   7  11:19:39         -2.98  -181.985613    3      1      
iter:   8  11:19:39         -3.15  -181.985648    3      1      
iter:   9  11:19:40         -3.70  -181.985367    2      1      
iter:  10  11:19:40         -3.99  -181.985308    2      1      
iter:  11  11:19:41         -3.79  -181.986095    3      1      
iter:  12  11:19:41         -3.49  -181.985706    2      1      
iter:  13  11:19:42         -3.66  -181.985524    2      1      
iter:  14  11:19:42         -3.86  -181.985537    2      1      
iter:  15  11:19:43         -4.08  -181.985470    2      1      

Converged after 15 iterations.

Dipole moment: (0.315739, -1.402282, 0.149191) |e|*Ang

Energy contributions relative to reference atoms: (reference = -24663.074771)

Kinetic:       +114.489910
Potential:     -122.428527
External:        +0.000000
XC:            -176.876837
Entropy (-ST):   -0.343348
Local:           +3.001658
--------------------------
Free energy:   -182.157144
Extrapolated:  -181.985470

Fermi level: -5.03614

 Band  Eigenvalues  Occupancy
    0    -23.24048    2.00000
    1    -22.37221    2.00000
    2    -21.93798    2.00000
    3    -21.04537    2.00000
    4    -20.51354    2.00000
    5    -20.07575    2.00000
    6    -19.72694    2.00000
    7    -18.97981    2.00000
    8    -18.52284    2.00000
    9    -18.13345    2.00000
   10    -17.48033    2.00000
   11    -17.41508    2.00000
   12    -16.91883    2.00000
   13    -15.75401    2.00000
   14    -15.34743    2.00000
   15    -14.96647    2.00000
   16    -14.77707    2.00000
   17    -14.29262    2.00000
   18    -13.53790    2.00000
   19    -13.07404    2.00000
   20    -12.63287    2.00000
   21    -12.51702    2.00000
   22    -11.89458    2.00000
   23    -11.53765    2.00000
   24    -11.28378    2.00000
   25    -11.00667    2.00000
   26    -10.92983    2.00000
   27    -10.38215    2.00000
   28     -9.98293    2.00000
   29     -9.64817    2.00000
   30     -9.51972    2.00000
   31     -9.42408    2.00000
   32     -8.82687    2.00000
   33     -8.34240    2.00000
   34     -8.09574    2.00000
   35     -7.88972    2.00000
   36     -7.60137    2.00000
   37     -6.90645    2.00000
   38     -6.82647    2.00000
   39     -6.78702    2.00000
   40     -6.51128    2.00000
   41     -6.47707    2.00000
   42     -6.21228    1.99998
   43     -5.65970    1.99609
   44     -5.48470    1.97771
   45     -5.43764    1.96455
   46     -5.31180    1.88057
   47     -5.10260    1.32058
   48     -5.00799    0.86014
   49     -4.15594    0.00030
   50     -4.01068    0.00007
   51     -3.28324    0.00000
   52     -3.06460    0.00000
   53     -2.79376    0.00000
   54     -2.31489    0.00000
   55     -1.31218    0.00000
   56     -1.25724    0.00000
   57     -1.13868    0.00000
   58     -0.91064    0.00000
   59      0.43448    0.00000
   60      0.77225    0.00000
   61      1.62514    0.00000
   62      2.52177    0.00000
   63      3.07659    0.00000
   64      3.19933    0.00000
   65      3.42622    0.00000
   66      3.77866    0.00000
   67      4.29689    0.00000
   68      4.42162    0.00000
   69      4.54047    0.00000
   70      4.92023    0.00000
   71      5.22104    0.00000
   72      5.45375    0.00000
   73      6.02677    0.00000
   74      6.32000    0.00000
   75      6.61901    0.00000
   76      6.88057    0.00000
   77      7.08122    0.00000
   78      7.23694    0.00000
   79      7.92446    0.00000
   80      8.11314    0.00000
   81      8.48579    0.00000
   82      8.69825    0.00000
   83      8.87810    0.00000
   84      8.93541    0.00000
   85      8.99056    0.00000
   86      9.03047    0.00000
   87      9.21974    0.00000
   88      9.34569    0.00000
   89      9.38243    0.00000
   90      9.54921    0.00000
   91      9.67717    0.00000
   92      9.88010    0.00000
   93      9.98129    0.00000
   94     10.16954    0.00000
   95     10.22335    0.00000
   96     10.31043    0.00000
   97     10.41917    0.00000


Forces in eV/Ang:
  0 C     0.03874    0.00989    0.00134
  1 C    -0.01495   -0.02886    0.00608
  2 C     0.00671    0.00396   -0.01201
  3 C     0.02680   -0.00885    0.01483
  4 C     0.01966   -0.01632   -0.00354
  5 C     0.00715   -0.01113    0.01727
  6 C     0.01509    0.00297   -0.03328
  7 C    -0.00198   -0.00516   -0.00186
  8 C    -0.00660   -0.01315   -0.03209
  9 C    -0.01424   -0.04883   -0.00063
 10 C     0.01941    0.04929    0.00942
 11 C    -0.01975    0.00237   -0.00180
 12 C    -0.01777   -0.00803    0.00876
 13 C     0.01227   -0.02213    0.00654
 14 C    -0.01574    0.02287   -0.00542
 15 C    -0.00247    0.06668    0.02738
 16 C    -0.02567   -0.08651   -0.01469
 17 C     0.00901   -0.01315   -0.00835
 18 C    -0.00751    0.00251   -0.00555
 19 C    -0.00452    0.01589   -0.00317
 20 C     0.02873   -0.03108   -0.02275
 21 C    -0.05341    0.05507    0.00430
 22 C     0.01985    0.04910    0.03161
 23 C    -0.02473   -0.02386   -0.00092

