
  ___ ___ ___ _ _ _  
 |   |   |_  | | | | 
 | | | | | . | | | | 
 |__ |  _|___|_____|  1.3.0b1
 |___|_|             

User:   esb@s65n23.grendel.cscaa.dk
Date:   Wed Nov  8 17:12:58 2017
Arch:   x86_64
Pid:    52600
Python: 2.7.13
gpaw:   /home/esb/DFT/gpaw_git/gpaw
_gpaw:  /home/esb/DFT/gpaw_git/build/bin.linux-x86_64-2.7/gpaw-python
ase:    /home/esb/DFT/ase_git/ase (version 3.15.0b1)
numpy:  /comm/swstack/core/python/2.7.13/lib/python2.7/site-packages/numpy (version 1.13.3)
scipy:  /comm/swstack/core/python/2.7.13/lib/python2.7/site-packages/scipy (version 0.19.1)
units:  Angstrom and eV
cores:  16
Extra parameters: {'blacs': True}

Input parameters:
  basis: dzp
  gpts: [80 80 48]
  kpts: [1 1 1]
  maxiter: 99
  mixer: {backend: pulay,
          beta: 0.05,
          method: separate,
          nmaxold: 5,
          weight: 75}
  mode: lcao
  nbands: -50
  occupations: {name: fermi-dirac,
                width: 0.1}
  poissonsolver: {eps: 1e-07,
                  name: fd,
                  nn: 3,
                  relax: GS}
  xc: PBE

System changes: positions, numbers, cell, pbc, initial_charges, initial_magmoms 

Initialize ...

C-setup:
  name: Carbon
  id: 4aa54d4b901d75f77cc0ea3eec22967b
  Z: 6
  valence: 4
  core: 2
  charge: 0.0
  file: /home/esb/DFT/gpaw-setups-0.8.7929/C.PBE.gz
  cutoffs: 0.64(comp), 1.14(filt), 1.14(core), lmax=2
  valence states:
                energy  radius
    2s(2.00)   -13.751   0.635
    2p(2.00)    -5.284   0.635
    *s          13.461   0.635
    *p          21.927   0.635
    *d           0.000   0.635

  LCAO basis set for C:
    Name: dzp
    File: /home/esb/DFT/gpaw-setups-0.8.7929/C.dzp.basis.gz
    Number of radial functions: 5
    Number of spherical harmonics: 13
      l=0, rc=5.5469 Bohr: 2s-sz confined orbital
      l=1, rc=6.6719 Bohr: 2p-sz confined orbital
      l=0, rc=3.0312 Bohr: 2s-dz split-valence wave
      l=1, rc=3.7500 Bohr: 2p-dz split-valence wave
      l=2, rc=6.6719 Bohr: d-type Gaussian polarization

Reference energy: -24663.074771

Spin-paired calculation

Occupation numbers:
  Fermi-Dirac: width=0.1000 eV

Convergence criteria:
  Maximum total energy change: 0.0005 eV / electron
  Maximum integral of absolute density change: 0.0001 electrons
  Maximum integral of absolute eigenstate change: 4e-08 eV^2
  Maximum number of iterations: 99

Symmetries present (total): 1

  ( 1  0  0)
  ( 0  1  0)
  ( 0  0  1)

1 k-point (Gamma)
1 k-point in the irreducible part of the Brillouin zone
       k-points in crystal coordinates                weights
   0:     0.00000000    0.00000000    0.00000000          1/1

Wave functions: LCAO
  Diagonalizer: Serial LAPACK
  Atomic Correction: dense with blas
  Datatype: float
  Eigensolver: None 

LCAO using direct dense diagonalizer 

Densities:
  Coarse grid: 80*80*48 grid
  Fine grid: 160*160*96 grid
  Total Charge: 0.000000 

Density mixing:
  Method: separate
  Backend: pulay
  Linear mixing parameter: 0.05
  Mixing with 5 old densities
  Damping of long wave oscillations: 75 

Hamiltonian:
  XC and Coulomb potentials evaluated on a 160*160*96 grid
  Using the PBE Exchange-Correlation functional
  Interpolation: tri-quintic (5. degree polynomial)
  Poisson solver: Gauss-Seidel solver with 6 multi-grid levels
    Coarsest grid: 5 x 5 x 3 points
    Stencil: 6*3+1=19 point O(h^6) finite-difference Laplacian
    Max iterations: 1000
    Tolerance: 1.000000e-07 

Memory estimate:
  Process memory now: 77.58 MiB
  Calculator: 15.59 MiB
    Density: 6.13 MiB
      Arrays: 3.81 MiB
      Localized functions: 0.86 MiB
      Mixer: 1.46 MiB
    Hamiltonian: 5.40 MiB
      Arrays: 2.49 MiB
      XC: 0.00 MiB
      Poisson: 2.85 MiB
      vbar: 0.07 MiB
    Wavefunctions: 4.05 MiB
      C [qnM]: 0.23 MiB
      S, T [2 x qmm]: 1.49 MiB
      P [aqMi]: 0.01 MiB
      TCI: 0.00 MiB
      BasisFunctions: 2.33 MiB
      Eigensolver: 0.00 MiB

Total number of cores used: 16
Domain decomposition: 2 x 4 x 2

Number of atoms: 24
Number of atomic orbitals: 312
Number of bands in calculation: 98
Bands to converge: occupied states only
Number of valence electrons: 96

... initialized

Initializing position-dependent things.

Density initialized from atomic densities
           .--------------------------------------.  
          /|                                      |  
         / |                                      |  
        /  |                                      |  
       /   |                                      |  
      /    |                                      |  
     /     |                                      |  
    /      |                                      |  
   /       |                                      |  
  /        |        C  C     C  C                 |  
 *         |  C  C        C      C                |  
 |         | C       C   CC C CC C                |  
 |         .-C-C--C-----C--C--C-------------------.  
 |        /                                      /   
 |       /                                      /    
 |      /                                      /     
 |     /                                      /      
 |    /                                      /       
 |   /                                      /        
 |  /                                      /         
 | /                                      /          
 |/                                      /           
 *--------------------------------------*            

Positions:
   0 C      6.301023   10.443037    5.223881
   1 C      5.126119   10.011067    5.330030
   2 C      8.751582   11.266791    5.208853
   3 C      4.020475    9.233331    5.424068
   4 C      7.695759   10.379813    4.989030
   5 C      9.989359   10.902145    5.060117
   6 C      3.321391    8.181232    5.451071
   7 C      8.154275    8.995749    4.521513
   8 C     10.596033    9.708192    4.865049
   9 C      3.130963    6.847976    5.319013
  10 C      7.277075    7.948014    4.297466
  11 C      9.530624    8.761304    4.477195
  12 C      8.486602    4.705525    6.438091
  13 C      7.307293    4.285120    6.541792
  14 C     10.868939    5.708376    6.385161
  15 C      5.960608    4.140158    6.501919
  16 C      9.532506    5.558045    6.009444
  17 C     11.591505    6.696245    5.950197
  18 C      4.754739    4.418452    6.247375
  19 C      9.056360    6.627626    5.022671
  20 C     11.312187    7.828168    5.262912
  21 C      3.775002    5.157267    5.676812
  22 C      7.752628    6.699607    4.561662
  23 C      9.952916    7.652717    4.711801

Unit cell:
           periodic     x           y           z      points  spacing
  1. axis:    yes   16.000000    0.000000    0.000000    80     0.2000
  2. axis:    yes    0.000000   16.000000    0.000000    80     0.2000
  3. axis:    yes    0.000000    0.000000   10.000000    48     0.2083

Effective grid spacing dv^(1/3) = 0.2027

                     log10-error:    total        iterations:
           time      wfs    density  energy       fermi  poisson
iter:   1  17:12:59          +inf  -178.975511    3      6      
iter:   2  17:13:00         -0.92  -178.012415    3      3      
iter:   3  17:13:01         -0.95  -175.491743    32     3      
iter:   4  17:13:01         -1.10  -174.723574    33     3      
iter:   5  17:13:02         -1.27  -174.696956    35     3      
iter:   6  17:13:02         -1.47  -174.602568    3      3      
iter:   7  17:13:03         -1.70  -174.588193    3      3      
iter:   8  17:13:03         -1.82  -174.530276    3      2      
iter:   9  17:13:04         -2.02  -174.509131    3      2      
iter:  10  17:13:04         -2.12  -174.489001    3      2      
iter:  11  17:13:05         -2.47  -174.494331    3      2      
iter:  12  17:13:05         -2.74  -174.504700    2      1      
iter:  13  17:13:06         -2.79  -174.485470    2      2      
iter:  14  17:13:06         -3.14  -174.480725    2      1      
iter:  15  17:13:07         -3.20  -174.488627    2      1      
iter:  16  17:13:07         -3.31  -174.485133    2      1      
iter:  17  17:13:08         -3.45  -174.482090    2      1      
iter:  18  17:13:08         -3.58  -174.492227    2      1      
iter:  19  17:13:09         -3.81  -174.484257    2      1      
iter:  20  17:13:09         -3.91  -174.484431    2      1      
iter:  21  17:13:10         -4.11  -174.487363    2      1      

Converged after 21 iterations.

Dipole moment: (0.305228, 0.118546, 0.058361) |e|*Ang

Energy contributions relative to reference atoms: (reference = -24663.074771)

Kinetic:       +102.545441
Potential:     -108.902463
External:        +0.000000
XC:            -171.024110
Entropy (-ST):   -0.303887
Local:           +3.045713
--------------------------
Free energy:   -174.639306
Extrapolated:  -174.487363

Fermi level: -4.24057

 Band  Eigenvalues  Occupancy
    0    -23.32093    2.00000
    1    -21.48244    2.00000
    2    -20.61245    2.00000
    3    -20.55196    2.00000
    4    -20.11463    2.00000
    5    -20.00124    2.00000
    6    -19.35104    2.00000
    7    -18.93443    2.00000
    8    -18.30715    2.00000
    9    -17.84780    2.00000
   10    -17.77006    2.00000
   11    -16.94561    2.00000
   12    -16.48304    2.00000
   13    -15.98016    2.00000
   14    -15.28547    2.00000
   15    -15.18228    2.00000
   16    -14.42181    2.00000
   17    -14.37335    2.00000
   18    -13.73543    2.00000
   19    -12.75937    2.00000
   20    -12.57221    2.00000
   21    -11.71019    2.00000
   22    -11.21041    2.00000
   23    -11.10025    2.00000
   24    -11.01549    2.00000
   25    -10.71300    2.00000
   26     -9.79650    2.00000
   27     -9.79263    2.00000
   28     -9.29553    2.00000
   29     -8.90693    2.00000
   30     -8.70819    2.00000
   31     -8.65087    2.00000
   32     -8.57070    2.00000
   33     -8.52111    2.00000
   34     -8.14178    2.00000
   35     -8.05071    2.00000
   36     -7.29595    2.00000
   37     -6.96506    2.00000
   38     -6.88714    2.00000
   39     -6.85755    2.00000
   40     -6.53202    2.00000
   41     -6.51026    2.00000
   42     -6.10188    2.00000
   43     -5.69852    2.00000
   44     -5.44093    1.99999
   45     -5.26026    1.99993
   46     -4.47723    1.82850
   47     -4.38512    1.61861
   48     -4.11723    0.45118
   49     -3.94661    0.10046
   50     -3.46679    0.00087
   51     -3.40181    0.00046
   52     -3.00987    0.00001
   53     -2.76377    0.00000
   54     -2.53277    0.00000
   55     -2.49606    0.00000
   56     -1.42672    0.00000
   57     -1.11867    0.00000
   58     -1.00593    0.00000
   59     -0.12978    0.00000
   60     -0.03234    0.00000
   61      0.07329    0.00000
   62      0.67497    0.00000
   63      1.34411    0.00000
   64      1.90153    0.00000
   65      2.47733    0.00000
   66      2.55724    0.00000
   67      4.21538    0.00000
   68      4.21890    0.00000
   69      4.57845    0.00000
   70      5.16975    0.00000
   71      5.71530    0.00000
   72      6.03633    0.00000
   73      6.37846    0.00000
   74      6.64779    0.00000
   75      7.05363    0.00000
   76      7.62655    0.00000
   77      7.66334    0.00000
   78      8.01771    0.00000
   79      8.17763    0.00000
   80      8.57550    0.00000
   81      8.64431    0.00000
   82      8.86556    0.00000
   83      8.95830    0.00000
   84      9.05989    0.00000
   85      9.18600    0.00000
   86      9.35602    0.00000
   87      9.50227    0.00000
   88      9.53688    0.00000
   89      9.62526    0.00000
   90      9.73256    0.00000
   91      9.89539    0.00000
   92      9.93544    0.00000
   93      9.96191    0.00000
   94     10.07553    0.00000
   95     10.20250    0.00000
   96     10.26286    0.00000
   97     10.37534    0.00000


Forces in eV/Ang:
  0 C     1.17458    0.55816   -0.04986
  1 C    -1.66836   -1.10102    0.13601
  2 C     0.36620   -0.18218   -0.56317
  3 C     1.97748    2.70858   -0.23714
  4 C    -0.93104   -0.47819   -0.21427
  5 C     0.39431    0.20560    0.99903
  6 C    -0.53452   -4.57407   -0.08730
  7 C    -2.25171    4.08685   -0.57237
  8 C    -0.09590   -0.97717   -0.29313
  9 C     2.50254   -5.04133    1.83645
 10 C     1.61214   -4.90074    1.03222
 11 C    -3.71093   12.79920   -2.63015
 12 C     1.30248    0.37731    0.01541
 13 C    -1.97165   -0.27077   -0.05282
 14 C     0.26616    0.16680   -0.63342
 15 C     3.22660   -0.67259    0.45016
 16 C    -0.99439   -0.37175   -0.26518
 17 C     0.32737    0.47765    0.94530
 18 C    -3.32690    2.73677   -1.63474
 19 C     0.97140   -4.41280    1.22983
 20 C    -0.68059    0.51343   -0.60486
 21 C    -1.59455    5.68858   -0.44588
 22 C    -2.05601    4.74939   -1.01017
 23 C     5.73661  -12.03712    2.63995

System changes: positions 

Initializing position-dependent things.

Density initialized from wave functions
           .--------------------------------------.  
          /|                                      |  
         / |                                      |  
        /  |                                      |  
       /   |                                      |  
      /    |                                      |  
     /     |                                      |  
    /      |                                      |  
   /       |                                      |  
  /        |        C  C     C  C                 |  
 *         |  C  C        C      C                |  
 |         | C       C   CC C CC C                |  
 |         .-C-C--C-----C--C--C-------------------.  
 |        /                                      /   
 |       /                                      /    
 |      /                                      /     
 |     /                                      /      
 |    /                                      /       
 |   /                                      /        
 |  /                                      /         
 | /                                      /          
 |/                                      /           
 *--------------------------------------*            

Positions:
   0 C      6.304479   10.444680    5.223734
   1 C      5.121210   10.007827    5.330430
   2 C      8.752659   11.266255    5.207195
   3 C      4.026294    9.241301    5.423370
   4 C      7.693019   10.378406    4.988399
   5 C      9.990520   10.902750    5.063057
   6 C      3.319818    8.167772    5.450814
   7 C      8.147649    9.007776    4.519829
   8 C     10.595751    9.705317    4.864186
   9 C      3.138327    6.833141    5.324418
  10 C      7.281819    7.933592    4.300504
  11 C      9.519704    8.798969    4.469455
  12 C      8.490435    4.706636    6.438136
  13 C      7.301491    4.284323    6.541637
  14 C     10.869722    5.708867    6.383297
  15 C      5.970103    4.138178    6.503244
  16 C      9.529580    5.556951    6.008664
  17 C     11.592468    6.697651    5.952979
  18 C      4.744949    4.426506    6.242564
  19 C      9.059218    6.614640    5.026290
  20 C     11.310184    7.829679    5.261132
  21 C      3.770309    5.174006    5.675500
  22 C      7.746578    6.713583    4.558690
  23 C      9.969797    7.617295    4.719570

Unit cell:
           periodic     x           y           z      points  spacing
  1. axis:    yes   16.000000    0.000000    0.000000    80     0.2000
  2. axis:    yes    0.000000   16.000000    0.000000    80     0.2000
  3. axis:    yes    0.000000    0.000000   10.000000    48     0.2083

Effective grid spacing dv^(1/3) = 0.2027

                     log10-error:    total        iterations:
           time      wfs    density  energy       fermi  poisson
iter:   1  17:13:11          +inf  -176.061912    4      5      
iter:   2  17:13:12         -1.98  -176.018387    3      2      
iter:   3  17:13:13         -2.09  -175.967816    3      2      
iter:   4  17:13:13         -2.35  -175.956273    2      2      
iter:   5  17:13:14         -2.51  -175.955240    2      1      
iter:   6  17:13:14         -2.55  -175.955369    3      2      
iter:   7  17:13:15         -2.90  -175.955132    2      1      
iter:   8  17:13:15         -2.99  -175.952897    2      2      
iter:   9  17:13:16         -3.34  -175.953066    2      1      
iter:  10  17:13:16         -3.41  -175.953038    2      1      
iter:  11  17:13:17         -3.50  -175.952094    2      1      
iter:  12  17:13:17         -3.65  -175.952736    2      1      
iter:  13  17:13:18         -3.70  -175.952791    2      1      
iter:  14  17:13:18         -3.89  -175.952766    2      1      
iter:  15  17:13:19         -4.01  -175.953098    2      1      

Converged after 15 iterations.

Dipole moment: (0.288563, 0.107911, 0.033014) |e|*Ang

Energy contributions relative to reference atoms: (reference = -24663.074771)

Kinetic:        +93.165353
Potential:     -102.086365
External:        +0.000000
XC:            -169.910741
Entropy (-ST):   -0.259471
Local:           +3.008389
--------------------------
Free energy:   -176.082834
Extrapolated:  -175.953098

Fermi level: -4.20880

 Band  Eigenvalues  Occupancy
    0    -23.14803    2.00000
    1    -21.54959    2.00000
    2    -20.62182    2.00000
    3    -20.47282    2.00000
    4    -20.08366    2.00000
    5    -19.92422    2.00000
    6    -19.33564    2.00000
    7    -18.87310    2.00000
    8    -18.30694    2.00000
    9    -17.88538    2.00000
   10    -17.79611    2.00000
   11    -16.96062    2.00000
   12    -16.51111    2.00000
   13    -15.91509    2.00000
   14    -15.27420    2.00000
   15    -15.16043    2.00000
   16    -14.43064    2.00000
   17    -14.36878    2.00000
   18    -13.72690    2.00000
   19    -12.70124    2.00000
   20    -12.54347    2.00000
   21    -11.70072    2.00000
   22    -11.28782    2.00000
   23    -11.23711    2.00000
   24    -11.11354    2.00000
   25    -10.63993    2.00000
   26    -10.02223    2.00000
   27     -9.52590    2.00000
   28     -9.32264    2.00000
   29     -8.88155    2.00000
   30     -8.71712    2.00000
   31     -8.63655    2.00000
   32     -8.53161    2.00000
   33     -8.49377    2.00000
   34     -8.13436    2.00000
   35     -7.98877    2.00000
   36     -7.27734    2.00000
   37     -6.96283    2.00000
   38     -6.85294    2.00000
   39     -6.84551    2.00000
   40     -6.54686    2.00000
   41     -6.49288    2.00000
   42     -6.12166    2.00000
   43     -5.74678    2.00000
   44     -5.49467    1.99999
   45     -5.31887    1.99997
   46     -4.48298    1.87889
   47     -4.37526    1.68171
   48     -4.06198    0.37441
   49     -3.86644    0.06313
   50     -3.48297    0.00141
   51     -3.37480    0.00048
   52     -2.96921    0.00001
   53     -2.74524    0.00000
   54     -2.55755    0.00000
   55     -2.43748    0.00000
   56     -1.38739    0.00000
   57     -1.18749    0.00000
   58     -0.98505    0.00000
   59     -0.22468    0.00000
   60      0.00048    0.00000
   61      0.01320    0.00000
   62      0.64241    0.00000
   63      1.31377    0.00000
   64      1.86065    0.00000
   65      2.50212    0.00000
   66      2.65712    0.00000
   67      4.16215    0.00000
   68      4.28291    0.00000
   69      4.59960    0.00000
   70      5.13878    0.00000
   71      5.80191    0.00000
   72      6.06657    0.00000
   73      6.44109    0.00000
   74      6.65593    0.00000
   75      7.17250    0.00000
   76      7.41403    0.00000
   77      7.68648    0.00000
   78      8.15690    0.00000
   79      8.23771    0.00000
   80      8.47237    0.00000
   81      8.64289    0.00000
   82      8.88208    0.00000
   83      8.96672    0.00000
   84      9.09856    0.00000
   85      9.20076    0.00000
   86      9.38869    0.00000
   87      9.51358    0.00000
   88      9.55109    0.00000
   89      9.67124    0.00000
   90      9.75924    0.00000
   91      9.86157    0.00000
   92      9.96303    0.00000
   93      9.98511    0.00000
   94     10.00842    0.00000
   95     10.21971    0.00000
   96     10.24570    0.00000
   97     10.38556    0.00000


Forces in eV/Ang:
  0 C     0.44260    0.42204    0.04073
  1 C    -0.63210   -0.58663    0.04662
  2 C     0.47321   -0.10400   -0.52956
  3 C     0.63162    1.05744   -0.17481
  4 C    -0.91783   -0.34898   -0.21575
  5 C     0.25089    0.33480    1.02905
  6 C     0.19788   -3.53415   -0.16781
  7 C    -2.15644    3.79895   -0.55913
  8 C    -0.02147   -0.97546   -0.23883
  9 C     2.74840   -5.17710    1.95746
 10 C     1.42970   -3.84311    0.87679
 11 C    -1.18291    5.61729   -1.38777
 12 C     0.63864    0.01893    0.15639
 13 C    -0.85727    0.01349   -0.08835
 14 C     0.38746    0.19967   -0.58563
 15 C     1.18137   -0.41183    0.13084
 16 C    -0.89291   -0.44728   -0.21375
 17 C     0.29723    0.30547    1.03788
 18 C    -2.10907    2.48165   -1.44967
 19 C     0.88652   -4.17144    1.14041
 20 C    -0.63681    0.57847   -0.55819
 21 C    -1.51977    5.97790   -0.39531
 22 C    -1.50317    3.85587   -0.73723
 23 C     2.91359   -5.07232    0.85048

System changes: positions 

Initializing position-dependent things.

Density initialized from wave functions
           .--------------------------------------.  
          /|                                      |  
         / |                                      |  
        /  |                                      |  
       /   |                                      |  
      /    |                                      |  
     /     |                                      |  
    /      |                                      |  
   /       |                                      |  
  /        |        C  C     C  C                 |  
 *         |  C  C        C      C                |  
 |         | C       C   CC C CC C                |  
 |         .-C-C--C-----C--C--C-------------------.  
 |        /                                      /   
 |       /                                      /    
 |      /                                      /     
 |     /                                      /      
 |    /                                      /       
 |   /                                      /        
 |  /                                      /         
 | /                                      /          
 |/                                      /           
 *--------------------------------------*            

Positions:
   0 C      6.305022   10.446935    5.224273
   1 C      5.120406   10.005697    5.330449
   2 C      8.755991   11.265837    5.203941
   3 C      4.026137    9.242901    5.422454
   4 C      7.687240   10.376592    4.987027
   5 C      9.991667   10.905273    5.069675
   6 C      3.323338    8.148576    5.449501
   7 C      8.134268    9.030977    4.516324
   8 C     10.595845    9.699136    4.862839
   9 C      3.156517    6.799890    5.337205
  10 C      7.290321    7.912492    4.305584
  11 C      9.520020    8.812381    4.464496
  12 C      8.492432    4.705647    6.439564
  13 C      7.299501    4.285288    6.540967
  14 C     10.872554    5.710234    6.379731
  15 C      5.971270    4.136373    6.503086
  16 C      9.524231    5.553881    6.007467
  17 C     11.594260    6.699056    5.959847
  18 C      4.735341    4.441455    6.233943
  19 C      9.064578    6.588933    5.033245
  20 C     11.306281    7.833548    5.257736
  21 C      3.760903    5.212810    5.673150
  22 C      7.738755    6.735272    4.554859
  23 C      9.979544    7.606667    4.719429

Unit cell:
           periodic     x           y           z      points  spacing
  1. axis:    yes   16.000000    0.000000    0.000000    80     0.2000
  2. axis:    yes    0.000000   16.000000    0.000000    80     0.2000
  3. axis:    yes    0.000000    0.000000   10.000000    48     0.2083

Effective grid spacing dv^(1/3) = 0.2027

                     log10-error:    total        iterations:
           time      wfs    density  energy       fermi  poisson
iter:   1  17:13:20          +inf  -177.442544    4      5      
iter:   2  17:13:21         -1.82  -177.325622    3      2      
iter:   3  17:13:21         -1.96  -177.218583    3      2      
iter:   4  17:13:22         -2.31  -177.205644    3      2      
iter:   5  17:13:22         -2.49  -177.200843    2      2      
iter:   6  17:13:23         -2.56  -177.198112    2      2      
iter:   7  17:13:23         -2.80  -177.195930    2      2      
iter:   8  17:13:24         -3.03  -177.196180    2      1      
iter:   9  17:13:24         -3.20  -177.195739    2      1      
iter:  10  17:13:25         -3.49  -177.195903    2      1      
iter:  11  17:13:25         -3.58  -177.196014    2      1      
iter:  12  17:13:26         -3.74  -177.195787    2      1      
iter:  13  17:13:26         -3.84  -177.196306    2      1      
iter:  14  17:13:27         -4.03  -177.196364    2      1      

Converged after 14 iterations.

Dipole moment: (0.271983, 0.095948, -0.005864) |e|*Ang

Energy contributions relative to reference atoms: (reference = -24663.074771)

Kinetic:        +86.343706
Potential:      -97.144667
External:        +0.000000
XC:            -169.351343
Entropy (-ST):   -0.147870
Local:           +3.029875
--------------------------
Free energy:   -177.270299
Extrapolated:  -177.196364

Fermi level: -4.16297

 Band  Eigenvalues  Occupancy
    0    -23.07316    2.00000
    1    -21.58060    2.00000
    2    -20.65827    2.00000
    3    -20.44510    2.00000
    4    -20.02435    2.00000
    5    -19.85336    2.00000
    6    -19.30307    2.00000
    7    -18.85094    2.00000
    8    -18.25073    2.00000
    9    -17.95909    2.00000
   10    -17.74756    2.00000
   11    -16.98284    2.00000
   12    -16.47158    2.00000
   13    -15.90017    2.00000
   14    -15.23781    2.00000
   15    -15.21351    2.00000
   16    -14.37783    2.00000
   17    -14.35921    2.00000
   18    -13.64571    2.00000
   19    -12.73478    2.00000
   20    -12.52963    2.00000
   21    -11.66002    2.00000
   22    -11.52924    2.00000
   23    -11.42981    2.00000
   24    -11.19096    2.00000
   25    -10.60442    2.00000
   26    -10.05190    2.00000
   27     -9.52471    2.00000
   28     -9.33986    2.00000
   29     -8.86138    2.00000
   30     -8.71204    2.00000
   31     -8.58663    2.00000
   32     -8.45230    2.00000
   33     -8.42938    2.00000
   34     -8.15492    2.00000
   35     -7.97100    2.00000
   36     -7.25117    2.00000
   37     -6.98427    2.00000
   38     -6.87851    2.00000
   39     -6.84911    2.00000
   40     -6.63186    2.00000
   41     -6.42393    2.00000
   42     -6.09523    2.00000
   43     -5.84482    2.00000
   44     -5.60021    2.00000
   45     -5.28657    1.99997
   46     -4.53768    1.95391
   47     -4.41237    1.84743
   48     -3.93097    0.17896
   49     -3.69342    0.01811
   50     -3.42852    0.00129
   51     -3.28384    0.00030
   52     -2.98436    0.00002
   53     -2.61883    0.00000
   54     -2.52055    0.00000
   55     -2.45933    0.00000
   56     -1.28637    0.00000
   57     -1.27404    0.00000
   58     -1.09302    0.00000
   59     -0.18417    0.00000
   60     -0.04695    0.00000
   61      0.06350    0.00000
   62      0.58185    0.00000
   63      1.34553    0.00000
   64      1.86973    0.00000
   65      2.47273    0.00000
   66      3.00178    0.00000
   67      4.24050    0.00000
   68      4.31637    0.00000
   69      4.63365    0.00000
   70      5.16308    0.00000
   71      5.89607    0.00000
   72      6.12521    0.00000
   73      6.58980    0.00000
   74      6.64668    0.00000
   75      7.17941    0.00000
   76      7.31673    0.00000
   77      7.49966    0.00000
   78      8.06151    0.00000
   79      8.18709    0.00000
   80      8.23585    0.00000
   81      8.67156    0.00000
   82      8.83776    0.00000
   83      8.96872    0.00000
   84      9.09304    0.00000
   85      9.17065    0.00000
   86      9.40685    0.00000
   87      9.47612    0.00000
   88      9.54092    0.00000
   89      9.67162    0.00000
   90      9.77281    0.00000
   91      9.78293    0.00000
   92      9.96582    0.00000
   93      9.99303    0.00000
   94     10.03188    0.00000
   95     10.24499    0.00000
   96     10.29000    0.00000
   97     10.36977    0.00000


Forces in eV/Ang:
  0 C    -0.14119    0.36120    0.12637
  1 C    -0.19145   -0.36020    0.01854
  2 C     0.28913   -0.13081   -0.51050
  3 C    -0.25367   -0.22183   -0.14595
  4 C    -0.65736   -0.04040   -0.19657
  5 C     0.40015    0.09969    0.95895
  6 C     0.71686   -2.81541   -0.30473
  7 C    -1.43819    2.78233   -0.66310
  8 C     0.01261   -0.73884   -0.12522
  9 C     3.26602   -5.52979    2.26521
 10 C     0.98321   -1.35966    0.56038
 11 C    -1.42108    3.96292   -1.14616
 12 C     0.13300   -0.29329    0.29462
 13 C    -0.36528    0.13698   -0.09141
 14 C     0.22431    0.11826   -0.55017
 15 C    -0.33853   -0.09238   -0.17852
 16 C    -0.48666   -0.47858   -0.09860
 17 C     0.26539    0.53546    0.86934
 18 C    -1.23029    2.26987   -1.36363
 19 C     0.78593   -3.04322    0.54370
 20 C    -0.47190    0.48244   -0.36985
 21 C    -1.40019    6.68428   -0.32381
 22 C    -0.19407    1.74515   -0.11225
 23 C     1.62719   -4.02373    0.55660

System changes: positions 

Initializing position-dependent things.

Density initialized from wave functions
           .--------------------------------------.  
          /|                                      |  
         / |                                      |  
        /  |                                      |  
       /   |                                      |  
      /    |                                      |  
     /     |                                      |  
    /      |                                      |  
   /       |                                      |  
  /        |        C  C     C  C                 |  
 *         |  C  C        C      C                |  
 |         | C       C   CC C CC C                |  
 |         .-C-C--C-----C--C--C-------------------.  
 |        /                                      /   
 |       /                                      /    
 |      /                                      /     
 |     /                                      /      
 |    /                                      /       
 |   /                                      /        
 |  /                                      /         
 | /                                      /          
 |/                                      /           
 *--------------------------------------*            

Positions:
   0 C      6.303066   10.448809    5.225144
   1 C      5.121002   10.004451    5.330407
   2 C      8.757906   11.265222    5.201031
   3 C      4.022527    9.239040    5.421709
   4 C      7.683378   10.376505    4.985877
   5 C      9.993700   10.906139    5.075315
   6 C      3.328654    8.133869    5.447625
   7 C      8.125899    9.046889    4.512523
   8 C     10.596040    9.694788    4.862178
   9 C      3.175782    6.767629    5.350493
  10 C      7.295825    7.905816    4.308646
  11 C      9.516270    8.823201    4.459961
  12 C      8.492168    4.703395    6.441487
  13 C      7.299211    4.286551    6.540374
  14 C     10.874112    5.711000    6.376611
  15 C      5.966101    4.136213    6.501568
  16 C      9.521479    5.550977    6.006956
  17 C     11.595756    6.701804    5.965101
  18 C      4.730110    4.454242    6.226328
  19 C      9.069018    6.571395    5.036399
  20 C     11.303576    7.836489    5.255622
  21 C      3.752872    5.251954    5.671340
  22 C      7.738263    6.744379    4.554526
  23 C      9.984363    7.595268    4.719593

Unit cell:
           periodic     x           y           z      points  spacing
  1. axis:    yes   16.000000    0.000000    0.000000    80     0.2000
  2. axis:    yes    0.000000   16.000000    0.000000    80     0.2000
  3. axis:    yes    0.000000    0.000000   10.000000    48     0.2083

Effective grid spacing dv^(1/3) = 0.2027

                     log10-error:    total        iterations:
           time      wfs    density  energy       fermi  poisson
iter:   1  17:13:28          +inf  -178.331386    4      5      
iter:   2  17:13:29         -1.91  -178.228180    3      2      
iter:   3  17:13:29         -2.06  -178.145219    3      2      
iter:   4  17:13:30         -2.44  -178.138216    2      2      
iter:   5  17:13:30         -2.66  -178.135763    2      1      
iter:   6  17:13:31         -2.73  -178.135414    2      2      
iter:   7  17:13:31         -3.01  -178.136097    2      2      
iter:   8  17:13:32         -3.10  -178.134071    2      1      
iter:   9  17:13:32         -3.35  -178.135142    2      1      
iter:  10  17:13:33         -3.57  -178.135483    2      1      
iter:  11  17:13:33         -3.71  -178.135278    1      1      
iter:  12  17:13:34         -3.86  -178.135630    2      1      
iter:  13  17:13:34         -3.95  -178.135429    2      1      
iter:  14  17:13:35         -4.03  -178.135416    2      1      

Converged after 14 iterations.

Dipole moment: (0.256383, 0.088576, -0.020279) |e|*Ang

Energy contributions relative to reference atoms: (reference = -24663.074771)

Kinetic:        +82.221305
Potential:      -94.292301
External:        +0.000000
XC:            -169.055891
Entropy (-ST):   -0.079388
Local:           +3.031165
--------------------------
Free energy:   -178.175110
Extrapolated:  -178.135416

Fermi level: -4.13954

 Band  Eigenvalues  Occupancy
    0    -23.00947    2.00000
    1    -21.60248    2.00000
    2    -20.65297    2.00000
    3    -20.41154    2.00000
    4    -19.98760    2.00000
    5    -19.80493    2.00000
    6    -19.28016    2.00000
    7    -18.83350    2.00000
    8    -18.21561    2.00000
    9    -17.97763    2.00000
   10    -17.71555    2.00000
   11    -17.01318    2.00000
   12    -16.42053    2.00000
   13    -15.90536    2.00000
   14    -15.21021    2.00000
   15    -15.20167    2.00000
   16    -14.40731    2.00000
   17    -14.32192    2.00000
   18    -13.59244    2.00000
   19    -12.75616    2.00000
   20    -12.50316    2.00000
   21    -11.77855    2.00000
   22    -11.64194    2.00000
   23    -11.50446    2.00000
   24    -11.19970    2.00000
   25    -10.57067    2.00000
   26    -10.07880    2.00000
   27     -9.48483    2.00000
   28     -9.35085    2.00000
   29     -8.85024    2.00000
   30     -8.69872    2.00000
   31     -8.55836    2.00000
   32     -8.39856    2.00000
   33     -8.38466    2.00000
   34     -8.14971    2.00000
   35     -7.95756    2.00000
   36     -7.23144    2.00000
   37     -7.01518    2.00000
   38     -6.88766    2.00000
   39     -6.84544    2.00000
   40     -6.64808    2.00000
   41     -6.36870    2.00000
   42     -6.07662    2.00000
   43     -5.87338    2.00000
   44     -5.63525    2.00000
   45     -5.26323    1.99997
   46     -4.61794    1.98341
   47     -4.46974    1.92899
   48     -3.82105    0.07948
   49     -3.57665    0.00716
   50     -3.35566    0.00079
   51     -3.20685    0.00018
   52     -2.99507    0.00002
   53     -2.58216    0.00000
   54     -2.48253    0.00000
   55     -2.37099    0.00000
   56     -1.34173    0.00000
   57     -1.21243    0.00000
   58     -1.11522    0.00000
   59     -0.18521    0.00000
   60     -0.09480    0.00000
   61      0.10053    0.00000
   62      0.52675    0.00000
   63      1.38336    0.00000
   64      1.88164    0.00000
   65      2.45272    0.00000
   66      3.31175    0.00000
   67      4.32168    0.00000
   68      4.44207    0.00000
   69      4.64495    0.00000
   70      5.21882    0.00000
   71      5.95628    0.00000
   72      6.17700    0.00000
   73      6.56129    0.00000
   74      6.74339    0.00000
   75      7.17388    0.00000
   76      7.22439    0.00000
   77      7.41905    0.00000
   78      7.97159    0.00000
   79      8.07785    0.00000
   80      8.16005    0.00000
   81      8.68967    0.00000
   82      8.76711    0.00000
   83      8.98537    0.00000
   84      9.07149    0.00000
   85      9.17108    0.00000
   86      9.37451    0.00000
   87      9.48429    0.00000
   88      9.50852    0.00000
   89      9.67200    0.00000
   90      9.72507    0.00000
   91      9.77933    0.00000
   92      9.96867    0.00000
   93     10.00086    0.00000
   94     10.04632    0.00000
   95     10.27855    0.00000
   96     10.32838    0.00000
   97     10.38064    0.00000


Forces in eV/Ang:
  0 C    -0.42618    0.32556    0.17100
  1 C    -0.14699   -0.31373    0.02185
  2 C     0.21192   -0.15769   -0.48731
  3 C    -0.55515   -0.85686   -0.13713
  4 C    -0.47356    0.22592   -0.16646
  5 C     0.41825   -0.00464    0.92235
  6 C     0.93806   -2.49025   -0.37396
  7 C    -1.08440    2.17230   -0.72903
  8 C    -0.03456   -0.64722   -0.06976
  9 C     3.53244   -5.68250    2.41992
 10 C     0.70494   -0.28648    0.38384
 11 C    -1.16125    2.61583   -0.91212
 12 C    -0.11521   -0.43385    0.35537
 13 C    -0.30653    0.13532   -0.07612
 14 C     0.13898    0.10098   -0.53186
 15 C    -0.96764    0.16019   -0.36085
 16 C    -0.17676   -0.52343    0.00636
 17 C     0.21445    0.60593    0.80675
 18 C    -0.83408    2.13816   -1.34673
 19 C     0.67214   -2.41909    0.24650
 20 C    -0.44480    0.40807   -0.27695
 21 C    -1.26390    6.96922   -0.29470
 22 C     0.29590    0.78196    0.14153
 23 C     0.93215   -2.86602    0.27853

System changes: positions 

Initializing position-dependent things.

Density initialized from wave functions
           .--------------------------------------.  
          /|                                      |  
         / |                                      |  
        /  |                                      |  
       /   |                                      |  
      /    |                                      |  
     /     |                                      |  
    /      |                                      |  
   /       |                                      |  
  /        |        C  C     C  C                 |  
 *         |  C  C        C      C                |  
 |         | C       C   CC C CC C                |  
 |         .-C-C--C-----C--C--C-------------------.  
 |        /                                      /   
 |       /                                      /    
 |      /                                      /     
 |     /                                      /      
 |    /                                      /       
 |   /                                      /        
 |  /                                      /         
 | /                                      /          
 |/                                      /           
 *--------------------------------------*            

Positions:
   0 C      6.300514   10.450569    5.226126
   1 C      5.120231   10.002755    5.330523
   2 C      8.759418   11.264386    5.198319
   3 C      4.019329    9.233811    5.420947
   4 C      7.680621   10.377949    4.984973
   5 C      9.995641   10.906485    5.080636
   6 C      3.334080    8.119959    5.445550
   7 C      8.119166    9.059579    4.508453
   8 C     10.595698    9.690825    4.861726
   9 C      3.195607    6.735647    5.364060
  10 C      7.299903    7.902437    4.310914
  11 C      9.513351    8.831337    4.456053
  12 C      8.491367    4.700926    6.443486
  13 C      7.297529    4.287290    6.539960
  14 C     10.875151    5.711745    6.373607
  15 C      5.960455    4.137342    6.499423
  16 C      9.520508    5.547881    6.007071
  17 C     11.596873    6.704744    5.969981
  18 C      4.725593    4.466255    6.218706
  19 C      9.072662    6.557040    5.038260
  20 C     11.300784    7.838877    5.253919
  21 C      3.745881    5.290932    5.669631
  22 C      7.738796    6.750165    4.554847
  23 C      9.988033    7.586386    4.719390

Unit cell:
           periodic     x           y           z      points  spacing
  1. axis:    yes   16.000000    0.000000    0.000000    80     0.2000
  2. axis:    yes    0.000000   16.000000    0.000000    80     0.2000
  3. axis:    yes    0.000000    0.000000   10.000000    48     0.2083

Effective grid spacing dv^(1/3) = 0.2027

                     log10-error:    total        iterations:
           time      wfs    density  energy       fermi  poisson
iter:   1  17:13:37          +inf  -179.163806    3      5      
iter:   2  17:13:37         -1.94  -179.057558    2      2      
iter:   3  17:13:38         -2.08  -178.968710    3      2      
iter:   4  17:13:38         -2.46  -178.962480    2      2      
iter:   5  17:13:39         -2.74  -178.960858    2      1      
iter:   6  17:13:39         -2.81  -178.961424    2      2      
iter:   7  17:13:40         -3.09  -178.962001    2      1      
iter:   8  17:13:40         -3.12  -178.959997    2      1      
iter:   9  17:13:41         -3.45  -178.960720    2      1      
iter:  10  17:13:41         -3.69  -178.961605    2      1      
iter:  11  17:13:42         -3.84  -178.961726    2      1      
iter:  12  17:13:42         -3.97  -178.961618    1      1      
iter:  13  17:13:43         -4.04  -178.961811    2      1      

Converged after 13 iterations.

Dipole moment: (0.244641, 0.083156, -0.026621) |e|*Ang

Energy contributions relative to reference atoms: (reference = -24663.074771)

Kinetic:        +79.732577
Potential:      -92.714072
External:        +0.000000
XC:            -168.982873
Entropy (-ST):   -0.042867
Local:           +3.023992
--------------------------
Free energy:   -178.983244
Extrapolated:  -178.961811

Fermi level: -4.12546

 Band  Eigenvalues  Occupancy
    0    -22.96225    2.00000
    1    -21.61817    2.00000
    2    -20.64411    2.00000
    3    -20.38359    2.00000
    4    -19.95959    2.00000
    5    -19.77224    2.00000
    6    -19.25544    2.00000
    7    -18.82724    2.00000
    8    -18.17902    2.00000
    9    -17.99711    2.00000
   10    -17.68952    2.00000
   11    -17.06036    2.00000
   12    -16.36772    2.00000
   13    -15.92008    2.00000
   14    -15.18527    2.00000
   15    -15.17984    2.00000
   16    -14.45805    2.00000
   17    -14.29217    2.00000
   18    -13.54561    2.00000
   19    -12.78220    2.00000
   20    -12.48172    2.00000
   21    -11.97887    2.00000
   22    -11.64687    2.00000
   23    -11.54163    2.00000
   24    -11.20088    2.00000
   25    -10.54450    2.00000
   26    -10.09633    2.00000
   27     -9.45621    2.00000
   28     -9.35879    2.00000
   29     -8.83976    2.00000
   30     -8.68561    2.00000
   31     -8.54083    2.00000
   32     -8.35746    2.00000
   33     -8.34656    2.00000
   34     -8.14207    2.00000
   35     -7.95361    2.00000
   36     -7.20932    2.00000
   37     -7.05566    2.00000
   38     -6.90491    2.00000
   39     -6.83967    2.00000
   40     -6.65297    2.00000
   41     -6.31087    2.00000
   42     -6.05313    2.00000
   43     -5.89286    2.00000
   44     -5.65653    2.00000
   45     -5.24276    1.99997
   46     -4.70382    1.99386
   47     -4.52972    1.96550
   48     -3.72884    0.03719
   49     -3.47386    0.00295
   50     -3.27471    0.00040
   51     -3.12689    0.00009
   52     -3.00363    0.00003
   53     -2.57032    0.00000
   54     -2.50258    0.00000
   55     -2.18952    0.00000
   56     -1.41107    0.00000
   57     -1.14400    0.00000
   58     -1.13176    0.00000
   59     -0.18668    0.00000
   60     -0.14518    0.00000
   61      0.13398    0.00000
   62      0.47871    0.00000
   63      1.43575    0.00000
   64      1.89117    0.00000
   65      2.43503    0.00000
   66      3.50599    0.00000
   67      4.31891    0.00000
   68      4.65514    0.00000
   69      4.71191    0.00000
   70      5.37431    0.00000
   71      5.97933    0.00000
   72      6.27408    0.00000
   73      6.53386    0.00000
   74      6.80923    0.00000
   75      7.13993    0.00000
   76      7.14926    0.00000
   77      7.38251    0.00000
   78      7.81278    0.00000
   79      7.98874    0.00000
   80      8.14237    0.00000
   81      8.69866    0.00000
   82      8.71079    0.00000
   83      9.00269    0.00000
   84      9.06336    0.00000
   85      9.17206    0.00000
   86      9.35754    0.00000
   87      9.47053    0.00000
   88      9.49483    0.00000
   89      9.67011    0.00000
   90      9.68174    0.00000
   91      9.77981    0.00000
   92      9.97057    0.00000
   93     10.00591    0.00000
   94     10.05780    0.00000
   95     10.30252    0.00000
   96     10.35924    0.00000
   97     10.39293    0.00000


Forces in eV/Ang:
  0 C    -0.67955    0.27813    0.20621
  1 C    -0.02292   -0.22724    0.01279
  2 C     0.18822   -0.15136   -0.45791
  3 C    -0.80355   -1.41769   -0.12526
  4 C    -0.38411    0.39543   -0.14606
  5 C     0.41808   -0.09144    0.90683
  6 C     1.12645   -2.19168   -0.41321
  7 C    -0.81354    1.68825   -0.75934
  8 C    -0.06017   -0.56079   -0.02777
  9 C     3.60565   -5.43941    2.40859
 10 C     0.51237    0.41610    0.25806
 11 C    -0.99630    1.70962   -0.73934
 12 C    -0.35041   -0.54729    0.39506
 13 C    -0.14722    0.15500   -0.07031
 14 C     0.11563    0.09174   -0.50244
 15 C    -1.53290    0.40736   -0.52789
 16 C    -0.00276   -0.57002    0.07777
 17 C     0.16021    0.65265    0.75397
 18 C    -0.46645    2.04400   -1.28293
 19 C     0.58673   -1.93975    0.00637
 20 C    -0.40353    0.34365   -0.20340
 21 C    -1.06157    6.86509   -0.19304
 22 C     0.62142    0.11769    0.30854
 23 C     0.44532   -2.08223    0.07748

System changes: positions 

Initializing position-dependent things.

Density initialized from wave functions
           .--------------------------------------.  
          /|                                      |  
         / |                                      |  
        /  |                                      |  
       /   |                                      |  
      /    |                                      |  
     /     |                                      |  
    /      |                                      |  
   /       |                                      |  
  /        |        C  C     C  C                 |  
 *         |  C  C        C      C                |  
 |         | C       C   CC C CC C                |  
 |         .-C-C--C-----C--C--C-------------------.  
 |        /                                      /   
 |       /                                      /    
 |      /                                      /     
 |     /                                      /      
 |    /                                      /       
 |   /                                      /        
 |  /                                      /         
 | /                                      /          
 |/                                      /           
 *--------------------------------------*            

Positions:
   0 C      6.296633   10.452180    5.227337
   1 C      5.119701   10.001265    5.330607
   2 C      8.761213   11.263628    5.195588
   3 C      4.015526    9.225693    5.420161
   4 C      7.677762   10.380289    4.984109
   5 C      9.997596   10.906373    5.086472
   6 C      3.340608    8.105890    5.443229
   7 C      8.113003    9.070972    4.503957
   8 C     10.595086    9.686942    4.861395
   9 C      3.216617    6.704531    5.377860
  10 C      7.303571    7.900228    4.312908
  11 C      9.510365    8.839163    4.452204
  12 C      8.489378    4.697855    6.445724
  13 C      7.296281    4.288055    6.539548
  14 C     10.876425    5.712590    6.370545
  15 C      5.952298    4.140248    6.496167
  16 C      9.520007    5.544139    6.007560
  17 C     11.597657    6.708110    5.975055
  18 C      4.722151    4.479094    6.210873
  19 C      9.076153    6.543603    5.039120
  20 C     11.297912    7.841039    5.252391
  21 C      3.740053    5.330471    5.668787
  22 C      7.739871    6.754583    4.555506
  23 C      9.991355    7.577719    4.718863

Unit cell:
           periodic     x           y           z      points  spacing
  1. axis:    yes   16.000000    0.000000    0.000000    80     0.2000
  2. axis:    yes    0.000000   16.000000    0.000000    80     0.2000
  3. axis:    yes    0.000000    0.000000   10.000000    48     0.2083

Effective grid spacing dv^(1/3) = 0.2027

                     log10-error:    total        iterations:
           time      wfs    density  energy       fermi  poisson
iter:   1  17:13:44          +inf  -179.954601    3      5      
iter:   2  17:13:45         -1.93  -179.837901    2      2      
iter:   3  17:13:45         -2.08  -179.734997    2      2      
iter:   4  17:13:46         -2.42  -179.727734    2      2      
iter:   5  17:13:46         -2.75  -179.726112    1      1      
iter:   6  17:13:47         -2.82  -179.727208    2      2      
iter:   7  17:13:47         -3.07  -179.727222    2      1      
iter:   8  17:13:48         -3.12  -179.724871    2      1      
iter:   9  17:13:48         -3.49  -179.726852    1      1      
iter:  10  17:13:49         -3.57  -179.727738    2      1      
iter:  11  17:13:49         -3.85  -179.728429    2      1      
iter:  12  17:13:50         -3.81  -179.727648    1      1      
iter:  13  17:13:50         -4.17  -179.727370    1      1      

Converged after 13 iterations.

Dipole moment: (0.230972, 0.077713, -0.030234) |e|*Ang

Energy contributions relative to reference atoms: (reference = -24663.074771)

Kinetic:        +78.738130
Potential:      -92.311568
External:        +0.000000
XC:            -169.180607
Entropy (-ST):   -0.023174
Local:           +3.038263
--------------------------
Free energy:   -179.738957
Extrapolated:  -179.727370

Fermi level: -4.12159

 Band  Eigenvalues  Occupancy
    0    -22.91911    2.00000
    1    -21.62900    2.00000
    2    -20.63312    2.00000
    3    -20.35357    2.00000
    4    -19.93472    2.00000
    5    -19.75145    2.00000
    6    -19.23227    2.00000
    7    -18.84122    2.00000
    8    -18.14882    2.00000
    9    -18.02143    2.00000
   10    -17.66469    2.00000
   11    -17.12935    2.00000
   12    -16.30753    2.00000
   13    -15.94288    2.00000
   14    -15.16247    2.00000
   15    -15.15161    2.00000
   16    -14.51258    2.00000
   17    -14.26565    2.00000
   18    -13.49945    2.00000
   19    -12.81373    2.00000
   20    -12.46232    2.00000
   21    -12.12931    2.00000
   22    -11.66556    2.00000
   23    -11.55323    2.00000
   24    -11.19946    2.00000
   25    -10.51952    2.00000
   26    -10.11318    2.00000
   27     -9.42823    2.00000
   28     -9.36352    2.00000
   29     -8.82823    2.00000
   30     -8.67589    2.00000
   31     -8.53251    2.00000
   32     -8.32315    2.00000
   33     -8.30933    2.00000
   34     -8.13554    2.00000
   35     -7.95819    2.00000
   36     -7.18933    2.00000
   37     -7.10971    2.00000
   38     -6.92890    2.00000
   39     -6.83436    2.00000
   40     -6.65356    2.00000
   41     -6.26073    2.00000
   42     -6.03198    2.00000
   43     -5.90762    2.00000
   44     -5.67196    2.00000
   45     -5.22336    1.99997
   46     -4.79862    1.99771
   47     -4.59705    1.98292
   48     -3.65124    0.01797
   49     -3.38079    0.00121
   50     -3.17573    0.00016
   51     -3.03524    0.00004
   52     -3.00773    0.00003
   53     -2.55759    0.00000
   54     -2.51967    0.00000
   55     -1.99316    0.00000
   56     -1.46063    0.00000
   57     -1.14074    0.00000
   58     -1.07475    0.00000
   59     -0.19334    0.00000
   60     -0.18401    0.00000
   61      0.17302    0.00000
   62      0.43945    0.00000
   63      1.51355    0.00000
   64      1.90099    0.00000
   65      2.42117    0.00000
   66      3.61540    0.00000
   67      4.31467    0.00000
   68      4.66438    0.00000
   69      4.86621    0.00000
   70      5.61118    0.00000
   71      5.98418    0.00000
   72      6.50723    0.00000
   73      6.50786    0.00000
   74      6.87771    0.00000
   75      7.07471    0.00000
   76      7.08729    0.00000
   77      7.35816    0.00000
   78      7.62034    0.00000
   79      7.94349    0.00000
   80      8.12291    0.00000
   81      8.65427    0.00000
   82      8.70675    0.00000
   83      9.01985    0.00000
   84      9.09975    0.00000
   85      9.17213    0.00000
   86      9.36339    0.00000
   87      9.44259    0.00000
   88      9.51560    0.00000
   89      9.65328    0.00000
   90      9.66775    0.00000
   91      9.77937    0.00000
   92      9.97277    0.00000
   93     10.00777    0.00000
   94     10.07026    0.00000
   95     10.31441    0.00000
   96     10.38724    0.00000
   97     10.40736    0.00000


Forces in eV/Ang:
  0 C    -0.78618    0.26232    0.22185
  1 C    -0.07320   -0.23163    0.01784
  2 C     0.14546   -0.14205   -0.42374
  3 C    -0.86372   -1.76633   -0.12197
  4 C    -0.31783    0.53290   -0.12226
  5 C     0.41323   -0.16098    0.87610
  6 C     1.24220   -1.86969   -0.39030
  7 C    -0.58859    1.32135   -0.76647
  8 C    -0.08733   -0.48739    0.00872
  9 C     3.43198   -4.79924    2.29531
 10 C     0.37001    0.94830    0.16012
 11 C    -0.83676    0.90977   -0.60618
 12 C    -0.44656   -0.59424    0.41098
 13 C    -0.19419    0.12666   -0.06120
 14 C     0.08093    0.06379   -0.46693
 15 C    -1.78475    0.62132   -0.63591
 16 C     0.13684   -0.60776    0.14228
 17 C     0.11869    0.68628    0.69614
 18 C    -0.21770    1.93516   -1.19690
 19 C     0.50355   -1.53566   -0.16211
 20 C    -0.37351    0.28540   -0.14361
 21 C    -0.77055    6.24909   -0.04999
 22 C     0.87359   -0.38985    0.43492
 23 C     0.03619   -1.38675   -0.10630

System changes: positions 

Initializing position-dependent things.

Density initialized from wave functions
           .--------------------------------------.  
          /|                                      |  
         / |                                      |  
        /  |                                      |  
       /   |                                      |  
      /    |                                      |  
     /     |                                      |  
    /      |                                      |  
   /       |                                      |  
  /        |        C  C     C  C                 |  
 *         |  C  C        C      C                |  
 |         | C       C   CC C CC C                |  
 |         .-C-C--C-----C--C--C-------------------.  
 |        /                                      /   
 |       /                                      /    
 |      /                                      /     
 |     /                                      /      
 |    /                                      /       
 |   /                                      /        
 |  /                                      /         
 | /                                      /          
 |/                                      /           
 *--------------------------------------*            

Positions:
   0 C      6.292123   10.454244    5.228801
   1 C      5.117327    9.998729    5.330847
   2 C      8.763048   11.262840    5.192539
   3 C      4.012093    9.214657    5.419147
   4 C      7.674433   10.383938    4.983249
   5 C      9.999940   10.905724    5.093385
   6 C      3.348905    8.090952    5.441032
   7 C      8.106819    9.082966    4.498543
   8 C     10.594089    9.682678    4.861217
   9 C      3.239068    6.675032    5.392885
  10 C      7.307438    7.899755    4.314867
  11 C      9.506926    8.846204    4.447767
  12 C      8.487183    4.694242    6.448386
  13 C      7.292877    4.288396    6.539132
  14 C     10.877743    5.713294    6.367109
  15 C      5.942823    4.145443    6.491689
  16 C      9.520049    5.539242    6.008598
  17 C     11.598332    6.712491    5.980798
  18 C      4.718813    4.494146    6.202098
  19 C      9.079847    6.529611    5.039311
  20 C     11.294556    7.843235    5.250874
  21 C      3.736075    5.369882    5.669409
  22 C      7.742305    6.757662    4.556849
  23 C      9.993941    7.569111    4.717546

Unit cell:
           periodic     x           y           z      points  spacing
  1. axis:    yes   16.000000    0.000000    0.000000    80     0.2000
  2. axis:    yes    0.000000   16.000000    0.000000    80     0.2000
  3. axis:    yes    0.000000    0.000000   10.000000    48     0.2083

Effective grid spacing dv^(1/3) = 0.2027

                     log10-error:    total        iterations:
           time      wfs    density  energy       fermi  poisson
iter:   1  17:13:52          +inf  -180.669416    2      5      
iter:   2  17:13:52         -1.91  -180.541162    2      2      
iter:   3  17:13:53         -2.07  -180.423303    2      2      
iter:   4  17:13:53         -2.39  -180.413497    2      2      
iter:   5  17:13:54         -2.77  -180.411852    2      1      
iter:   6  17:13:54         -2.84  -180.413108    2      2      
iter:   7  17:13:55         -3.10  -180.413898    2      2      
iter:   8  17:13:55         -3.05  -180.413201    2      2      
iter:   9  17:13:56         -3.59  -180.413834    1      1      
iter:  10  17:13:56         -3.67  -180.413845    1      1      
iter:  11  17:13:57         -3.79  -180.413598    2      1      
iter:  12  17:13:57         -4.05  -180.413811    1      1      

Converged after 12 iterations.

Dipole moment: (0.208946, 0.069916, -0.031183) |e|*Ang

Energy contributions relative to reference atoms: (reference = -24663.074771)

Kinetic:        +79.158670
Potential:      -92.994881
External:        +0.000000
XC:            -169.616844
Entropy (-ST):   -0.013123
Local:           +3.045806
--------------------------
Free energy:   -180.420372
Extrapolated:  -180.413811

Fermi level: -4.12133

 Band  Eigenvalues  Occupancy
    0    -22.87520    2.00000
    1    -21.63503    2.00000
    2    -20.61532    2.00000
    3    -20.31934    2.00000
    4    -19.91163    2.00000
    5    -19.75411    2.00000
    6    -19.21441    2.00000
    7    -18.87883    2.00000
    8    -18.12123    2.00000
    9    -18.05460    2.00000
   10    -17.64100    2.00000
   11    -17.20984    2.00000
   12    -16.25144    2.00000
   13    -15.96265    2.00000
   14    -15.13289    2.00000
   15    -15.12253    2.00000
   16    -14.56747    2.00000
   17    -14.24204    2.00000
   18    -13.45731    2.00000
   19    -12.85080    2.00000
   20    -12.44888    2.00000
   21    -12.23056    2.00000
   22    -11.69133    2.00000
   23    -11.55404    2.00000
   24    -11.19187    2.00000
   25    -10.49203    2.00000
   26    -10.12266    2.00000
   27     -9.40250    2.00000
   28     -9.36509    2.00000
   29     -8.81775    2.00000
   30     -8.67507    2.00000
   31     -8.53822    2.00000
   32     -8.29522    2.00000
   33     -8.27773    2.00000
   34     -8.12924    2.00000
   35     -7.97093    2.00000
   36     -7.17723    2.00000
   37     -7.17012    2.00000
   38     -6.95947    2.00000
   39     -6.82542    2.00000
   40     -6.64262    2.00000
   41     -6.21391    2.00000
   42     -6.01210    2.00000
   43     -5.91637    2.00000
   44     -5.67770    2.00000
   45     -5.20595    1.99996
   46     -4.89415    1.99912
   47     -4.66113    1.99099
   48     -3.58431    0.00926
   49     -3.30543    0.00057
   50     -3.06505    0.00005
   51     -3.00935    0.00003
   52     -2.93075    0.00001
   53     -2.54038    0.00000
   54     -2.53186    0.00000
   55     -1.78444    0.00000
   56     -1.49753    0.00000
   57     -1.14525    0.00000
   58     -0.99765    0.00000
   59     -0.21634    0.00000
   60     -0.20139    0.00000
   61      0.21556    0.00000
   62      0.40875    0.00000
   63      1.61396    0.00000
   64      1.90916    0.00000
   65      2.41245    0.00000
   66      3.69661    0.00000
   67      4.30756    0.00000
   68      4.67779    0.00000
   69      4.93023    0.00000
   70      5.73702    0.00000
   71      5.97100    0.00000
   72      6.48769    0.00000
   73      6.73692    0.00000
   74      6.97453    0.00000
   75      7.03570    0.00000
   76      7.11814    0.00000
   77      7.31376    0.00000
   78      7.46844    0.00000
   79      7.90848    0.00000
   80      8.13988    0.00000
   81      8.62193    0.00000
   82      8.71503    0.00000
   83      9.04020    0.00000
   84      9.17298    0.00000
   85      9.18595    0.00000
   86      9.39112    0.00000
   87      9.42873    0.00000
   88      9.54620    0.00000
   89      9.65006    0.00000
   90      9.66390    0.00000
   91      9.78149    0.00000
   92      9.98430    0.00000
   93     10.00820    0.00000
   94     10.08511    0.00000
   95     10.31386    0.00000
   96     10.41270    0.00000
   97     10.42438    0.00000


Forces in eV/Ang:
  0 C    -0.96267    0.21118    0.23930
  1 C    -0.00620   -0.18717    0.00628
  2 C     0.14200   -0.13203   -0.38375
  3 C    -0.84268   -1.98962   -0.11325
  4 C    -0.27201    0.64562   -0.10047
  5 C     0.37467   -0.19866    0.82342
  6 C     1.28334   -1.59866   -0.38134
  7 C    -0.37520    0.93472   -0.76884
  8 C    -0.10420   -0.43432    0.04515
  9 C     2.97690   -3.49835    2.00592
 10 C     0.28881    1.24943    0.10079
 11 C    -0.69973    0.23556   -0.50508
 12 C    -0.62304   -0.66902    0.43478
 13 C    -0.10653    0.13923   -0.06723
 14 C     0.08493    0.06516   -0.43408
 15 C    -1.92242    0.78967   -0.68948
 16 C     0.23368   -0.65134    0.19598
 17 C     0.05966    0.68212    0.64717
 18 C     0.00371    1.76865   -1.08348
 19 C     0.42439   -1.16858   -0.30996
 20 C    -0.35167    0.24639   -0.09153
 21 C    -0.30168    5.03240    0.19173
 22 C     1.01009   -0.66228    0.50001
 23 C    -0.30284   -0.79700   -0.25647

System changes: positions 

Initializing position-dependent things.

Density initialized from wave functions
           .--------------------------------------.  
          /|                                      |  
         / |                                      |  
        /  |                                      |  
       /   |                                      |  
      /    |                                      |  
     /     |                                      |  
    /      |                                      |  
   /       |                                      |  
  /        |        C  C     C  C                 |  
 *         |  C  C        C      C                |  
 |         | C       C   CC C CC C                |  
 |         .-C-C--C-----C--C--C-------------------.  
 |        /                                      /   
 |       /                                      /    
 |      /                                      /     
 |     /                                      /      
 |    /                                      /       
 |   /                                      /        
 |  /                                      /         
 | /                                      /          
 |/                                      /           
 *--------------------------------------*            

Positions:
   0 C      6.283983   10.456618    5.231018
   1 C      5.114830    9.995534    5.331013
   2 C      8.765740   11.261779    5.188560
   3 C      4.008476    9.198390    5.417779
   4 C      7.669913   10.389913    4.982197
   5 C     10.002860   10.904597    5.102582
   6 C      3.360438    8.071656    5.438019
   7 C      8.099916    9.096697    4.490810
   8 C     10.592627    9.676956    4.861308
   9 C      3.264466    6.650435    5.410346
  10 C      7.312793    7.900490    4.317452
  11 C      9.501834    8.853351    4.441565
  12 C      8.482289    4.688346    6.452436
  13 C      7.289107    4.289167    6.538371
  14 C     10.879801    5.714405    6.362464
  15 C      5.929726    4.153926    6.485375
  16 C      9.520624    5.531837    6.010465
  17 C     11.598717    6.718619    5.988538
  18 C      4.715454    4.513789    6.190781
  19 C      9.084521    6.512659    5.038414
  20 C     11.289935    7.846173    5.249130
  21 C      3.736155    5.409687    5.673361
  22 C      7.746521    6.761129    4.559036
  23 C      9.995666    7.558833    4.715123

Unit cell:
           periodic     x           y           z      points  spacing
  1. axis:    yes   16.000000    0.000000    0.000000    80     0.2000
  2. axis:    yes    0.000000   16.000000    0.000000    80     0.2000
  3. axis:    yes    0.000000    0.000000   10.000000    48     0.2083

Effective grid spacing dv^(1/3) = 0.2027

                     log10-error:    total        iterations:
           time      wfs    density  energy       fermi  poisson
iter:   1  17:13:59          +inf  -181.328502    3      5      
iter:   2  17:14:00         -1.84  -181.170599    2      2      
iter:   3  17:14:00         -2.00  -181.021794    2      2      
iter:   4  17:14:01         -2.36  -181.008511    2      2      
iter:   5  17:14:01         -2.69  -181.008180    2      2      
iter:   6  17:14:02         -2.80  -181.007196    2      2      
iter:   7  17:14:02         -3.04  -181.007501    2      2      
iter:   8  17:14:03         -3.15  -181.008166    1      1      
iter:   9  17:14:03         -3.50  -181.008003    1      1      
iter:  10  17:14:04         -3.58  -181.008175    2      1      
iter:  11  17:14:04         -3.70  -181.008631    1      1      
iter:  12  17:14:05         -3.62  -181.007732    1      1      
iter:  13  17:14:05         -3.98  -181.008268    2      1      
iter:  14  17:14:06         -3.64  -181.008126    1      1      
iter:  15  17:14:06         -4.32  -181.007682    1      1      

Converged after 15 iterations.

Dipole moment: (0.181541, 0.060782, -0.030794) |e|*Ang

Energy contributions relative to reference atoms: (reference = -24663.074771)

Kinetic:        +81.562022
Potential:      -95.202283
External:        +0.000000
XC:            -170.417948
Entropy (-ST):   -0.007462
Local:           +3.054258
--------------------------
Free energy:   -181.011413
Extrapolated:  -181.007682

Fermi level: -4.11865

 Band  Eigenvalues  Occupancy
    0    -22.82626    2.00000
    1    -21.63522    2.00000
    2    -20.59114    2.00000
    3    -20.28042    2.00000
    4    -19.89037    2.00000
    5    -19.79421    2.00000
    6    -19.19946    2.00000
    7    -18.95359    2.00000
    8    -18.11457    2.00000
    9    -18.08739    2.00000
   10    -17.62212    2.00000
   11    -17.29213    2.00000
   12    -16.20230    2.00000
   13    -15.96863    2.00000
   14    -15.10595    2.00000
   15    -15.09196    2.00000
   16    -14.60997    2.00000
   17    -14.22233    2.00000
   18    -13.42102    2.00000
   19    -12.89826    2.00000
   20    -12.45052    2.00000
   21    -12.27982    2.00000
   22    -11.71589    2.00000
   23    -11.55304    2.00000
   24    -11.18442    2.00000
   25    -10.45960    2.00000
   26    -10.12604    2.00000
   27     -9.37256    2.00000
   28     -9.36396    2.00000
   29     -8.81730    2.00000
   30     -8.69573    2.00000
   31     -8.55863    2.00000
   32     -8.27263    2.00000
   33     -8.25239    2.00000
   34     -8.13541    2.00000
   35     -7.98608    2.00000
   36     -7.26101    2.00000
   37     -7.15222    2.00000
   38     -6.99448    2.00000
   39     -6.81617    2.00000
   40     -6.62732    2.00000
   41     -6.19207    2.00000
   42     -6.00666    2.00000
   43     -5.91530    2.00000
   44     -5.67902    2.00000
   45     -5.19562    1.99996
   46     -4.98502    1.99965
   47     -4.72253    1.99524
   48     -3.51558    0.00480
   49     -3.23815    0.00030
   50     -3.00462    0.00003
   51     -2.94372    0.00002
   52     -2.81429    0.00000
   53     -2.53509    0.00000
   54     -2.51564    0.00000
   55     -1.54950    0.00000
   56     -1.48953    0.00000
   57     -1.13975    0.00000
   58     -0.89469    0.00000
   59     -0.23262    0.00000
   60     -0.21460    0.00000
   61      0.27077    0.00000
   62      0.39633    0.00000
   63      1.74377    0.00000
   64      1.92406    0.00000
   65      2.40785    0.00000
   66      3.78425    0.00000
   67      4.30100    0.00000
   68      4.69214    0.00000
   69      4.98003    0.00000
   70      5.76574    0.00000
   71      5.93740    0.00000
   72      6.47740    0.00000
   73      6.77127    0.00000
   74      6.91213    0.00000
   75      7.00032    0.00000
   76      7.25688    0.00000
   77      7.41450    0.00000
   78      7.41661    0.00000
   79      7.87375    0.00000
   80      8.21697    0.00000
   81      8.58800    0.00000
   82      8.73040    0.00000
   83      9.06260    0.00000
   84      9.17406    0.00000
   85      9.28132    0.00000
   86      9.42061    0.00000
   87      9.43357    0.00000
   88      9.57124    0.00000
   89      9.65742    0.00000
   90      9.71106    0.00000
   91      9.78321    0.00000
   92     10.00665    0.00000
   93     10.01392    0.00000
   94     10.10284    0.00000
   95     10.30298    0.00000
   96     10.43624    0.00000
   97     10.44694    0.00000


Forces in eV/Ang:
  0 C    -0.79086    0.23771    0.20914
  1 C    -0.26489   -0.31830    0.02215
  2 C     0.11395   -0.11857   -0.32906
  3 C    -0.59426   -1.92390   -0.10613
  4 C    -0.28680    0.71907   -0.08171
  5 C     0.36769   -0.25706    0.77900
  6 C     1.23307   -1.21689   -0.34795
  7 C    -0.19833    0.59569   -0.72456
  8 C    -0.13137   -0.38676    0.09372
  9 C     2.12232   -1.60821    1.47798
 10 C     0.19437    1.46782    0.04691
 11 C    -0.51561   -0.41470   -0.37746
 12 C    -0.48461   -0.60073    0.40874
 13 C    -0.39377    0.06536   -0.06494
 14 C     0.06319    0.04382   -0.37433
 15 C    -1.73648    0.86868   -0.71321
 16 C     0.27283   -0.72597    0.24794
 17 C     0.00613    0.69543    0.58737
 18 C     0.17745    1.54123   -0.92065
 19 C     0.35839   -0.77989   -0.45868
 20 C    -0.35378    0.21953   -0.03203
 21 C     0.39629    2.99352    0.50958
 22 C     1.08747   -0.88205    0.54682
 23 C    -0.61467   -0.19177   -0.38756

System changes: positions 

Initializing position-dependent things.

Density initialized from wave functions
           .--------------------------------------.  
          /|                                      |  
         / |                                      |  
        /  |                                      |  
       /   |                                      |  
      /    |                                      |  
     /     |                                      |  
    /      |                                      |  
   /       |                                      |  
  /        |        C  C     C  C                 |  
 *         |  C C         C      C                |  
 |         | C       C   CC C CC C                |  
 |         .--CC--C-----C--C--C-------------------.  
 |        /                                      /   
 |       /                                      /    
 |      /                                      /     
 |     /                                      /      
 |    /                                      /       
 |   /                                      /        
 |  /                                      /         
 | /                                      /          
 |/                                      /           
 *--------------------------------------*            

Positions:
   0 C      6.275069   10.461276    5.233924
   1 C      5.106557    9.988015    5.331574
   2 C      8.769376   11.260123    5.182761
   3 C      4.006202    9.175401    5.415687
   4 C      7.662196   10.399739    4.980602
   5 C     10.008016   10.901972    5.116781
   6 C      3.377738    8.045443    5.433418
   7 C      8.090736    9.115405    4.479138
   8 C     10.590174    9.668310    4.862113
   9 C      3.293649    6.634097    5.431453
  10 C      7.320304    7.905175    4.321047
  11 C      9.494277    8.859734    4.432742
  12 C      8.478024    4.680433    6.458435
  13 C      7.278144    4.289339    6.537157
  14 C     10.882501    5.715760    6.355760
  15 C      5.912497    4.166877    6.475496
  16 C      9.521487    5.519115    6.013847
  17 C     11.598970    6.728946    6.000129
  18 C      4.711710    4.542232    6.174611
  19 C      9.091664    6.489912    5.035190
  20 C     11.282487    7.850863    5.247078
  21 C      3.744825    5.447434    5.683359
  22 C      7.754813    6.763672    4.563390
  23 C      9.995140    7.546504    4.710613

Unit cell:
           periodic     x           y           z      points  spacing
  1. axis:    yes   16.000000    0.000000    0.000000    80     0.2000
  2. axis:    yes    0.000000   16.000000    0.000000    80     0.2000
  3. axis:    yes    0.000000    0.000000   10.000000    48     0.2083

Effective grid spacing dv^(1/3) = 0.2027

                     log10-error:    total        iterations:
           time      wfs    density  energy       fermi  poisson
iter:   1  17:14:08          +inf  -181.928655    3      5      
iter:   2  17:14:08         -1.76  -181.711105    2      2      
iter:   3  17:14:09         -1.92  -181.508957    3      2      
iter:   4  17:14:09         -2.33  -181.496847    2      2      
iter:   5  17:14:10         -2.52  -181.490541    2      2      
iter:   6  17:14:10         -2.78  -181.489900    2      2      
iter:   7  17:14:11         -2.98  -181.492776    2      2      
iter:   8  17:14:11         -2.77  -181.488754    2      1      
iter:   9  17:14:12         -3.16  -181.489612    2      1      
iter:  10  17:14:12         -3.52  -181.491024    2      1      
iter:  11  17:14:13         -3.55  -181.489826    2      1      
iter:  12  17:14:13         -3.70  -181.490631    1      1      
iter:  13  17:14:14         -3.91  -181.490985    2      1      
iter:  14  17:14:14         -3.99  -181.490656    1      1      
iter:  15  17:14:15         -4.07  -181.490451    1      1      

Converged after 15 iterations.

Dipole moment: (0.139398, 0.046776, -0.028255) |e|*Ang

Energy contributions relative to reference atoms: (reference = -24663.074771)

Kinetic:        +84.836187
Potential:      -98.037628
External:        +0.000000
XC:            -171.351992
Entropy (-ST):   -0.004942
Local:           +3.065453
--------------------------
Free energy:   -181.492922
Extrapolated:  -181.490451

Fermi level: -4.10049

 Band  Eigenvalues  Occupancy
    0    -22.76723    2.00000
    1    -21.62714    2.00000
    2    -20.55763    2.00000
    3    -20.23060    2.00000
    4    -19.91142    2.00000
    5    -19.87313    2.00000
    6    -19.20948    2.00000
    7    -19.03332    2.00000
    8    -18.11908    2.00000
    9    -18.10883    2.00000
   10    -17.60688    2.00000
   11    -17.33346    2.00000
   12    -16.20085    2.00000
   13    -15.95978    2.00000
   14    -15.10703    2.00000
   15    -15.03434    2.00000
   16    -14.64871    2.00000
   17    -14.21684    2.00000
   18    -13.40809    2.00000
   19    -12.97299    2.00000
   20    -12.48274    2.00000
   21    -12.28298    2.00000
   22    -11.74536    2.00000
   23    -11.55897    2.00000
   24    -11.16927    2.00000
   25    -10.41728    2.00000
   26    -10.11492    2.00000
   27     -9.35957    2.00000
   28     -9.34127    2.00000
   29     -8.85501    2.00000
   30     -8.76789    2.00000
   31     -8.58907    2.00000
   32     -8.26253    2.00000
   33     -8.24613    2.00000
   34     -8.16344    2.00000
   35     -7.97859    2.00000
   36     -7.34042    2.00000
   37     -7.13927    2.00000
   38     -7.02241    2.00000
   39     -6.79732    2.00000
   40     -6.58739    2.00000
   41     -6.18238    2.00000
   42     -6.00967    2.00000
   43     -5.89426    2.00000
   44     -5.66220    2.00000
   45     -5.19201    1.99996
   46     -5.04516    1.99984
   47     -4.75059    1.99700
   48     -3.44791    0.00293
   49     -3.19170    0.00023
   50     -2.99730    0.00003
   51     -2.85120    0.00001
   52     -2.69928    0.00000
   53     -2.53360    0.00000
   54     -2.48197    0.00000
   55     -1.44765    0.00000
   56     -1.33463    0.00000
   57     -1.13200    0.00000
   58     -0.71535    0.00000
   59     -0.23840    0.00000
   60     -0.22485    0.00000
   61      0.30024    0.00000
   62      0.39596    0.00000
   63      1.84586    0.00000
   64      1.95189    0.00000
   65      2.40572    0.00000
   66      3.88021    0.00000
   67      4.27762    0.00000
   68      4.71407    0.00000
   69      5.06037    0.00000
   70      5.72791    0.00000
   71      5.88515    0.00000
   72      6.49577    0.00000
   73      6.71030    0.00000
   74      6.87204    0.00000
   75      7.01957    0.00000
   76      7.27693    0.00000
   77      7.47715    0.00000
   78      7.62504    0.00000
   79      7.83174    0.00000
   80      8.44623    0.00000
   81      8.59804    0.00000
   82      8.73878    0.00000
   83      9.09095    0.00000
   84      9.18243    0.00000
   85      9.38518    0.00000
   86      9.43830    0.00000
   87      9.46759    0.00000
   88      9.57955    0.00000
   89      9.64200    0.00000
   90      9.77943    0.00000
   91      9.78836    0.00000
   92      9.99671    0.00000
   93     10.05678    0.00000
   94     10.12695    0.00000
   95     10.28334    0.00000
   96     10.45638    0.00000
   97     10.47396    0.00000


Forces in eV/Ang:
  0 C    -1.06499    0.11632    0.22918
  1 C     0.00263   -0.24067   -0.01655
  2 C     0.17325   -0.10627   -0.25620
  3 C    -0.35201   -1.63166   -0.10172
  4 C    -0.23213    0.79119   -0.08601
  5 C     0.23866   -0.32574    0.71466
  6 C     1.07771   -0.79297   -0.26491
  7 C     0.06028    0.19097   -0.68396
  8 C    -0.14967   -0.37875    0.16579
  9 C     0.95210    0.74796    0.78700
 10 C     0.19163    1.21743    0.06390
 11 C    -0.32514   -0.99065   -0.24995
 12 C    -0.77887   -0.71634    0.42287
 13 C    -0.19082    0.15729   -0.10613
 14 C     0.09728    0.08556   -0.29496
 15 C    -1.25425    0.86251   -0.62857
 16 C     0.36293   -0.71098    0.24715
 17 C    -0.10149    0.63645    0.50973
 18 C     0.37713    1.13739   -0.66335
 19 C     0.23061   -0.31888   -0.57824
 20 C    -0.38301    0.20888    0.04137
 21 C     1.07787    0.45787    0.86709
 22 C     0.92331   -0.70563    0.48039
 23 C    -0.86610    0.36548   -0.52144

System changes: positions 

Initializing position-dependent things.

Density initialized from wave functions
           .--------------------------------------.  
          /|                                      |  
         / |                                      |  
        /  |                                      |  
       /   |                                      |  
      /    |                                      |  
     /     |                                      |  
    /      |                                      |  
   /       |                                      |  
  /        |        C  C     C  C                 |  
 *         |  C C         C      C                |  
 |         | C       C   CC C CC C                |  
 |         .--CC--C-----C--C--C-------------------.  
 |        /                                      /   
 |       /                                      /    
 |      /                                      /     
 |     /                                      /      
 |    /                                      /       
 |   /                                      /        
 |  /                                      /         
 | /                                      /          
 |/                                      /           
 *--------------------------------------*            

Positions:
   0 C      6.256916   10.465877    5.238568
   1 C      5.101185    9.979351    5.331630
   2 C      8.775239   11.257666    5.175294
   3 C      4.004448    9.147593    5.412767
   4 C      7.652639   10.414451    4.978028
   5 C     10.013787   10.897025    5.136097
[...]
iter:   7  17:18:33         -3.99  -183.262991    1      1      
iter:   8  17:18:34         -4.15  -183.262996    1      1      

Converged after 8 iterations.

Dipole moment: (0.081221, 0.019969, -0.034504) |e|*Ang

Energy contributions relative to reference atoms: (reference = -24663.074771)

Kinetic:       +105.725475
Potential:     -114.828363
External:        +0.000000
XC:            -177.241466
Entropy (-ST):   -0.002002
Local:           +3.082359
--------------------------
Free energy:   -183.263998
Extrapolated:  -183.262996

Fermi level: -3.99493

 Band  Eigenvalues  Occupancy
    0    -23.12180    2.00000
    1    -21.37849    2.00000
    2    -20.76180    2.00000
    3    -20.34496    2.00000
    4    -20.14926    2.00000
    5    -19.98890    2.00000
    6    -19.25426    2.00000
    7    -19.16094    2.00000
    8    -18.32646    2.00000
    9    -18.16489    2.00000
   10    -17.60107    2.00000
   11    -17.30806    2.00000
   12    -16.30577    2.00000
   13    -16.18753    2.00000
   14    -15.02732    2.00000
   15    -15.01853    2.00000
   16    -14.88409    2.00000
   17    -14.15225    2.00000
   18    -13.44876    2.00000
   19    -13.23790    2.00000
   20    -12.51160    2.00000
   21    -12.41504    2.00000
   22    -11.76430    2.00000
   23    -11.74898    2.00000
   24    -11.54472    2.00000
   25    -10.45506    2.00000
   26    -10.00247    2.00000
   27     -9.44106    2.00000
   28     -9.25050    2.00000
   29     -9.24757    2.00000
   30     -9.10976    2.00000
   31     -9.03140    2.00000
   32     -8.42866    2.00000
   33     -8.36544    2.00000
   34     -8.35627    2.00000
   35     -8.06457    2.00000
   36     -7.48709    2.00000
   37     -7.08806    2.00000
   38     -6.95967    2.00000
   39     -6.55577    2.00000
   40     -6.40005    2.00000
   41     -6.27405    2.00000
   42     -6.11630    2.00000
   43     -5.80687    2.00000
   44     -5.60557    2.00000
   45     -5.01779    1.99993
   46     -4.91773    1.99980
   47     -4.77553    1.99919
   48     -3.21853    0.00085
   49     -3.03723    0.00014
   50     -2.96289    0.00007
   51     -2.85026    0.00002
   52     -2.75267    0.00001
   53     -2.22034    0.00000
   54     -1.38173    0.00000
   55     -1.20206    0.00000
   56     -1.18423    0.00000
   57     -0.55765    0.00000
   58     -0.18998    0.00000
   59      0.20619    0.00000
   60      0.42461    0.00000
   61      0.60778    0.00000
   62      1.04501    0.00000
   63      1.64156    0.00000
   64      2.19143    0.00000
   65      2.91875    0.00000
   66      3.80058    0.00000
   67      3.94015    0.00000
   68      4.55273    0.00000
   69      5.59498    0.00000
   70      5.82346    0.00000
   71      6.21705    0.00000
   72      6.31043    0.00000
   73      6.86272    0.00000
   74      7.01314    0.00000
   75      7.25049    0.00000
   76      7.48487    0.00000
   77      7.91542    0.00000
   78      8.08517    0.00000
   79      8.48499    0.00000
   80      8.70437    0.00000
   81      8.90848    0.00000
   82      9.04950    0.00000
   83      9.25422    0.00000
   84      9.28625    0.00000
   85      9.39093    0.00000
   86      9.44700    0.00000
   87      9.58167    0.00000
   88      9.65012    0.00000
   89      9.70867    0.00000
   90      9.73327    0.00000
   91      9.91096    0.00000
   92      9.91794    0.00000
   93     10.09369    0.00000
   94     10.13225    0.00000
   95     10.39694    0.00000
   96     10.41415    0.00000
   97     10.47501    0.00000


Forces in eV/Ang:
  0 C    -0.01200   -0.00225    0.01204
  1 C     0.01827    0.01054   -0.02335
  2 C     0.00921   -0.03608    0.03236
  3 C    -0.02084   -0.03072    0.02253
  4 C    -0.00887   -0.04312   -0.00135
  5 C    -0.03697    0.04101    0.00463
  6 C     0.00653    0.00485   -0.00892
  7 C     0.02822    0.04892   -0.03014
  8 C     0.04451   -0.02263   -0.04442
  9 C    -0.05703   -0.00665    0.04104
 10 C     0.06453   -0.10290    0.02518
 11 C    -0.01254    0.15144   -0.02771
 12 C    -0.03616   -0.02251    0.05332
 13 C     0.06951    0.02426   -0.01338
 14 C    -0.02825    0.02011    0.00767
 15 C     0.02116    0.00243   -0.01984
 16 C    -0.01053    0.05511   -0.04095
 17 C     0.00228   -0.04346    0.03125
 18 C    -0.07620    0.03614   -0.02557
 19 C     0.02036   -0.02869   -0.00106
 20 C     0.02119    0.03849   -0.03690
 21 C    -0.01892    0.01447    0.05411
 22 C    -0.05284    0.13986   -0.00180
 23 C     0.10205   -0.14492    0.01609

System changes: positions 

Initializing position-dependent things.

Density initialized from wave functions
           .--------------------------------------.  
          /|                                      |  
         / |                                      |  
        /  |                                      |  
       /   |                                      |  
      /    |                                      |  
     /     |                                      |  
    /      |                                      |  
   /       |                                      |  
  /        |           C     C  C                 |  
 *         |   C C  C     C     CC                |  
 |         |  C C         C   CC                  |  
 |         .------C--C--CC-CC-C-------------------.  
 |        /             C                        /   
 |       /                                      /    
 |      /                                      /     
 |     /                                      /      
 |    /                                      /       
 |   /                                      /        
 |  /                                      /         
 | /                                      /          
 |/                                      /           
 *--------------------------------------*            

Positions:
   0 C      6.235482   10.584130    4.959920
   1 C      5.091843   10.068171    5.098915
   2 C      8.732649   11.106036    5.325770
   3 C      4.076569    9.228064    5.357293
   4 C      7.618542   10.435904    4.777048
   5 C      9.900330   10.644440    5.597052
   6 C      3.567133    8.088755    5.592515
   7 C      8.074707    9.131473    4.191845
   8 C     10.432755    9.420410    5.215065
   9 C      3.511016    6.782506    5.868493
  10 C      7.398765    7.872794    4.014826
  11 C      9.445401    8.805151    4.303889
  12 C      8.563218    4.461479    6.262449
  13 C      7.353794    4.117382    6.369046
  14 C     10.733791    5.841545    6.457042
  15 C      6.014015    4.129688    6.449498
  16 C      9.541280    5.383061    5.855989
  17 C     11.286374    6.998634    6.377569
  18 C      4.870338    4.667800    6.328181
  19 C      9.134320    6.351182    4.786031
  20 C     10.961779    8.034279    5.511829
  21 C      3.952011    5.616387    6.118991
  22 C      7.844806    6.712716    4.260317
  23 C      9.946819    7.491256    4.584925

Unit cell:
           periodic     x           y           z      points  spacing
  1. axis:    yes   16.000000    0.000000    0.000000    80     0.2000
  2. axis:    yes    0.000000   16.000000    0.000000    80     0.2000
  3. axis:    yes    0.000000    0.000000   10.000000    48     0.2083

Effective grid spacing dv^(1/3) = 0.2027

                     log10-error:    total        iterations:
           time      wfs    density  energy       fermi  poisson
iter:   1  17:18:35          +inf  -183.264141    2      5      
iter:   2  17:18:36         -3.28  -183.264133    1      1      
iter:   3  17:18:36         -3.35  -183.264354    1      1      
iter:   4  17:18:37         -3.55  -183.264906    1      1      
iter:   5  17:18:37         -3.82  -183.264615    1      1      
iter:   6  17:18:38         -3.77  -183.263981    1      1      
iter:   7  17:18:38         -4.19  -183.263962    1      1      

Converged after 7 iterations.

Dipole moment: (0.080787, 0.018532, -0.035018) |e|*Ang

Energy contributions relative to reference atoms: (reference = -24663.074771)

Kinetic:       +105.511089
Potential:     -114.667099
External:        +0.000000
XC:            -177.185517
Entropy (-ST):   -0.001986
Local:           +3.078558
--------------------------
Free energy:   -183.264955
Extrapolated:  -183.263962

Fermi level: -3.99604

 Band  Eigenvalues  Occupancy
    0    -23.11789    2.00000
    1    -21.37530    2.00000
    2    -20.76127    2.00000
    3    -20.34484    2.00000
    4    -20.14595    2.00000
    5    -19.98756    2.00000
    6    -19.25506    2.00000
    7    -19.15900    2.00000
    8    -18.32145    2.00000
    9    -18.16345    2.00000
   10    -17.59909    2.00000
   11    -17.30932    2.00000
   12    -16.30748    2.00000
   13    -16.18992    2.00000
   14    -15.02558    2.00000
   15    -15.01878    2.00000
   16    -14.88362    2.00000
   17    -14.14824    2.00000
   18    -13.44751    2.00000
   19    -13.23723    2.00000
   20    -12.50677    2.00000
   21    -12.41705    2.00000
   22    -11.76450    2.00000
   23    -11.74630    2.00000
   24    -11.53875    2.00000
   25    -10.45094    2.00000
   26    -10.00635    2.00000
   27     -9.44406    2.00000
   28     -9.24768    2.00000
   29     -9.24049    2.00000
   30     -9.11037    2.00000
   31     -9.03202    2.00000
   32     -8.42741    2.00000
   33     -8.36401    2.00000
   34     -8.35769    2.00000
   35     -8.06216    2.00000
   36     -7.48848    2.00000
   37     -7.08801    2.00000
   38     -6.95901    2.00000
   39     -6.55731    2.00000
   40     -6.40103    2.00000
   41     -6.27428    2.00000
   42     -6.11287    2.00000
   43     -5.80691    2.00000
   44     -5.60904    2.00000
   45     -5.02077    1.99993
   46     -4.91677    1.99980
   47     -4.77829    1.99920
   48     -3.21868    0.00084
   49     -3.03579    0.00014
   50     -2.96591    0.00007
   51     -2.85160    0.00002
   52     -2.75219    0.00001
   53     -2.22041    0.00000
   54     -1.38223    0.00000
   55     -1.20290    0.00000
   56     -1.18704    0.00000
   57     -0.56516    0.00000
   58     -0.19093    0.00000
   59      0.19638    0.00000
   60      0.42280    0.00000
   61      0.61088    0.00000
   62      1.03945    0.00000
   63      1.64281    0.00000
   64      2.19606    0.00000
   65      2.92178    0.00000
   66      3.79064    0.00000
   67      3.93965    0.00000
   68      4.55882    0.00000
   69      5.60159    0.00000
   70      5.81827    0.00000
   71      6.21519    0.00000
   72      6.29944    0.00000
   73      6.85401    0.00000
   74      7.00709    0.00000
   75      7.25079    0.00000
   76      7.47099    0.00000
   77      7.90416    0.00000
   78      8.08755    0.00000
   79      8.48056    0.00000
   80      8.70047    0.00000
   81      8.90060    0.00000
   82      9.04893    0.00000
   83      9.24737    0.00000
   84      9.30129    0.00000
   85      9.39445    0.00000
   86      9.44261    0.00000
   87      9.57607    0.00000
   88      9.64975    0.00000
   89      9.70443    0.00000
   90      9.73234    0.00000
   91      9.90935    0.00000
   92      9.91789    0.00000
   93     10.09750    0.00000
   94     10.13760    0.00000
   95     10.39706    0.00000
   96     10.41154    0.00000
   97     10.47085    0.00000


Forces in eV/Ang:
  0 C    -0.00463   -0.00504    0.00332
  1 C     0.00005   -0.00979   -0.00993
  2 C     0.01729   -0.03179    0.02488
  3 C     0.00200    0.00378    0.00938
  4 C     0.01391   -0.04382   -0.00385
  5 C    -0.02276    0.02349    0.00575
  6 C    -0.00845    0.01688    0.00077
  7 C    -0.00183    0.03935   -0.02599
  8 C     0.01731    0.00578   -0.04099
  9 C    -0.06165    0.01775    0.03486
 10 C     0.07734   -0.02877    0.01913
 11 C    -0.01622    0.09744   -0.02276
 12 C    -0.01833   -0.00070    0.00831
 13 C     0.02267    0.02109   -0.00911
 14 C    -0.00908    0.04095   -0.00806
 15 C     0.01132    0.01512   -0.02201
 16 C    -0.02335    0.03412   -0.01021
 17 C     0.01279   -0.03841    0.02452
 18 C    -0.03750    0.00783   -0.02527
 19 C     0.02688   -0.02509   -0.01386
 20 C     0.00231   -0.00735   -0.01949
 21 C    -0.00183   -0.01671    0.05656
 22 C     0.00390    0.07306    0.00415
 23 C     0.05962   -0.08417    0.00463

System changes: positions 

Initializing position-dependent things.

Density initialized from wave functions
           .--------------------------------------.  
          /|                                      |  
         / |                                      |  
        /  |                                      |  
       /   |                                      |  
      /    |                                      |  
     /     |                                      |  
    /      |                                      |  
   /       |                                      |  
  /        |           C     C  C                 |  
 *         |   C C  C     C     CC                |  
 |         |  C C         C   CC                  |  
 |         .------C--C--CC-CC-C-------------------.  
 |        /             C                        /   
 |       /                                      /    
 |      /                                      /     
 |     /                                      /      
 |    /                                      /       
 |   /                                      /        
 |  /                                      /         
 | /                                      /          
 |/                                      /           
 *--------------------------------------*            

Positions:
   0 C      6.234102   10.583463    4.956606
   1 C      5.089952   10.068947    5.095744
   2 C      8.730410   11.105824    5.328144
   3 C      4.075351    9.228465    5.358003
   4 C      7.617843   10.435069    4.775765
   5 C      9.898563   10.644923    5.599173
   6 C      3.567884    8.089061    5.595037
   7 C      8.076811    9.132592    4.189437
   8 C     10.434076    9.421653    5.216394
   9 C      3.509808    6.783443    5.873978
  10 C      7.401878    7.872845    4.010417
  11 C      9.447729    8.806943    4.304330
  12 C      8.562908    4.459614    6.259982
  13 C      7.353857    4.115191    6.367381
  14 C     10.731988    5.840759    6.458928
  15 C      6.013438    4.129071    6.449256
  16 C      9.540594    5.382812    5.854151
  17 C     11.284718    6.998066    6.380354
  18 C      4.869990    4.668988    6.329971
  19 C      9.136253    6.350992    4.784174
  20 C     10.963267    8.034841    5.513893
  21 C      3.951991    5.618181    6.124947
  22 C      7.846957    6.713280    4.256454
  23 C      9.949949    7.491084    4.585505

Unit cell:
           periodic     x           y           z      points  spacing
  1. axis:    yes   16.000000    0.000000    0.000000    80     0.2000
  2. axis:    yes    0.000000   16.000000    0.000000    80     0.2000
  3. axis:    yes    0.000000    0.000000   10.000000    48     0.2083

Effective grid spacing dv^(1/3) = 0.2027

                     log10-error:    total        iterations:
           time      wfs    density  energy       fermi  poisson
iter:   1  17:18:40          +inf  -183.265689    2      4      
iter:   2  17:18:40         -3.46  -183.265458    1      1      
iter:   3  17:18:41         -3.52  -183.266169    1      1      
iter:   4  17:18:41         -3.73  -183.266411    1      1      
iter:   5  17:18:42         -3.98  -183.266113    1      1      
iter:   6  17:18:42         -4.21  -183.265288    1      1      

Converged after 6 iterations.

Dipole moment: (0.079526, 0.018274, -0.034638) |e|*Ang

Energy contributions relative to reference atoms: (reference = -24663.074771)

Kinetic:       +105.121930
Potential:     -114.362515
External:        +0.000000
XC:            -177.094037
Entropy (-ST):   -0.001969
Local:           +3.070318
--------------------------
Free energy:   -183.266272
Extrapolated:  -183.265288

Fermi level: -3.99591

 Band  Eigenvalues  Occupancy
    0    -23.10955    2.00000
    1    -21.37238    2.00000
    2    -20.75760    2.00000
    3    -20.34530    2.00000
    4    -20.14225    2.00000
    5    -19.98615    2.00000
    6    -19.25469    2.00000
    7    -19.15699    2.00000
    8    -18.32025    2.00000
    9    -18.16109    2.00000
   10    -17.59738    2.00000
   11    -17.30948    2.00000
   12    -16.30815    2.00000
   13    -16.18846    2.00000
   14    -15.02211    2.00000
   15    -15.01904    2.00000
   16    -14.88234    2.00000
   17    -14.14530    2.00000
   18    -13.44621    2.00000
   19    -13.23819    2.00000
   20    -12.50397    2.00000
   21    -12.41548    2.00000
   22    -11.76183    2.00000
   23    -11.74803    2.00000
   24    -11.53294    2.00000
   25    -10.44567    2.00000
   26    -10.00445    2.00000
   27     -9.44766    2.00000
   28     -9.24559    2.00000
   29     -9.23264    2.00000
   30     -9.11134    2.00000
   31     -9.03288    2.00000
   32     -8.42693    2.00000
   33     -8.36317    2.00000
   34     -8.35727    2.00000
   35     -8.05943    2.00000
   36     -7.49008    2.00000
   37     -7.08696    2.00000
   38     -6.95863    2.00000
   39     -6.55705    2.00000
   40     -6.40082    2.00000
   41     -6.27685    2.00000
   42     -6.11242    2.00000
   43     -5.80551    2.00000
   44     -5.61002    2.00000
   45     -5.02240    1.99993
   46     -4.91697    1.99980
   47     -4.77927    1.99921
   48     -3.21730    0.00083
   49     -3.03509    0.00013
   50     -2.96587    0.00007
   51     -2.85241    0.00002
   52     -2.75246    0.00001
   53     -2.22079    0.00000
   54     -1.38335    0.00000
   55     -1.20537    0.00000
   56     -1.18349    0.00000
   57     -0.57065    0.00000
   58     -0.19099    0.00000
   59      0.19050    0.00000
   60      0.42453    0.00000
   61      0.60530    0.00000
   62      1.03199    0.00000
   63      1.63626    0.00000
   64      2.19618    0.00000
   65      2.91431    0.00000
   66      3.78671    0.00000
   67      3.93286    0.00000
   68      4.54585    0.00000
   69      5.59856    0.00000
   70      5.82082    0.00000
   71      6.20746    0.00000
   72      6.29732    0.00000
   73      6.85564    0.00000
   74      6.99925    0.00000
   75      7.24689    0.00000
   76      7.47729    0.00000
   77      7.90887    0.00000
   78      8.08830    0.00000
   79      8.47329    0.00000
   80      8.69796    0.00000
   81      8.89787    0.00000
   82      9.05033    0.00000
   83      9.24614    0.00000
   84      9.29963    0.00000
   85      9.39459    0.00000
   86      9.43995    0.00000
   87      9.57158    0.00000
   88      9.64709    0.00000
   89      9.70417    0.00000
   90      9.73030    0.00000
   91      9.91148    0.00000
   92      9.91870    0.00000
   93     10.09689    0.00000
   94     10.13702    0.00000
   95     10.39481    0.00000
   96     10.40808    0.00000
   97     10.46917    0.00000


Forces in eV/Ang:
  0 C     0.00688   -0.01981   -0.00601
  1 C    -0.01042   -0.02042   -0.00762
  2 C     0.02549   -0.04020    0.01897
  3 C     0.01949    0.03189   -0.00362
  4 C     0.01557   -0.03048    0.00258
  5 C    -0.01963    0.01039    0.00626
  6 C    -0.02198    0.00108    0.00912
  7 C    -0.00306    0.02261   -0.01840
  8 C    -0.00452    0.01988   -0.02609
  9 C    -0.06047    0.04097    0.03172
 10 C     0.07295    0.02406    0.01215
 11 C    -0.00042    0.04149   -0.02245
 12 C    -0.00156    0.02163   -0.00192
 13 C    -0.01944    0.01924   -0.00966
 14 C    -0.00314    0.05035   -0.01602
 15 C     0.01518    0.02417   -0.02363
 16 C    -0.01883    0.01688    0.01373
 17 C     0.00033   -0.03628    0.02404
 18 C     0.01043   -0.02254   -0.00512
 19 C     0.01226   -0.00799   -0.01195
 20 C    -0.01102   -0.02983   -0.01359
 21 C    -0.00979   -0.01493    0.05181
 22 C     0.04294    0.04801    0.01595
 23 C     0.02811   -0.02254   -0.01167

