
  ___ ___ ___ _ _ _  
 |   |   |_  | | | | 
 | | | | | . | | | | 
 |__ |  _|___|_____|  1.3.0b1
 |___|_|             

User:   esb@s65n11.grendel.cscaa.dk
Date:   Thu Nov  9 11:42:36 2017
Arch:   x86_64
Pid:    77539
Python: 2.7.13
gpaw:   /home/esb/DFT/gpaw_git/gpaw
_gpaw:  /home/esb/DFT/gpaw_git/build/bin.linux-x86_64-2.7/gpaw-python
ase:    /home/esb/DFT/ase_git/ase (version 3.15.0b1)
numpy:  /comm/swstack/core/python/2.7.13/lib/python2.7/site-packages/numpy (version 1.13.3)
scipy:  /comm/swstack/core/python/2.7.13/lib/python2.7/site-packages/scipy (version 0.19.1)
units:  Angstrom and eV
cores:  16
Extra parameters: {'blacs': True}

Input parameters:
  basis: dzp
  gpts: [80 80 48]
  kpts: [1 1 1]
  maxiter: 99
  mixer: {backend: pulay,
          beta: 0.05,
          method: separate,
          nmaxold: 5,
          weight: 75}
  mode: lcao
  nbands: -50
  occupations: {name: fermi-dirac,
                width: 0.1}
  poissonsolver: {eps: 1e-07,
                  name: fd,
                  nn: 3,
                  relax: GS}
  xc: PBE

System changes: positions, numbers, cell, pbc, initial_charges, initial_magmoms 

Initialize ...

C-setup:
  name: Carbon
  id: 4aa54d4b901d75f77cc0ea3eec22967b
  Z: 6
  valence: 4
  core: 2
  charge: 0.0
  file: /home/esb/DFT/gpaw-setups-0.8.7929/C.PBE.gz
  cutoffs: 0.64(comp), 1.14(filt), 1.14(core), lmax=2
  valence states:
                energy  radius
    2s(2.00)   -13.751   0.635
    2p(2.00)    -5.284   0.635
    *s          13.461   0.635
    *p          21.927   0.635
    *d           0.000   0.635

  LCAO basis set for C:
    Name: dzp
    File: /home/esb/DFT/gpaw-setups-0.8.7929/C.dzp.basis.gz
    Number of radial functions: 5
    Number of spherical harmonics: 13
      l=0, rc=5.5469 Bohr: 2s-sz confined orbital
      l=1, rc=6.6719 Bohr: 2p-sz confined orbital
      l=0, rc=3.0312 Bohr: 2s-dz split-valence wave
      l=1, rc=3.7500 Bohr: 2p-dz split-valence wave
      l=2, rc=6.6719 Bohr: d-type Gaussian polarization

Reference energy: -24663.074771

Spin-paired calculation

Occupation numbers:
  Fermi-Dirac: width=0.1000 eV

Convergence criteria:
  Maximum total energy change: 0.0005 eV / electron
  Maximum integral of absolute density change: 0.0001 electrons
  Maximum integral of absolute eigenstate change: 4e-08 eV^2
  Maximum number of iterations: 99

Symmetries present (total): 1

  ( 1  0  0)
  ( 0  1  0)
  ( 0  0  1)

1 k-point (Gamma)
1 k-point in the irreducible part of the Brillouin zone
       k-points in crystal coordinates                weights
   0:     0.00000000    0.00000000    0.00000000          1/1

Wave functions: LCAO
  Diagonalizer: Serial LAPACK
  Atomic Correction: dense with blas
  Datatype: float
  Eigensolver: None 

LCAO using direct dense diagonalizer 

Densities:
  Coarse grid: 80*80*48 grid
  Fine grid: 160*160*96 grid
  Total Charge: 0.000000 

Density mixing:
  Method: separate
  Backend: pulay
  Linear mixing parameter: 0.05
  Mixing with 5 old densities
  Damping of long wave oscillations: 75 

Hamiltonian:
  XC and Coulomb potentials evaluated on a 160*160*96 grid
  Using the PBE Exchange-Correlation functional
  Interpolation: tri-quintic (5. degree polynomial)
  Poisson solver: Gauss-Seidel solver with 6 multi-grid levels
    Coarsest grid: 5 x 5 x 3 points
    Stencil: 6*3+1=19 point O(h^6) finite-difference Laplacian
    Max iterations: 1000
    Tolerance: 1.000000e-07 

Memory estimate:
  Process memory now: 79.55 MiB
  Calculator: 15.59 MiB
    Density: 6.13 MiB
      Arrays: 3.81 MiB
      Localized functions: 0.86 MiB
      Mixer: 1.46 MiB
    Hamiltonian: 5.40 MiB
      Arrays: 2.49 MiB
      XC: 0.00 MiB
      Poisson: 2.85 MiB
      vbar: 0.07 MiB
    Wavefunctions: 4.05 MiB
      C [qnM]: 0.23 MiB
      S, T [2 x qmm]: 1.49 MiB
      P [aqMi]: 0.01 MiB
      TCI: 0.00 MiB
      BasisFunctions: 2.33 MiB
      Eigensolver: 0.00 MiB

Total number of cores used: 16
Domain decomposition: 2 x 4 x 2

Number of atoms: 24
Number of atomic orbitals: 312
Number of bands in calculation: 98
Bands to converge: occupied states only
Number of valence electrons: 96

... initialized

Initializing position-dependent things.

Density initialized from atomic densities
           .--------------------------------------.  
          /|                                      |  
         / |                                      |  
        /  |                                      |  
       /   |                                      |  
      /    |                                      |  
     /     |                                      |  
    /      |                                      |  
   /       |                     C                |  
  /        |                  C   C               |  
 *         |     C  C  C  CC      C               |  
 |         |         C  C        C                |  
 |         C---C--C-C---C------C------------------.  
 |        /   C C   C       C                    /   
 |       /                C                     /    
 |      /                                      /     
 |     /                                      /      
 |    /                                      /       
 |   /                                      /        
 |  /                                      /         
 | /                                      /          
 |/                                      /           
 *--------------------------------------*            

Positions:
   0 C      5.366899    3.612429    5.612102
   1 C      2.999266    5.017311    5.617874
   2 C      7.526826    7.556452    5.157457
   3 C      8.480361    8.665376    5.140070
   4 C      6.516816   10.081291    5.025128
   5 C      7.752627    9.882404    5.079183
   6 C      5.471449    9.122569    5.059769
   7 C      6.061487    7.801270    5.129565
   8 C      4.103935    9.298506    5.033012
   9 C      5.321386    6.524340    5.222207
  10 C      8.110553    4.759701    5.570399
  11 C      7.724994    6.126697    5.218898
  12 C      6.562318    4.246796    5.449792
  13 C      6.407689    5.615017    5.215144
  14 C      4.195841    4.268268    5.579075
  15 C      4.122150    5.824595    5.398295
  16 C     10.924983    9.583195    5.566326
  17 C     11.488699    8.418328    5.478877
  18 C     10.721127    6.021599    5.125076
  19 C     11.347805    7.106017    5.310168
  20 C     10.245334   10.834145    5.647999
  21 C      9.365402    3.846510    4.928996
  22 C      9.542181    5.276789    5.013189
  23 C      9.375215    9.788065    5.457523

Unit cell:
           periodic     x           y           z      points  spacing
  1. axis:    yes   16.000000    0.000000    0.000000    80     0.2000
  2. axis:    yes    0.000000   16.000000    0.000000    80     0.2000
  3. axis:    yes    0.000000    0.000000   10.000000    48     0.2083

Effective grid spacing dv^(1/3) = 0.2027

                     log10-error:    total        iterations:
           time      wfs    density  energy       fermi  poisson
iter:   1  11:42:38          +inf  -175.026781    2      6      
iter:   2  11:42:38         -0.91  -174.135066    4      3      
iter:   3  11:42:39         -0.94  -172.061228    4      4      
iter:   4  11:42:40         -1.13  -171.584494    3      3      
iter:   5  11:42:40         -1.20  -171.276837    33     3      
iter:   6  11:42:41         -1.45  -171.221092    3      3      
iter:   7  11:42:42         -1.62  -171.147202    4      3      
iter:   8  11:42:42         -1.83  -171.133096    3      2      
iter:   9  11:42:43         -1.90  -171.113711    3      3      
iter:  10  11:42:43         -2.07  -171.110601    3      2      
iter:  11  11:42:44         -2.22  -171.102618    3      2      
iter:  12  11:42:44         -2.41  -171.092404    3      2      
iter:  13  11:42:45         -2.55  -171.090436    3      2      
iter:  14  11:42:46         -2.93  -171.093417    2      1      
iter:  15  11:42:46         -3.01  -171.088275    3      1      
iter:  16  11:42:47         -3.19  -171.085927    3      1      
iter:  17  11:42:47         -3.30  -171.095874    2      1      
iter:  18  11:42:48         -3.55  -171.092749    2      1      
iter:  19  11:42:48         -3.72  -171.093249    2      1      
iter:  20  11:42:49         -3.86  -171.092000    2      1      
iter:  21  11:42:49         -3.92  -171.089597    2      1      
iter:  22  11:42:50         -4.12  -171.090664    2      1      

Converged after 22 iterations.

Dipole moment: (0.067858, -0.129234, 0.016493) |e|*Ang

Energy contributions relative to reference atoms: (reference = -24663.074771)

Kinetic:       +115.349969
Potential:     -115.378021
External:        +0.000000
XC:            -173.889189
Entropy (-ST):   -0.287062
Local:           +2.970109
--------------------------
Free energy:   -171.234195
Extrapolated:  -171.090664

Fermi level: -4.31297

 Band  Eigenvalues  Occupancy
    0    -24.16089    2.00000
    1    -23.39126    2.00000
    2    -23.12012    2.00000
    3    -22.30528    2.00000
    4    -21.40817    2.00000
    5    -20.86912    2.00000
    6    -20.26721    2.00000
    7    -19.89625    2.00000
    8    -19.25025    2.00000
    9    -18.72633    2.00000
   10    -17.94747    2.00000
   11    -17.75839    2.00000
   12    -16.28894    2.00000
   13    -16.18618    2.00000
   14    -15.74623    2.00000
   15    -15.11789    2.00000
   16    -14.26650    2.00000
   17    -13.97409    2.00000
   18    -13.70915    2.00000
   19    -12.82706    2.00000
   20    -12.29401    2.00000
   21    -11.89925    2.00000
   22    -11.54011    2.00000
   23    -11.22745    2.00000
   24    -11.14694    2.00000
   25    -10.71616    2.00000
   26    -10.44785    2.00000
   27    -10.24242    2.00000
   28    -10.13450    2.00000
   29     -9.79734    2.00000
   30     -9.68021    2.00000
   31     -9.49196    2.00000
   32     -8.76838    2.00000
   33     -8.62091    2.00000
   34     -8.26650    2.00000
   35     -8.03629    2.00000
   36     -7.83756    2.00000
   37     -7.38352    2.00000
   38     -7.02002    2.00000
   39     -6.84481    2.00000
   40     -6.58619    2.00000
   41     -6.51023    2.00000
   42     -6.20492    2.00000
   43     -6.00128    2.00000
   44     -5.71265    2.00000
   45     -5.20005    1.99972
   46     -4.72372    1.96763
   47     -4.42243    1.49848
   48     -4.16233    0.36293
   49     -4.06854    0.15971
   50     -3.79639    0.01135
   51     -3.35931    0.00014
   52     -3.18499    0.00003
   53     -2.82199    0.00000
   54     -2.41183    0.00000
   55     -1.81891    0.00000
   56     -1.55184    0.00000
   57     -0.88209    0.00000
   58     -0.55704    0.00000
   59     -0.15667    0.00000
   60      0.44216    0.00000
   61      0.58926    0.00000
   62      0.93741    0.00000
   63      1.32568    0.00000
   64      1.39388    0.00000
   65      1.77922    0.00000
   66      2.65481    0.00000
   67      2.95444    0.00000
   68      3.01143    0.00000
   69      3.52743    0.00000
   70      3.68797    0.00000
   71      3.85046    0.00000
   72      4.27633    0.00000
   73      5.26624    0.00000
   74      5.45203    0.00000
   75      5.78943    0.00000
   76      6.42583    0.00000
   77      6.65461    0.00000
   78      6.69332    0.00000
   79      6.93609    0.00000
   80      7.69648    0.00000
   81      7.83713    0.00000
   82      8.25142    0.00000
   83      8.46472    0.00000
   84      8.62460    0.00000
   85      8.85055    0.00000
   86      9.01171    0.00000
   87      9.12379    0.00000
   88      9.16686    0.00000
   89      9.29052    0.00000
   90      9.42598    0.00000
   91      9.52321    0.00000
   92      9.64125    0.00000
   93      9.66423    0.00000
   94      9.85980    0.00000
   95      9.88211    0.00000
   96      9.92852    0.00000
   97     10.01513    0.00000


Forces in eV/Ang:
  0 C    -0.61370   -0.28037    0.28449
  1 C     0.48591    0.29430   -0.23075
  2 C     1.11044   -0.57179    0.54209
  3 C     0.04706    1.19613    0.34285
  4 C    -1.41402    1.31888   -0.18748
  5 C     0.36599    0.77794   -0.08977
  6 C    -1.07312    0.62114   -0.20274
  7 C    -0.28079   -1.15508    0.27510
  8 C     0.02409   -0.20722   -0.01468
  9 C     0.39241    0.79876   -0.27302
 10 C     1.50203   -4.59135   -1.40873
 11 C    -2.67349    2.50361    0.42393
 12 C     0.59619    0.45462    0.77184
 13 C     0.27999    1.04330   -0.69487
 14 C     0.39025   -0.55201    0.05967
 15 C    -0.50069    0.16533    0.15036
 16 C     2.14718    0.64555    0.34682
 17 C     1.11611   -0.72740   -0.10549
 18 C    -2.91716   -0.87242   -0.18400
 19 C    -0.41819    2.36075    0.32867
 20 C     1.61093   -0.05254    0.28980
 21 C    -2.37449    3.75140    1.49695
 22 C     5.95225   -3.93534   -0.94088
 23 C    -3.83634   -3.05380   -0.89557

System changes: positions 

Initializing position-dependent things.

Density initialized from wave functions
           .--------------------------------------.  
          /|                                      |  
         / |                                      |  
        /  |                                      |  
       /   |                                      |  
      /    |                                      |  
     /     |                                      |  
    /      |                                      |  
   /       |                     C                |  
  /        |                  C   C               |  
 *         |     C  C  C  CC      C               |  
 |         |         C  C        C                |  
 |         C---C--C-C---C------C------------------.  
 |        /   C C   C       C                    /   
 |       /                C                     /    
 |      /                                      /     
 |     /                                      /      
 |    /                                      /       
 |   /                                      /        
 |  /                                      /         
 | /                                      /          
 |/                                      /           
 *--------------------------------------*            

Positions:
   0 C      5.363488    3.610871    5.613683
   1 C      3.001966    5.018947    5.616591
   2 C      7.532997    7.553274    5.160470
   3 C      8.480622    8.672024    5.141976
   4 C      6.508958   10.088621    5.024086
   5 C      7.754661    9.886727    5.078684
   6 C      5.465485    9.126021    5.058642
   7 C      6.059927    7.794851    5.131094
   8 C      4.104069    9.297354    5.032930
   9 C      5.323567    6.528779    5.220689
  10 C      8.118901    4.734184    5.562569
  11 C      7.710136    6.140611    5.221254
  12 C      6.565632    4.249323    5.454082
  13 C      6.409245    5.620815    5.211282
  14 C      4.198010    4.265200    5.579407
  15 C      4.119367    5.825514    5.399130
  16 C     10.936917    9.586782    5.568253
  17 C     11.494901    8.414286    5.478291
  18 C     10.704914    6.016750    5.124053
  19 C     11.345481    7.119138    5.311995
  20 C     10.254287   10.833853    5.649610
  21 C      9.352206    3.867359    4.937316
  22 C      9.575261    5.254918    5.007959
  23 C      9.353894    9.771093    5.452546

Unit cell:
           periodic     x           y           z      points  spacing
  1. axis:    yes   16.000000    0.000000    0.000000    80     0.2000
  2. axis:    yes    0.000000   16.000000    0.000000    80     0.2000
  3. axis:    yes    0.000000    0.000000   10.000000    48     0.2083

Effective grid spacing dv^(1/3) = 0.2027

                     log10-error:    total        iterations:
           time      wfs    density  energy       fermi  poisson
iter:   1  11:42:52          +inf  -172.095200    3      5      
iter:   2  11:42:53         -1.91  -172.026425    3      2      
iter:   3  11:42:53         -2.11  -171.997974    3      2      
iter:   4  11:42:54         -2.23  -171.980981    2      2      
iter:   5  11:42:54         -2.37  -171.973460    2      2      
iter:   6  11:42:55         -2.56  -171.975378    3      2      
iter:   7  11:42:56         -2.71  -171.975282    2      2      
iter:   8  11:42:56         -3.00  -171.974542    2      1      
iter:   9  11:42:57         -3.10  -171.973894    2      1      
iter:  10  11:42:57         -3.31  -171.974222    2      1      
iter:  11  11:42:58         -3.38  -171.974291    2      1      
iter:  12  11:42:58         -3.62  -171.974193    2      1      
iter:  13  11:42:59         -3.74  -171.974189    2      1      
iter:  14  11:42:59         -3.82  -171.974305    2      1      
iter:  15  11:43:00         -3.91  -171.974195    2      1      
iter:  16  11:43:00         -4.01  -171.974148    2      1      

Converged after 16 iterations.

Dipole moment: (0.076278, -0.103802, 0.021824) |e|*Ang

Energy contributions relative to reference atoms: (reference = -24663.074771)

Kinetic:       +114.938634
Potential:     -115.581332
External:        +0.000000
XC:            -174.129434
Entropy (-ST):   -0.270134
Local:           +2.933051
--------------------------
Free energy:   -172.109215
Extrapolated:  -171.974148

Fermi level: -4.35569

 Band  Eigenvalues  Occupancy
    0    -24.04718    2.00000
    1    -23.38684    2.00000
    2    -23.05377    2.00000
    3    -22.19410    2.00000
    4    -21.44252    2.00000
    5    -20.90849    2.00000
    6    -20.26621    2.00000
    7    -19.87279    2.00000
    8    -19.27155    2.00000
    9    -18.71765    2.00000
   10    -17.96430    2.00000
   11    -17.78876    2.00000
   12    -16.24886    2.00000
   13    -16.21739    2.00000
   14    -15.83130    2.00000
   15    -15.05146    2.00000
   16    -14.21399    2.00000
   17    -13.99843    2.00000
   18    -13.75565    2.00000
   19    -12.68652    2.00000
   20    -12.29139    2.00000
   21    -11.87562    2.00000
   22    -11.54860    2.00000
   23    -11.20386    2.00000
   24    -11.10432    2.00000
   25    -10.71838    2.00000
   26    -10.45306    2.00000
   27    -10.25493    2.00000
   28    -10.12637    2.00000
   29     -9.76755    2.00000
   30     -9.67865    2.00000
   31     -9.47087    2.00000
   32     -8.79038    2.00000
   33     -8.64444    2.00000
   34     -8.30165    2.00000
   35     -8.05230    2.00000
   36     -7.84147    2.00000
   37     -7.37671    2.00000
   38     -6.99537    2.00000
   39     -6.84052    2.00000
   40     -6.63529    2.00000
   41     -6.48009    2.00000
   42     -6.23374    2.00000
   43     -5.96272    2.00000
   44     -5.74258    2.00000
   45     -5.24178    1.99972
   46     -4.74673    1.96072
   47     -4.47907    1.54895
   48     -4.20745    0.37012
   49     -4.07566    0.11461
   50     -3.77171    0.00580
   51     -3.33317    0.00007
   52     -3.16204    0.00001
   53     -2.79190    0.00000
   54     -2.38091    0.00000
   55     -1.72965    0.00000
   56     -1.39019    0.00000
   57     -0.90343    0.00000
   58     -0.54779    0.00000
   59     -0.03155    0.00000
   60      0.49867    0.00000
   61      0.71053    0.00000
   62      0.97253    0.00000
   63      1.43270    0.00000
   64      1.46096    0.00000
   65      1.81494    0.00000
   66      2.72365    0.00000
   67      2.97051    0.00000
   68      3.02468    0.00000
   69      3.51406    0.00000
   70      3.69558    0.00000
   71      3.99938    0.00000
   72      4.43153    0.00000
   73      5.29315    0.00000
   74      5.42720    0.00000
   75      5.76296    0.00000
   76      6.23922    0.00000
   77      6.62705    0.00000
   78      6.78125    0.00000
   79      6.89539    0.00000
   80      7.64146    0.00000
   81      7.81883    0.00000
   82      8.20384    0.00000
   83      8.53227    0.00000
   84      8.62061    0.00000
   85      8.87027    0.00000
   86      9.02107    0.00000
   87      9.15710    0.00000
   88      9.16084    0.00000
   89      9.34023    0.00000
   90      9.45739    0.00000
   91      9.55441    0.00000
   92      9.62815    0.00000
   93      9.70044    0.00000
   94      9.90201    0.00000
   95      9.93396    0.00000
   96      9.95357    0.00000
   97     10.06293    0.00000


Forces in eV/Ang:
  0 C    -0.43695   -0.08563    0.23248
  1 C     0.49532    0.31156   -0.21616
  2 C     0.82527   -0.14518    0.44989
  3 C    -0.24730    0.32184    0.27793
  4 C    -0.72885    1.10892   -0.17809
  5 C    -0.14583    1.18902   -0.02568
  6 C    -0.75035    0.41946   -0.19159
  7 C    -0.30557   -0.61141    0.25605
  8 C    -0.12837   -0.19964   -0.02413
  9 C     0.04739    0.61361   -0.22865
 10 C     0.96906   -3.91525   -1.66735
 11 C    -1.86721    1.10031    0.53489
 12 C     0.59467    0.54111    0.68971
 13 C     0.16642    0.58292   -0.47753
 14 C     0.27302   -0.54832    0.07475
 15 C    -0.35449    0.20405    0.09775
 16 C     1.66587    1.07640    0.34820
 17 C     1.16637   -0.25873   -0.04715
 18 C    -1.43435    0.56134   -0.03824
 19 C    -1.20403    0.70328    0.06350
 20 C     1.20367   -1.08796    0.14849
 21 C    -2.70632    2.75191    1.50591
 22 C     5.57329   -2.95201   -0.85131
 23 C    -2.83421   -1.71125   -0.69610

System changes: positions 

Initializing position-dependent things.

Density initialized from wave functions
           .--------------------------------------.  
          /|                                      |  
         / |                                      |  
        /  |                                      |  
       /   |                                      |  
      /    |                                      |  
     /     |                                      |  
    /      |                                      |  
   /       |                     C                |  
  /        |                  C   C               |  
 *         |     C  C  C  CC      C               |  
 |         |         C  C        C                |  
 |         C---C--C-C---C------C------------------.  
 |        /   C C   C       C                    /   
 |       /                C                     /    
 |      /                                      /     
 |     /                                      /      
 |    /                                      /       
 |   /                                      /        
 |  /                                      /         
 | /                                      /          
 |/                                      /           
 *--------------------------------------*            

Positions:
   0 C      5.360948    3.610642    5.615105
   1 C      3.005199    5.020999    5.615212
   2 C      7.537877    7.553049    5.163236
   3 C      8.478521    8.672644    5.143671
   4 C      6.505376   10.095469    5.022945
   5 C      7.752853    9.895140    5.078625
   6 C      5.461155    9.128406    5.057417
   7 C      6.057901    7.791794    5.132725
   8 C      4.102979    9.296070    5.032758
   9 C      5.323294    6.532453    5.219279
  10 C      8.124298    4.709895    5.551307
  11 C      7.699366    6.145398    5.224914
  12 C      6.569491    4.252982    5.458423
  13 C      6.410134    5.623827    5.208546
  14 C      4.199586    4.261646    5.579918
  15 C      4.117311    5.826904    5.399677
  16 C     10.946926    9.594497    5.570517
  17 C     11.502560    8.413393    5.478083
  18 C     10.698092    6.022806    5.124050
  19 C     11.336341    7.120918    5.311961
  20 C     10.261419   10.825048    5.650337
  21 C      9.334073    3.883550    4.947110
  22 C      9.610817    5.237401    5.002582
  23 C      9.337174    9.762237    5.448361

Unit cell:
           periodic     x           y           z      points  spacing
  1. axis:    yes   16.000000    0.000000    0.000000    80     0.2000
  2. axis:    yes    0.000000   16.000000    0.000000    80     0.2000
  3. axis:    yes    0.000000    0.000000   10.000000    48     0.2083

Effective grid spacing dv^(1/3) = 0.2027

                     log10-error:    total        iterations:
           time      wfs    density  energy       fermi  poisson
iter:   1  11:43:03          +inf  -172.740425    3      5      
iter:   2  11:43:03         -1.97  -172.688709    3      2      
iter:   3  11:43:04         -2.18  -172.667568    3      2      
iter:   4  11:43:04         -2.30  -172.653768    3      2      
iter:   5  11:43:05         -2.48  -172.646854    2      2      
iter:   6  11:43:06         -2.62  -172.649221    3      2      
iter:   7  11:43:06         -2.84  -172.649836    2      2      
iter:   8  11:43:07         -3.04  -172.649763    2      2      
iter:   9  11:43:07         -3.20  -172.649489    2      1      
iter:  10  11:43:08         -3.34  -172.650053    2      1      
iter:  11  11:43:08         -3.46  -172.648991    2      1      
iter:  12  11:43:09         -3.68  -172.649185    2      1      
iter:  13  11:43:09         -3.83  -172.649626    2      1      
iter:  14  11:43:10         -3.92  -172.649857    2      1      
iter:  15  11:43:11         -4.09  -172.649515    2      1      

Converged after 15 iterations.

Dipole moment: (0.071336, -0.081908, 0.025419) |e|*Ang

Energy contributions relative to reference atoms: (reference = -24663.074771)

Kinetic:       +116.643644
Potential:     -117.383425
External:        +0.000000
XC:            -174.724893
Entropy (-ST):   -0.255527
Local:           +2.942923
--------------------------
Free energy:   -172.777278
Extrapolated:  -172.649515

Fermi level: -4.39278

 Band  Eigenvalues  Occupancy
    0    -23.97708    2.00000
    1    -23.40389    2.00000
    2    -23.00267    2.00000
    3    -22.13478    2.00000
    4    -21.45620    2.00000
    5    -20.92569    2.00000
    6    -20.25616    2.00000
    7    -19.88129    2.00000
    8    -19.26104    2.00000
    9    -18.70871    2.00000
   10    -18.00789    2.00000
   11    -17.82876    2.00000
   12    -16.25534    2.00000
   13    -16.23210    2.00000
   14    -15.87615    2.00000
   15    -14.96822    2.00000
   16    -14.17546    2.00000
   17    -14.03362    2.00000
   18    -13.78560    2.00000
   19    -12.58978    2.00000
   20    -12.26012    2.00000
   21    -11.85758    2.00000
   22    -11.56523    2.00000
   23    -11.19482    2.00000
   24    -11.06220    2.00000
   25    -10.75402    2.00000
   26    -10.47176    2.00000
   27    -10.26686    2.00000
   28    -10.14598    2.00000
   29     -9.74809    2.00000
   30     -9.67349    2.00000
   31     -9.46718    2.00000
   32     -8.81117    2.00000
   33     -8.65960    2.00000
   34     -8.31438    2.00000
   35     -8.09260    2.00000
   36     -7.85374    2.00000
   37     -7.42327    2.00000
   38     -7.03462    2.00000
   39     -6.84909    2.00000
   40     -6.61597    2.00000
   41     -6.46202    2.00000
   42     -6.25321    2.00000
   43     -5.91020    2.00000
   44     -5.74968    2.00000
   45     -5.29683    1.99976
   46     -4.77678    1.95792
   47     -4.52613    1.58283
   48     -4.24718    0.37814
   49     -4.07223    0.07792
   50     -3.75485    0.00339
   51     -3.31355    0.00004
   52     -3.13767    0.00001
   53     -2.77563    0.00000
   54     -2.34425    0.00000
   55     -1.61102    0.00000
   56     -1.25106    0.00000
   57     -0.90448    0.00000
   58     -0.54298    0.00000
   59      0.14889    0.00000
   60      0.57694    0.00000
   61      0.81887    0.00000
   62      1.00651    0.00000
   63      1.47940    0.00000
   64      1.53307    0.00000
   65      1.83005    0.00000
   66      2.78426    0.00000
   67      2.99413    0.00000
   68      3.04006    0.00000
   69      3.54104    0.00000
   70      3.69794    0.00000
   71      4.12080    0.00000
   72      4.70457    0.00000
   73      5.28215    0.00000
   74      5.41515    0.00000
   75      5.72041    0.00000
   76      6.15621    0.00000
   77      6.64946    0.00000
   78      6.84833    0.00000
   79      6.87876    0.00000
   80      7.60663    0.00000
   81      7.80772    0.00000
   82      8.16357    0.00000
   83      8.57891    0.00000
   84      8.61668    0.00000
   85      8.85655    0.00000
   86      9.02760    0.00000
   87      9.16041    0.00000
   88      9.17333    0.00000
   89      9.35413    0.00000
   90      9.46312    0.00000
   91      9.56017    0.00000
   92      9.61910    0.00000
   93      9.72016    0.00000
   94      9.91027    0.00000
   95      9.94103    0.00000
   96      9.97351    0.00000
   97     10.12616    0.00000


Forces in eV/Ang:
  0 C    -0.29252    0.04571    0.19269
  1 C     0.50750    0.31101   -0.20855
  2 C     0.54630   -0.07890    0.39370
  3 C    -0.37690    0.03660    0.25704
  4 C    -0.69414    0.90438   -0.20618
  5 C    -0.00099    1.30128    0.03978
  6 C    -0.55364    0.37189   -0.16564
  7 C    -0.28370   -0.31097    0.24677
  8 C    -0.19253   -0.19639   -0.03285
  9 C    -0.08078    0.48872   -0.20734
 10 C     0.49707   -3.45694   -1.84219
 11 C    -1.24069    0.43344    0.55237
 12 C     0.55521    0.43741    0.65570
 13 C    -0.00824    0.39317   -0.31223
 14 C     0.18363   -0.53241    0.09531
 15 C    -0.28941    0.22755    0.06092
 16 C     1.66865    0.67452    0.30242
 17 C     1.03639   -0.09620   -0.02546
 18 C    -1.07756    0.34567   -0.11454
 19 C    -0.95542    1.26798    0.13161
 20 C     0.89420   -1.31818    0.07881
 21 C    -2.82108    1.99392    1.51101
 22 C     5.29449   -2.26921   -0.80430
 23 C    -2.48729   -1.05194   -0.60881

System changes: positions 

Initializing position-dependent things.

Density initialized from wave functions
           .--------------------------------------.  
          /|                                      |  
         / |                                      |  
        /  |                                      |  
       /   |                                      |  
      /    |                                      |  
     /     |                                      |  
    /      |                                      |  
   /       |                     C                |  
  /        |                  C   C               |  
 *         |     C  C  C  CC      C               |  
 |         |         C  C        C                |  
 |         C---C--C-C---C------C------------------.  
 |        /   C C   C       C                    /   
 |       /                C                     /    
 |      /                                      /     
 |     /                                      /      
 |    /                                      /       
 |   /                                      /        
 |  /                                      /         
 | /                                      /          
 |/                                      /           
 *--------------------------------------*            

Positions:
   0 C      5.359398    3.611517    5.616340
   1 C      3.008915    5.023263    5.613737
   2 C      7.540785    7.553035    5.165845
   3 C      8.475169    8.671338    5.145416
   4 C      6.501041   10.101246    5.021380
   5 C      7.752822    9.905233    5.079156
   6 C      5.457991    9.130788    5.056302
   7 C      6.055889    7.790874    5.134468
   8 C      4.101270    9.294665    5.032487
   9 C      5.322045    6.535472    5.217878
  10 C      8.126082    4.686774    5.537250
  11 C      7.692879    6.145413    5.229057
  12 C      6.573394    4.255924    5.463000
  13 C      6.409476    5.625732    5.206948
  14 C      4.200557    4.257841    5.580679
  15 C      4.115529    5.828651    5.399966
  16 C     10.958596    9.598594    5.572575
  17 C     11.509731    8.413567    5.478011
  18 C     10.692593    6.025920    5.123127
  19 C     11.329466    7.130292    5.312882
  20 C     10.266651   10.813957    5.650585
  21 C      9.313042    3.894944    4.958068
  22 C      9.648008    5.223784    4.996973
  23 C      9.321030    9.757671    5.444377

Unit cell:
           periodic     x           y           z      points  spacing
  1. axis:    yes   16.000000    0.000000    0.000000    80     0.2000
  2. axis:    yes    0.000000   16.000000    0.000000    80     0.2000
  3. axis:    yes    0.000000    0.000000   10.000000    48     0.2083

Effective grid spacing dv^(1/3) = 0.2027

                     log10-error:    total        iterations:
           time      wfs    density  energy       fermi  poisson
iter:   1  11:43:13          +inf  -173.299367    3      5      
iter:   2  11:43:13         -2.05  -173.271258    3      2      
iter:   3  11:43:14         -2.25  -173.259876    2      2      
iter:   4  11:43:14         -2.36  -173.249830    2      2      
iter:   5  11:43:15         -2.52  -173.242717    2      2      
iter:   6  11:43:16         -2.66  -173.246177    2      2      
iter:   7  11:43:16         -2.90  -173.247090    2      2      
iter:   8  11:43:17         -3.10  -173.245605    2      1      
iter:   9  11:43:17         -3.28  -173.246808    2      1      
iter:  10  11:43:18         -3.47  -173.247402    2      1      
iter:  11  11:43:18         -3.53  -173.247074    2      1      
iter:  12  11:43:19         -3.63  -173.246902    2      1      
iter:  13  11:43:19         -3.75  -173.246463    2      1      
iter:  14  11:43:20         -3.92  -173.246617    1      1      
iter:  15  11:43:21         -4.18  -173.246725    2      1      

Converged after 15 iterations.

Dipole moment: (0.071583, -0.049427, 0.029099) |e|*Ang

Energy contributions relative to reference atoms: (reference = -24663.074771)

Kinetic:       +118.606691
Potential:     -119.368906
External:        +0.000000
XC:            -175.311515
Entropy (-ST):   -0.248646
Local:           +2.951329
--------------------------
Free energy:   -173.371048
Extrapolated:  -173.246725

Fermi level: -4.42774

 Band  Eigenvalues  Occupancy
    0    -23.91736    2.00000
    1    -23.42071    2.00000
    2    -22.94802    2.00000
    3    -22.07477    2.00000
    4    -21.43154    2.00000
    5    -20.93063    2.00000
    6    -20.24456    2.00000
    7    -19.89039    2.00000
    8    -19.24269    2.00000
    9    -18.69796    2.00000
   10    -18.05879    2.00000
   11    -17.85177    2.00000
   12    -16.29348    2.00000
   13    -16.23119    2.00000
   14    -15.93115    2.00000
   15    -14.88615    2.00000
   16    -14.14120    2.00000
   17    -14.07308    2.00000
   18    -13.80525    2.00000
   19    -12.54662    2.00000
   20    -12.20463    2.00000
   21    -11.81628    2.00000
   22    -11.57164    2.00000
   23    -11.18098    2.00000
   24    -11.02636    2.00000
   25    -10.81057    2.00000
   26    -10.49249    2.00000
   27    -10.26188    2.00000
   28    -10.17050    2.00000
   29     -9.72081    2.00000
   30     -9.65212    2.00000
   31     -9.46978    2.00000
   32     -8.82098    2.00000
   33     -8.65813    2.00000
   34     -8.32813    2.00000
   35     -8.11343    2.00000
   36     -7.88058    2.00000
   37     -7.47939    2.00000
   38     -7.07639    2.00000
   39     -6.86340    2.00000
   40     -6.56648    2.00000
   41     -6.43946    2.00000
   42     -6.26994    2.00000
   43     -5.85055    2.00000
   44     -5.75313    2.00000
   45     -5.35445    1.99981
   46     -4.79153    1.94873
   47     -4.56734    1.60310
   48     -4.28745    0.39472
   49     -4.06448    0.05153
   50     -3.74084    0.00208
   51     -3.28497    0.00002
   52     -3.12152    0.00000
   53     -2.76814    0.00000
   54     -2.29886    0.00000
   55     -1.49709    0.00000
   56     -1.12547    0.00000
   57     -0.88809    0.00000
   58     -0.55038    0.00000
   59      0.33346    0.00000
   60      0.65860    0.00000
   61      0.91038    0.00000
   62      1.04539    0.00000
   63      1.48986    0.00000
   64      1.61151    0.00000
   65      1.84909    0.00000
   66      2.84136    0.00000
   67      3.00642    0.00000
   68      3.07543    0.00000
   69      3.56106    0.00000
   70      3.69985    0.00000
   71      4.20383    0.00000
   72      4.94543    0.00000
   73      5.22622    0.00000
   74      5.48877    0.00000
   75      5.76171    0.00000
   76      6.10672    0.00000
   77      6.69693    0.00000
   78      6.87367    0.00000
   79      6.88328    0.00000
   80      7.56279    0.00000
   81      7.78457    0.00000
   82      8.13168    0.00000
   83      8.60088    0.00000
   84      8.63858    0.00000
   85      8.82449    0.00000
   86      9.03212    0.00000
   87      9.15665    0.00000
   88      9.18610    0.00000
   89      9.37305    0.00000
   90      9.48691    0.00000
   91      9.56810    0.00000
   92      9.62508    0.00000
   93      9.74276    0.00000
   94      9.91643    0.00000
   95      9.94192    0.00000
   96      9.97234    0.00000
   97     10.14281    0.00000


Forces in eV/Ang:
  0 C    -0.22039    0.10291    0.16383
  1 C     0.47223    0.30354   -0.19667
  2 C     0.32478   -0.15865    0.33673
  3 C    -0.45856   -0.13476    0.24777
  4 C    -0.50434    0.72155   -0.20830
  5 C     0.09525    1.35594    0.11414
  6 C    -0.46572    0.34657   -0.14298
  7 C    -0.26386   -0.16908    0.24142
  8 C    -0.21714   -0.20197   -0.04120
  9 C    -0.12820    0.42284   -0.17693
 10 C     0.02573   -3.07148   -1.86056
 11 C    -0.85480    0.10501    0.54708
 12 C     0.48566    0.33811    0.63233
 13 C    -0.08438    0.28964   -0.17240
 14 C     0.12195   -0.50634    0.10996
 15 C    -0.24227    0.23074    0.02390
 16 C     1.53002    0.68945    0.29647
 17 C     1.07217    0.04321    0.00135
 18 C    -0.31696    0.73290   -0.09042
 19 C    -0.99577    1.00206    0.07437
 20 C     0.78687   -1.46696    0.04566
 21 C    -2.80586    1.59555    1.46248
 22 C     4.86162   -2.05688   -0.79028
 23 C    -2.36407   -0.54602   -0.60191

System changes: positions 

Initializing position-dependent things.

Density initialized from wave functions
           .--------------------------------------.  
          /|                                      |  
         / |                                      |  
        /  |                                      |  
       /   |                                      |  
      /    |                                      |  
     /     |                                      |  
    /      |                                      |  
   /       |                     C                |  
  /        |                  C   C               |  
 *         |     C  C  C  CC      C               |  
 |         |         C  C        C                |  
 |         C---C--C-C---C------C------------------.  
 |        /   C C   C       C                    /   
 |       /                C                     /    
 |      /                                      /     
 |     /                                      /      
 |    /                                      /       
 |   /                                      /        
 |  /                                      /         
 | /                                      /          
 |/                                      /           
 *--------------------------------------*            

Positions:
   0 C      5.358090    3.612689    5.617487
   1 C      3.012547    5.025636    5.612228
   2 C      7.542174    7.551398    5.168247
   3 C      8.471130    8.669524    5.147341
   4 C      6.497504   10.106026    5.019666
   5 C      7.754421    9.916211    5.080426
   6 C      5.454820    9.133452    5.055292
   7 C      6.053919    7.790341    5.136356
   8 C      4.099412    9.293043    5.032118
   9 C      5.320783    6.538448    5.216605
  10 C      8.123935    4.664333    5.522227
  11 C      7.688267    6.144488    5.233360
  12 C      6.576920    4.258016    5.467909
  13 C      6.408268    5.627520    5.206294
  14 C      4.201191    4.253946    5.581636
  15 C      4.113830    5.830518    5.399977
  16 C     10.970440    9.603234    5.574826
  17 C     11.518128    8.414505    5.478134
  18 C     10.692890    6.032178    5.122303
  19 C     11.322193    7.138967    5.313494
  20 C     10.272141   10.801820    5.650766
  21 C      9.290778    3.905248    4.969498
  22 C      9.684656    5.208995    4.990794
  23 C      9.302879    9.755778    5.439686

Unit cell:
           periodic     x           y           z      points  spacing
  1. axis:    yes   16.000000    0.000000    0.000000    80     0.2000
  2. axis:    yes    0.000000   16.000000    0.000000    80     0.2000
  3. axis:    yes    0.000000    0.000000   10.000000    48     0.2083

Effective grid spacing dv^(1/3) = 0.2027

                     log10-error:    total        iterations:
           time      wfs    density  energy       fermi  poisson
iter:   1  11:43:23          +inf  -173.847389    3      5      
iter:   2  11:43:23         -2.08  -173.825296    3      2      
iter:   3  11:43:24         -2.27  -173.815620    3      2      
iter:   4  11:43:24         -2.38  -173.805403    3      2      
iter:   5  11:43:25         -2.56  -173.798553    2      2      
iter:   6  11:43:26         -2.68  -173.802507    3      2      
iter:   7  11:43:26         -2.93  -173.803328    2      2      
iter:   8  11:43:27         -3.13  -173.801828    2      1      
iter:   9  11:43:27         -3.31  -173.802943    2      1      
iter:  10  11:43:28         -3.46  -173.803937    2      1      
iter:  11  11:43:28         -3.54  -173.803057    2      1      
iter:  12  11:43:29         -3.64  -173.803081    2      1      
iter:  13  11:43:29         -3.73  -173.803013    2      1      
iter:  14  11:43:30         -3.88  -173.802724    2      1      
iter:  15  11:43:31         -4.34  -173.802852    2      1      

Converged after 15 iterations.

Dipole moment: (0.066465, -0.025536, 0.030368) |e|*Ang

Energy contributions relative to reference atoms: (reference = -24663.074771)

Kinetic:       +120.760084
Potential:     -121.472100
External:        +0.000000
XC:            -175.922355
Entropy (-ST):   -0.245347
Local:           +2.954192
--------------------------
Free energy:   -173.925526
Extrapolated:  -173.802852

Fermi level: -4.46303

 Band  Eigenvalues  Occupancy
    0    -23.87863    2.00000
    1    -23.44429    2.00000
    2    -22.90148    2.00000
    3    -22.01287    2.00000
    4    -21.39431    2.00000
    5    -20.93423    2.00000
    6    -20.24071    2.00000
    7    -19.90144    2.00000
    8    -19.22779    2.00000
    9    -18.69284    2.00000
   10    -18.09909    2.00000
   11    -17.87263    2.00000
   12    -16.32792    2.00000
   13    -16.24766    2.00000
   14    -15.95758    2.00000
   15    -14.81822    2.00000
   16    -14.13579    2.00000
   17    -14.09994    2.00000
   18    -13.81967    2.00000
   19    -12.54899    2.00000
   20    -12.17605    2.00000
   21    -11.75337    2.00000
   22    -11.57045    2.00000
   23    -11.17268    2.00000
   24    -11.00983    2.00000
   25    -10.86329    2.00000
   26    -10.50982    2.00000
   27    -10.27207    2.00000
   28    -10.18917    2.00000
   29     -9.69641    2.00000
   30     -9.62622    2.00000
   31     -9.46893    2.00000
   32     -8.83106    2.00000
   33     -8.65149    2.00000
   34     -8.34395    2.00000
   35     -8.13283    2.00000
   36     -7.93533    2.00000
   37     -7.55515    2.00000
   38     -7.10613    2.00000
   39     -6.87365    2.00000
   40     -6.53060    2.00000
   41     -6.42288    2.00000
   42     -6.28258    2.00000
   43     -5.81000    2.00000
   44     -5.72783    1.99999
   45     -5.40111    1.99983
   46     -4.80726    1.93800
   47     -4.60679    1.61618
   48     -4.32786    0.41120
   49     -4.05579    0.03350
   50     -3.72756    0.00128
   51     -3.26413    0.00001
   52     -3.09917    0.00000
   53     -2.76433    0.00000
   54     -2.25827    0.00000
   55     -1.36262    0.00000
   56     -1.02507    0.00000
   57     -0.85959    0.00000
   58     -0.56202    0.00000
   59      0.52621    0.00000
   60      0.75334    0.00000
   61      0.98873    0.00000
   62      1.08326    0.00000
   63      1.48088    0.00000
   64      1.66346    0.00000
   65      1.87580    0.00000
   66      2.88977    0.00000
   67      3.01069    0.00000
   68      3.11868    0.00000
   69      3.57790    0.00000
   70      3.70234    0.00000
   71      4.27831    0.00000
   72      4.99510    0.00000
   73      5.21936    0.00000
   74      5.50585    0.00000
   75      5.94866    0.00000
   76      6.11144    0.00000
   77      6.73191    0.00000
   78      6.89187    0.00000
   79      6.93382    0.00000
   80      7.51180    0.00000
   81      7.76820    0.00000
   82      8.10906    0.00000
   83      8.59585    0.00000
   84      8.67227    0.00000
   85      8.79787    0.00000
   86      9.03345    0.00000
   87      9.15145    0.00000
   88      9.19329    0.00000
   89      9.37877    0.00000
   90      9.50972    0.00000
   91      9.57139    0.00000
   92      9.63805    0.00000
   93      9.75892    0.00000
   94      9.91539    0.00000
   95      9.93589    0.00000
   96      9.97733    0.00000
   97     10.14682    0.00000


Forces in eV/Ang:
  0 C    -0.16863    0.09518    0.14722
  1 C     0.42736    0.28629   -0.18757
  2 C     0.17613   -0.14371    0.27704
  3 C    -0.54021   -0.34771    0.23354
  4 C    -0.30873    0.56020   -0.20901
  5 C     0.12521    1.40478    0.19666
  6 C    -0.36169    0.33033   -0.12281
  7 C    -0.26414   -0.05411    0.23005
  8 C    -0.25223   -0.20638   -0.04710
  9 C    -0.17050    0.36183   -0.14706
 10 C    -0.46779   -2.60877   -1.76333
 11 C    -0.57261   -0.17046    0.51797
 12 C     0.41683    0.27706    0.56676
 13 C    -0.12328    0.18217   -0.05200
 14 C     0.07975   -0.45892    0.12221
 15 C    -0.19420    0.23526   -0.00487
 16 C     1.47510    0.55869    0.28403
 17 C     1.06972    0.20460    0.03196
 18 C    -0.04251    0.56243   -0.14002
 19 C    -0.83857    1.09120    0.07516
 20 C     0.61855   -1.54349    0.03539
 21 C    -2.53707    1.21795    1.30862
 22 C     4.59432   -1.86726   -0.73213
 23 C    -2.20369   -0.03908   -0.55303

System changes: positions 

Initializing position-dependent things.

Density initialized from wave functions
           .--------------------------------------.  
          /|                                      |  
         / |                                      |  
        /  |                                      |  
       /   |                                      |  
      /    |                                      |  
     /     |                                      |  
    /      |                                      |  
   /       |                     C                |  
  /        |                  C   C               |  
 *         |     C  C  C  CC      C               |  
 |         |         C  C        C                |  
 |         C---C--C-C---C------C------------------.  
 |        /   C C   C       C                    /   
 |       /                C                     /    
 |      /                                      /     
 |     /                                      /      
 |    /                                      /       
 |   /                                      /        
 |  /                                      /         
 | /                                      /          
 |/                                      /           
 *--------------------------------------*            

Positions:
   0 C      5.356903    3.613430    5.618626
   1 C      3.015852    5.027923    5.610716
   2 C      7.542820    7.549752    5.170277
   3 C      8.466384    8.666149    5.149260
   4 C      6.495533   10.109848    5.017912
   5 C      7.756191    9.927874    5.082480
   6 C      5.452142    9.136240    5.054387
   7 C      6.051785    7.790210    5.138230
   8 C      4.097248    9.291293    5.031693
   9 C      5.319371    6.541228    5.215524
  10 C      8.117601    4.644671    5.508075
  11 C      7.684781    6.142412    5.237463
  12 C      6.579981    4.259806    5.472393
  13 C      6.407015    5.628766    5.206446
  14 C      4.201652    4.250359    5.582718
  15 C      4.112383    5.832469    5.399789
  16 C     10.982581    9.607074    5.577126
  17 C     11.527047    8.416743    5.478526
  18 C     10.694056    6.035936    5.120891
  19 C     11.316338    7.149118    5.314208
  20 C     10.276737   10.789181    5.651058
  21 C      9.270956    3.913868    4.979703
  22 C      9.721219    5.193889    4.984882
  23 C      9.284642    9.757396    5.435130

Unit cell:
           periodic     x           y           z      points  spacing
  1. axis:    yes   16.000000    0.000000    0.000000    80     0.2000
  2. axis:    yes    0.000000   16.000000    0.000000    80     0.2000
  3. axis:    yes    0.000000    0.000000   10.000000    48     0.2083

Effective grid spacing dv^(1/3) = 0.2027

                     log10-error:    total        iterations:
           time      wfs    density  energy       fermi  poisson
iter:   1  11:43:33          +inf  -174.327510    3      5      
iter:   2  11:43:33         -2.15  -174.315309    3      2      
iter:   3  11:43:34         -2.32  -174.308876    3      2      
iter:   4  11:43:34         -2.43  -174.300395    3      2      
iter:   5  11:43:35         -2.61  -174.294916    2      2      
iter:   6  11:43:36         -2.75  -174.299023    3      2      
iter:   7  11:43:36         -2.95  -174.298920    2      2      
iter:   8  11:43:37         -3.19  -174.298231    2      1      
iter:   9  11:43:37         -3.30  -174.298853    2      1      
iter:  10  11:43:38         -3.53  -174.299626    2      1      
iter:  11  11:43:38         -3.64  -174.298418    2      1      
iter:  12  11:43:39         -3.87  -174.298812    2      1      
iter:  13  11:43:39         -3.93  -174.299850    2      1      
iter:  14  11:43:40         -4.08  -174.298581    2      1      

Converged after 14 iterations.

Dipole moment: (0.062777, 0.000817, 0.030113) |e|*Ang

Energy contributions relative to reference atoms: (reference = -24663.074771)

Kinetic:       +122.779197
Potential:     -123.442815
External:        +0.000000
XC:            -176.470880
Entropy (-ST):   -0.245133
Local:           +2.958484
--------------------------
Free energy:   -174.421147
Extrapolated:  -174.298581

Fermi level: -4.49557

 Band  Eigenvalues  Occupancy
    0    -23.85273    2.00000
    1    -23.46036    2.00000
    2    -22.85967    2.00000
    3    -21.95077    2.00000
    4    -21.33682    2.00000
    5    -20.92792    2.00000
    6    -20.23932    2.00000
    7    -19.89648    2.00000
    8    -19.21742    2.00000
    9    -18.69367    2.00000
   10    -18.12987    2.00000
   11    -17.89405    2.00000
   12    -16.36462    2.00000
   13    -16.27091    2.00000
   14    -15.97980    2.00000
   15    -14.76511    2.00000
   16    -14.16280    2.00000
   17    -14.09725    2.00000
   18    -13.82794    2.00000
   19    -12.57276    2.00000
   20    -12.17952    2.00000
   21    -11.71407    2.00000
   22    -11.52732    2.00000
   23    -11.16467    2.00000
   24    -11.02185    2.00000
   25    -10.89001    2.00000
   26    -10.52033    2.00000
   27    -10.29839    2.00000
   28    -10.18547    2.00000
   29     -9.67058    2.00000
   30     -9.59767    2.00000
   31     -9.46630    2.00000
   32     -8.83732    2.00000
   33     -8.64107    2.00000
   34     -8.35836    2.00000
   35     -8.14329    2.00000
   36     -8.01175    2.00000
   37     -7.61869    2.00000
   38     -7.11293    2.00000
   39     -6.88543    2.00000
   40     -6.51188    2.00000
   41     -6.41654    2.00000
   42     -6.28583    2.00000
   43     -5.80406    2.00000
   44     -5.68525    1.99999
   45     -5.42758    1.99982
   46     -4.81840    1.92377
   47     -4.64325    1.62817
   48     -4.36458    0.42498
   49     -4.04773    0.02245
   50     -3.71587    0.00082
   51     -3.24762    0.00001
   52     -3.08137    0.00000
   53     -2.76201    0.00000
   54     -2.22235    0.00000
   55     -1.23533    0.00000
   56     -0.95992    0.00000
   57     -0.81577    0.00000
   58     -0.56297    0.00000
   59      0.66910    0.00000
   60      0.86466    0.00000
   61      1.07214    0.00000
   62      1.12195    0.00000
   63      1.46143    0.00000
   64      1.69245    0.00000
   65      1.92750    0.00000
   66      2.93383    0.00000
   67      3.01488    0.00000
   68      3.16219    0.00000
   69      3.58845    0.00000
   70      3.71121    0.00000
   71      4.34747    0.00000
   72      4.94894    0.00000
   73      5.24906    0.00000
   74      5.48764    0.00000
   75      6.06702    0.00000
   76      6.20383    0.00000
   77      6.72263    0.00000
   78      6.89403    0.00000
   79      7.07653    0.00000
   80      7.46948    0.00000
   81      7.76160    0.00000
   82      8.09011    0.00000
   83      8.58937    0.00000
   84      8.69563    0.00000
   85      8.76788    0.00000
   86      9.03406    0.00000
   87      9.14772    0.00000
   88      9.19435    0.00000
   89      9.38133    0.00000
   90      9.52794    0.00000
   91      9.57434    0.00000
   92      9.66142    0.00000
   93      9.76933    0.00000
   94      9.89975    0.00000
   95      9.93836    0.00000
   96      9.98490    0.00000
   97     10.15096    0.00000


Forces in eV/Ang:
  0 C    -0.11067    0.06839    0.13640
  1 C     0.37888    0.26060   -0.17531
  2 C     0.04370   -0.15822    0.22427
  3 C    -0.52520   -0.40835    0.22207
  4 C    -0.23141    0.40735   -0.21331
  5 C     0.22464    1.35627    0.26055
  6 C    -0.27332    0.33279   -0.11110
  7 C    -0.26821    0.03350    0.21388
  8 C    -0.26338   -0.21507   -0.05150
  9 C    -0.19299    0.30186   -0.11955
 10 C    -0.86471   -2.13964   -1.59865
 11 C    -0.37337   -0.33598    0.47664
 12 C     0.31814    0.18510    0.48450
 13 C    -0.18714    0.14050    0.03873
 14 C     0.04107   -0.40107    0.12841
 15 C    -0.15762    0.24304   -0.02609
 16 C     1.42460    0.52760    0.27683
 17 C     1.10648    0.30294    0.04819
 18 C     0.38461    0.70022   -0.13435
 19 C    -0.81075    0.94255    0.03488
 20 C     0.49599   -1.57088    0.00441
 21 C    -2.18612    0.94565    1.14707
 22 C     4.18929   -1.91178   -0.70170
 23 C    -2.23632    0.28803   -0.56618

System changes: positions 

Initializing position-dependent things.

Density initialized from wave functions
           .--------------------------------------.  
          /|                                      |  
         / |                                      |  
        /  |                                      |  
       /   |                                      |  
      /    |                                      |  
     /     |                                      |  
    /      |                                      |  
   /       |                     C                |  
  /        |                  C   C               |  
 *         |     C  C  C  CC      C               |  
 |         |         C  C        C                |  
 |         .C--C--C-C---C------C------------------.  
 |        /   C C   C   C   C                    /   
 |       /                C                     /    
 |      /                                      /     
 |     /                                      /      
 |    /                                      /       
 |   /                                      /        
 |  /                                      /         
 | /                                      /          
 |/                                      /           
 *--------------------------------------*            

Positions:
   0 C      5.356025    3.613693    5.619814
   1 C      3.018902    5.030074    5.609218
   2 C      7.542748    7.547817    5.172043
   3 C      8.461961    8.662869    5.151222
   4 C      6.493485   10.112794    5.016013
   5 C      7.759133    9.939301    5.085110
   6 C      5.449876    9.139374    5.053480
   7 C      6.049436    7.790414    5.140058
   8 C      4.094992    9.289347    5.031222
   9 C      5.317905    6.543770    5.214585
  10 C      8.108114    4.627668    5.495085
  11 C      7.681847    6.139921    5.241330
  12 C      6.582289    4.260891    5.476335
  13 C      6.405214    5.630157    5.207120
  14 C      4.201925    4.247124    5.583881
  15 C      4.111058    5.834598    5.399480
  16 C     10.995324    9.610981    5.579524
  17 C     11.536913    8.419582    5.479011
  18 C     10.698027    6.040822    5.119488
  19 C     11.310413    7.158687    5.314633
  20 C     10.280830   10.776238    5.651135
  21 C      9.253867    3.921641    4.988901
  22 C      9.756526    5.176094    4.978819
  23 C      9.264007    9.760654    5.429958

Unit cell:
           periodic     x           y           z      points  spacing
  1. axis:    yes   16.000000    0.000000    0.000000    80     0.2000
  2. axis:    yes    0.000000   16.000000    0.000000    80     0.2000
  3. axis:    yes    0.000000    0.000000   10.000000    48     0.2083

Effective grid spacing dv^(1/3) = 0.2027

                     log10-error:    total        iterations:
           time      wfs    density  energy       fermi  poisson
iter:   1  11:43:42          +inf  -174.770605    3      5      
iter:   2  11:43:43         -2.23  -174.760694    3      1      
iter:   3  11:43:43         -2.36  -174.758956    3      2      
iter:   4  11:43:44         -2.49  -174.749960    2      2      
iter:   5  11:43:44         -2.66  -174.755162    3      2      
iter:   6  11:43:45         -2.72  -174.751068    3      1      
iter:   7  11:43:46         -2.93  -174.748102    3      2      
iter:   8  11:43:46         -2.97  -174.749656    3      1      
iter:   9  11:43:47         -3.31  -174.750852    2      1      
iter:  10  11:43:47         -3.39  -174.751142    2      1      
iter:  11  11:43:48         -3.48  -174.750999    2      1      
iter:  12  11:43:48         -3.48  -174.750306    2      1      
iter:  13  11:43:49         -3.80  -174.750078    2      1      
iter:  14  11:43:49         -3.93  -174.750602    2      1      
iter:  15  11:43:50         -4.02  -174.750634    2      1      

Converged after 15 iterations.

Dipole moment: (0.055200, 0.011052, 0.027457) |e|*Ang

Energy contributions relative to reference atoms: (reference = -24663.074771)

Kinetic:       +124.602321
Potential:     -125.228389
External:        +0.000000
XC:            -176.963921
Entropy (-ST):   -0.246786
Local:           +2.962747
--------------------------
Free energy:   -174.874028
Extrapolated:  -174.750634

Fermi level: -4.52266

 Band  Eigenvalues  Occupancy
    0    -23.84290    2.00000
    1    -23.48634    2.00000
    2    -22.82989    2.00000
    3    -21.88573    2.00000
    4    -21.26908    2.00000
    5    -20.91770    2.00000
    6    -20.24200    2.00000
    7    -19.88024    2.00000
    8    -19.21595    2.00000
    9    -18.69855    2.00000
   10    -18.14319    2.00000
   11    -17.90610    2.00000
   12    -16.39782    2.00000
   13    -16.29145    2.00000
   14    -15.99164    2.00000
   15    -14.73090    2.00000
   16    -14.19184    2.00000
   17    -14.09727    2.00000
   18    -13.83380    2.00000
   19    -12.61653    2.00000
   20    -12.20503    2.00000
   21    -11.71943    2.00000
   22    -11.46073    2.00000
   23    -11.16225    2.00000
   24    -11.05713    2.00000
   25    -10.88792    2.00000
   26    -10.52998    2.00000
   27    -10.32733    2.00000
   28    -10.17493    2.00000
   29     -9.65234    2.00000
   30     -9.57126    2.00000
   31     -9.45636    2.00000
   32     -8.84599    2.00000
   33     -8.62611    2.00000
   34     -8.37806    2.00000
   35     -8.15032    2.00000
   36     -8.10285    2.00000
   37     -7.66889    2.00000
   38     -7.10927    2.00000
   39     -6.89324    2.00000
   40     -6.51105    2.00000
   41     -6.42654    2.00000
   42     -6.27194    2.00000
   43     -5.80584    1.99999
   44     -5.66639    1.99998
   45     -5.41178    1.99972
   46     -4.82797    1.90983
   47     -4.67323    1.63686
   48     -4.39512    0.43669
   49     -4.04284    0.01635
   50     -3.70436    0.00056
   51     -3.24119    0.00001
   52     -3.06245    0.00000
   53     -2.75457    0.00000
   54     -2.19581    0.00000
   55     -1.12093    0.00000
   56     -0.92097    0.00000
   57     -0.78456    0.00000
   58     -0.53744    0.00000
   59      0.76728    0.00000
   60      0.96702    0.00000
   61      1.15882    0.00000
   62      1.17933    0.00000
   63      1.44150    0.00000
   64      1.70288    0.00000
   65      1.99549    0.00000
   66      2.97343    0.00000
   67      3.02970    0.00000
   68      3.19936    0.00000
   69      3.59907    0.00000
   70      3.72203    0.00000
   71      4.41599    0.00000
   72      4.90666    0.00000
   73      5.27151    0.00000
   74      5.45968    0.00000
   75      6.13062    0.00000
   76      6.29820    0.00000
   77      6.69611    0.00000
   78      6.88211    0.00000
   79      7.20597    0.00000
   80      7.46785    0.00000
   81      7.76370    0.00000
   82      8.08467    0.00000
   83      8.58036    0.00000
   84      8.71170    0.00000
   85      8.74323    0.00000
   86      9.03201    0.00000
   87      9.14380    0.00000
   88      9.19481    0.00000
   89      9.37873    0.00000
   90      9.53462    0.00000
   91      9.57488    0.00000
   92      9.69340    0.00000
   93      9.76601    0.00000
   94      9.88858    0.00000
   95      9.95156    0.00000
   96      9.99531    0.00000
   97     10.15785    0.00000


Forces in eV/Ang:
  0 C    -0.07706    0.02673    0.13096
  1 C     0.32036    0.22833   -0.16087
  2 C    -0.04628   -0.13377    0.17594
  3 C    -0.57544   -0.55449    0.19620
  4 C    -0.09411    0.33009   -0.21964
  5 C     0.18534    1.36760    0.31352
  6 C    -0.19505    0.32735   -0.10255
  7 C    -0.26304    0.10511    0.19486
  8 C    -0.27083   -0.23201   -0.05208
  9 C    -0.22055    0.26115   -0.09930
 10 C    -1.16675   -1.62786   -1.40611
 11 C    -0.22238   -0.46293    0.44241
 12 C     0.20499    0.14010    0.38674
 13 C    -0.23226    0.08865    0.11445
 14 C     0.02695   -0.34163    0.13177
 15 C    -0.13230    0.24389   -0.03714
 16 C     1.36699    0.44023    0.27328
 17 C     1.13265    0.38426    0.06724
 18 C     0.49463    0.53349   -0.17521
 19 C    -0.68291    0.92873    0.00959
 20 C     0.32193   -1.56714   -0.02654
 21 C    -1.76897    0.66608    0.94665
 22 C     3.90017   -1.79310   -0.62488
 23 C    -1.99020    0.67376   -0.52959

System changes: positions 

Initializing position-dependent things.

Density initialized from wave functions
           .--------------------------------------.  
          /|                                      |  
         / |                                      |  
        /  |                                      |  
       /   |                                      |  
      /    |                                      |  
     /     |                                      |  
    /      |                                      |  
   /       |                     C                |  
  /        |                  C   C               |  
 *         |     C  C  C  CC      C               |  
 |         |         C  C        C                |  
 |         .C--C--C-C---C------C------------------.  
 |        /   C C   C   C   C                    /   
 |       /                C                     /    
 |      /                                      /     
 |     /                                      /      
 |    /                                      /       
 |   /                                      /        
 |  /                                      /         
 | /                                      /          
 |/                                      /           
 *--------------------------------------*            

Positions:
   0 C      5.355167    3.613352    5.621096
   1 C      3.021547    5.032006    5.607774
   2 C      7.542406    7.546068    5.173573
   3 C      8.456969    8.658447    5.153029
   4 C      6.492380   10.115760    5.013966
   5 C      7.761364    9.951310    5.088183
   6 C      5.447917    9.142692    5.052542
   7 C      6.047009    7.790822    5.141799
   8 C      4.092682    9.287109    5.030749
   9 C      5.316277    6.546291    5.213712
  10 C      8.096597    4.613984    5.483566
  11 C      7.679037    6.137286    5.245072
  12 C      6.583650    4.261868    5.479547
  13 C      6.403115    5.631472    5.208181
  14 C      4.202291    4.244260    5.585086
  15 C      4.109746    5.836805    5.399160
  16 C     11.008307    9.614541    5.582075
  17 C     11.547637    8.422888    5.479641
  18 C     10.701499    6.043746    5.117609
  19 C     11.305351    7.168518    5.314830
  20 C     10.283774   10.763195    5.650976
  21 C      9.240190    3.928325    4.996621
  22 C      9.791699    5.157889    4.973208
  23 C      9.244778    9.766563    5.424831

Unit cell:
           periodic     x           y           z      points  spacing
  1. axis:    yes   16.000000    0.000000    0.000000    80     0.2000
  2. axis:    yes    0.000000   16.000000    0.000000    80     0.2000
  3. axis:    yes    0.000000    0.000000   10.000000    48     0.2083

Effective grid spacing dv^(1/3) = 0.2027

                     log10-error:    total        iterations:
           time      wfs    density  energy       fermi  poisson
iter:   1  11:43:52          +inf  -175.165096    3      5      
iter:   2  11:43:53         -2.28  -175.158710    3      1      
iter:   3  11:43:53         -2.41  -175.158786    3      2      
iter:   4  11:43:54         -2.54  -175.151017    2      2      
iter:   5  11:43:54         -2.71  -175.156091    3      2      
iter:   6  11:43:55         -2.77  -175.152133    3      1      
iter:   7  11:43:56         -2.99  -175.149207    3      2      
iter:   8  11:43:56         -2.98  -175.151173    3      1      
iter:   9  11:43:57         -3.36  -175.152318    2      1      
iter:  10  11:43:57         -3.43  -175.152500    2      1      
iter:  11  11:43:58         -3.51  -175.152443    2      1      
iter:  12  11:43:58         -3.50  -175.151511    2      1      
iter:  13  11:43:59         -3.83  -175.151426    2      1      
iter:  14  11:43:59         -3.96  -175.152021    2      1      
iter:  15  11:44:00         -4.04  -175.152010    2      1      

Converged after 15 iterations.

Dipole moment: (0.049077, 0.021803, 0.024417) |e|*Ang

Energy contributions relative to reference atoms: (reference = -24663.074771)

Kinetic:       +125.981865
Potential:     -126.627774
External:        +0.000000
XC:            -177.348109
Entropy (-ST):   -0.249198
Local:           +2.966607
--------------------------
Free energy:   -175.276609
Extrapolated:  -175.152010

Fermi level: -4.54434

 Band  Eigenvalues  Occupancy
    0    -23.83912    2.00000
    1    -23.49822    2.00000
    2    -22.80674    2.00000
    3    -21.82961    2.00000
    4    -21.19732    2.00000
    5    -20.89153    2.00000
    6    -20.24542    2.00000
    7    -19.85039    2.00000
    8    -19.21922    2.00000
    9    -18.70932    2.00000
   10    -18.14712    2.00000
   11    -17.91709    2.00000
   12    -16.43532    2.00000
   13    -16.30787    2.00000
   14    -16.00390    2.00000
   15    -14.70864    2.00000
   16    -14.21593    2.00000
   17    -14.10111    2.00000
   18    -13.83748    2.00000
   19    -12.66595    2.00000
   20    -12.23366    2.00000
   21    -11.74288    2.00000
   22    -11.40956    2.00000
   23    -11.15895    2.00000
   24    -11.08615    2.00000
   25    -10.88533    2.00000
   26    -10.53327    2.00000
   27    -10.34037    2.00000
   28    -10.16414    2.00000
   29     -9.63685    2.00000
   30     -9.54770    2.00000
   31     -9.44562    2.00000
   32     -8.85295    2.00000
   33     -8.60973    2.00000
   34     -8.40263    2.00000
   35     -8.18818    2.00000
   36     -8.15092    2.00000
   37     -7.70471    2.00000
   38     -7.09691    2.00000
   39     -6.90615    2.00000
   40     -6.52188    2.00000
   41     -6.44442    2.00000
   42     -6.25050    2.00000
   43     -5.81262    1.99999
   44     -5.67162    1.99997
   45     -5.36790    1.99947
   46     -4.83421    1.89557
   47     -4.69791    1.64566
   48     -4.41957    0.44619
   49     -4.03928    0.01273
   50     -3.69344    0.00040
   51     -3.23859    0.00000
   52     -3.05432    0.00000
   53     -2.74216    0.00000
   54     -2.17358    0.00000
   55     -1.04018    0.00000
   56     -0.89071    0.00000
   57     -0.77428    0.00000
   58     -0.49494    0.00000
   59      0.83269    0.00000
   60      1.02347    0.00000
   61      1.19505    0.00000
   62      1.30019    0.00000
   63      1.43271    0.00000
   64      1.70913    0.00000
   65      2.08005    0.00000
   66      3.00240    0.00000
   67      3.05090    0.00000
   68      3.22931    0.00000
   69      3.60573    0.00000
   70      3.73556    0.00000
   71      4.48416    0.00000
   72      4.89567    0.00000
   73      5.28627    0.00000
   74      5.43705    0.00000
   75      6.19789    0.00000
   76      6.34552    0.00000
   77      6.66802    0.00000
   78      6.86781    0.00000
   79      7.25512    0.00000
   80      7.53082    0.00000
   81      7.77798    0.00000
   82      8.08155    0.00000
   83      8.57112    0.00000
   84      8.69585    0.00000
   85      8.73235    0.00000
   86      9.02949    0.00000
   87      9.14041    0.00000
   88      9.19618    0.00000
   89      9.37463    0.00000
   90      9.53496    0.00000
   91      9.57173    0.00000
   92      9.72300    0.00000
   93      9.74282    0.00000
   94      9.88727    0.00000
   95      9.97178    0.00000
   96     10.00771    0.00000
   97     10.16540    0.00000


Forces in eV/Ang:
  0 C    -0.04022   -0.02128    0.13095
  1 C     0.27264    0.19302   -0.14620
  2 C    -0.13745   -0.13333    0.14038
  3 C    -0.53880   -0.52816    0.20142
  4 C    -0.06197    0.25285   -0.22505
  5 C     0.18879    1.29380    0.33938
  6 C    -0.11727    0.32140   -0.09561
  7 C    -0.26733    0.16836    0.17236
  8 C    -0.26915   -0.24695   -0.05476
  9 C    -0.24537    0.22551   -0.08146
 10 C    -1.29150   -1.24087   -1.23279
 11 C    -0.12635   -0.53705    0.40244
 12 C     0.07909    0.08422    0.29882
 13 C    -0.28244    0.06985    0.16930
 14 C    -0.00243   -0.28534    0.13093
 15 C    -0.11612    0.25324   -0.04380
 16 C     1.34426    0.36867    0.26073
 17 C     1.13582    0.42815    0.10151
 18 C     0.75302    0.63145   -0.16678
 19 C    -0.62773    0.71991   -0.03985
 20 C     0.18551   -1.52413   -0.03760
 21 C    -1.40948    0.47810    0.80801
 22 C     3.49773   -1.84967   -0.57969
 23 C    -1.88277    0.88368   -0.49486

System changes: positions 

Initializing position-dependent things.

Density initialized from wave functions
           .--------------------------------------.  
          /|                                      |  
         / |                                      |  
        /  |                                      |  
       /   |                                      |  
      /    |                                      |  
     /     |                                      |  
    /      |                                      |  
   /       |                                      |  
  /        |                  C  CC               |  
 *         |     C  C  C  CC      C               |  
 |         |         C  C        C                |  
 |         .C--C--C-C---C------C------------------.  
 |        /   C C   C   C   C                    /   
 |       /                C                     /    
 |      /                                      /     
 |     /                                      /      
 |    /                                      /       
 |   /                                      /        
 |  /                                      /         
 | /                                      /          
 |/                                      /           
 *--------------------------------------*            

Positions:
   0 C      5.354491    3.612395    5.622528
   1 C      3.023957    5.033699    5.606372
   2 C      7.541486    7.544228    5.174984
   3 C      8.452320    8.654748    5.155101
   4 C      6.490926   10.118550    5.011723
   5 C      7.763625    9.963086    5.091497
   6 C      5.446439    9.146207    5.051568
   7 C      6.044353    7.791616    5.143422
   8 C      4.090328    9.284567    5.030231
   9 C      5.314384    6.548773    5.212892
  10 C      8.084536    4.602363    5.473012
  11 C      7.676200    6.134524    5.248661
  12 C      6.583850    4.262499    5.482143
  13 C      6.400466    5.632966    5.209565
  14 C      4.202468    4.241722    5.586323
  15 C      4.108378    5.839260    5.398838
  16 C     11.022235    9.617529    5.584654
  17 C     11.558963    8.426441    5.480665
  18 C     10.706706    6.047697    5.115744
  19 C     11.300525    7.176954    5.314576
  20 C     10.285759   10.750187    5.650797
  21 C      9.229067    3.934445    5.003698
  22 C      9.825533    5.137298    4.967617
  23 C      9.225160    9.773690    5.419750

Unit cell:
           periodic     x           y           z      points  spacing
  1. axis:    yes   16.000000    0.000000    0.000000    80     0.2000
  2. axis:    yes    0.000000   16.000000    0.000000    80     0.2000
  3. axis:    yes    0.000000    0.000000   10.000000    48     0.2083

Effective grid spacing dv^(1/3) = 0.2027

                     log10-error:    total        iterations:
           time      wfs    density  energy       fermi  poisson
iter:   1  11:44:02          +inf  -175.526539    3      5      
iter:   2  11:44:03         -2.33  -175.521931    3      1      
iter:   3  11:44:03         -2.45  -175.521871    3      2      
iter:   4  11:44:04         -2.59  -175.515250    2      2      
iter:   5  11:44:04         -2.76  -175.519474    3      2      
iter:   6  11:44:05         -2.82  -175.516085    3      1      
iter:   7  11:44:05         -3.03  -175.513675    3      2      
iter:   8  11:44:06         -3.03  -175.515467    3      1      
iter:   9  11:44:07         -3.41  -175.516533    2      1      
iter:  10  11:44:07         -3.50  -175.516705    2      1      
iter:  11  11:44:08         -3.60  -175.516371    2      1      
iter:  12  11:44:08         -3.65  -175.515444    2      1      
iter:  13  11:44:09         -3.83  -175.515786    2      1      
iter:  14  11:44:09         -4.02  -175.516288    2      1      

Converged after 14 iterations.

Dipole moment: (0.040517, 0.018829, 0.019744) |e|*Ang

Energy contributions relative to reference atoms: (reference = -24663.074771)

Kinetic:       +126.943450
Potential:     -127.663005
External:        +0.000000
XC:            -177.641974
Entropy (-ST):   -0.251854
Local:           +2.971168
--------------------------
Free energy:   -175.642215
Extrapolated:  -175.516288

Fermi level: -4.55916

 Band  Eigenvalues  Occupancy
    0    -23.84198    2.00000
    1    -23.51245    2.00000
    2    -22.79169    2.00000
    3    -21.78060    2.00000
    4    -21.12406    2.00000
    5    -20.85931    2.00000
    6    -20.24850    2.00000
    7    -19.81304    2.00000
    8    -19.22644    2.00000
    9    -18.71950    2.00000
   10    -18.14035    2.00000
   11    -17.91941    2.00000
   12    -16.46910    2.00000
   13    -16.31707    2.00000
   14    -16.00982    2.00000
   15    -14.69695    2.00000
   16    -14.23646    2.00000
   17    -14.10847    2.00000
   18    -13.84025    2.00000
   19    -12.72404    2.00000
   20    -12.26424    2.00000
   21    -11.76708    2.00000
   22    -11.39769    2.00000
   23    -11.15904    2.00000
   24    -11.08884    2.00000
   25    -10.89908    2.00000
   26    -10.53381    2.00000
   27    -10.34090    2.00000
   28    -10.15460    2.00000
   29     -9.62960    2.00000
   30     -9.52872    2.00000
   31     -9.42979    2.00000
   32     -8.86345    2.00000
   33     -8.59163    2.00000
   34     -8.44597    2.00000
   35     -8.24031    2.00000
   36     -8.15828    2.00000
   37     -7.73173    2.00000
   38     -7.08424    2.00000
   39     -6.92053    2.00000
   40     -6.54139    2.00000
   41     -6.45904    2.00000
   42     -6.22432    2.00000
   43     -5.81682    1.99999
   44     -5.68438    1.99997
   45     -5.31328    1.99894
   46     -4.84005    1.88631
   47     -4.71370    1.64851
   48     -4.43696    0.45517
   49     -4.03743    0.01079
   50     -3.68398    0.00032
   51     -3.24447    0.00000
   52     -3.05122    0.00000
   53     -2.72053    0.00000
   54     -2.15826    0.00000
   55     -1.00212    0.00000
   56     -0.85724    0.00000
   57     -0.76520    0.00000
   58     -0.45398    0.00000
   59      0.88418    0.00000
   60      1.05432    0.00000
   61      1.22358    0.00000
   62      1.37088    0.00000
   63      1.46041    0.00000
   64      1.73071    0.00000
   65      2.16664    0.00000
   66      3.02461    0.00000
   67      3.08032    0.00000
   68      3.25160    0.00000
   69      3.61146    0.00000
   70      3.74831    0.00000
   71      4.55470    0.00000
   72      4.91656    0.00000
   73      5.29359    0.00000
   74      5.41220    0.00000
   75      6.25884    0.00000
   76      6.36464    0.00000
   77      6.65192    0.00000
   78      6.85227    0.00000
   79      7.25458    0.00000
   80      7.60100    0.00000
   81      7.80208    0.00000
   82      8.08892    0.00000
   83      8.55983    0.00000
   84      8.66412    0.00000
   85      8.73801    0.00000
   86      9.02652    0.00000
   87      9.13617    0.00000
   88      9.20339    0.00000
   89      9.36907    0.00000
   90      9.53158    0.00000
   91      9.55996    0.00000
   92      9.71459    0.00000
   93      9.75227    0.00000
   94      9.89238    0.00000
   95      9.99008    0.00000
   96     10.02768    0.00000
   97     10.17566    0.00000


Forces in eV/Ang:
  0 C    -0.04105   -0.06415    0.13212
  1 C     0.23045    0.16166   -0.13277
  2 C    -0.18965   -0.09337    0.11413
  3 C    -0.53846   -0.54635    0.21364
  4 C     0.00978    0.21815   -0.23363
  5 C     0.04045    1.22329    0.34403
  6 C    -0.06861    0.29973   -0.09019
  7 C    -0.26523    0.21013    0.15047
  8 C    -0.25624   -0.26609   -0.05639
  9 C    -0.26737    0.20778   -0.06965
 10 C    -1.31036   -0.88240   -1.07788
 11 C    -0.04954   -0.58536    0.36249
 12 C    -0.04261    0.05538    0.21600
 13 C    -0.31042    0.03775    0.21483
 14 C    -0.01409   -0.24217    0.12989
 15 C    -0.11252    0.25596   -0.04369
 16 C     1.27855    0.31834    0.25317
 17 C     1.13182    0.42734    0.10423
 18 C     0.72966    0.43449   -0.19077
 19 C    -0.51277    0.67989   -0.05809
 20 C     0.03973   -1.49244   -0.04340
 21 C    -1.07296    0.27762    0.69009
 22 C     3.23474   -1.66948   -0.47997
 23 C    -1.67081    1.08889   -0.46250

System changes: positions 

Initializing position-dependent things.

Density initialized from wave functions
           .--------------------------------------.  
          /|                                      |  
         / |                                      |  
        /  |                                      |  
       /   |                                      |  
      /    |                                      |  
     /     |                                      |  
    /      |                                      |  
   /       |                                      |  
  /        |                  C  CC               |  
 *         |     C  C  C  CC      C               |  
 |         |         C  C        C                |  
 |         .C--C--C-C---C------C------------------.  
 |        /   C C   C   C   C                    /   
 |       /                C                     /    
 |      /                                      /     
 |     /                                      /      
[...]
External:        +0.000000
XC:            -175.329452
Entropy (-ST):   -0.107824
Local:           +2.997416
--------------------------
Free energy:   -179.589829
Extrapolated:  -179.535916

Fermi level: -4.13053

 Band  Eigenvalues  Occupancy
    0    -23.73053    2.00000
    1    -22.97548    2.00000
    2    -21.42445    2.00000
    3    -20.97629    2.00000
    4    -20.37895    2.00000
    5    -20.19950    2.00000
    6    -19.50631    2.00000
    7    -19.20733    2.00000
    8    -18.84748    2.00000
    9    -18.35578    2.00000
   10    -17.82761    2.00000
   11    -17.42819    2.00000
   12    -16.77713    2.00000
   13    -16.02642    2.00000
   14    -15.43325    2.00000
   15    -14.96872    2.00000
   16    -14.65452    2.00000
   17    -14.26740    2.00000
   18    -13.72254    2.00000
   19    -13.35139    2.00000
   20    -12.58721    2.00000
   21    -12.37439    2.00000
   22    -11.98301    2.00000
   23    -11.59313    2.00000
   24    -10.94886    2.00000
   25    -10.72891    2.00000
   26    -10.23436    2.00000
   27    -10.11204    2.00000
   28    -10.02461    2.00000
   29     -9.37426    2.00000
   30     -8.99437    2.00000
   31     -8.86468    2.00000
   32     -8.75481    2.00000
   33     -8.54244    2.00000
   34     -8.47494    2.00000
   35     -8.20995    2.00000
   36     -7.99728    2.00000
   37     -7.51328    2.00000
   38     -7.28266    2.00000
   39     -6.94607    2.00000
   40     -6.50568    2.00000
   41     -6.47627    2.00000
   42     -5.78412    2.00000
   43     -5.76001    2.00000
   44     -5.69783    2.00000
   45     -4.96786    1.99954
   46     -4.54055    1.96740
   47     -4.42316    1.89827
   48     -3.86635    0.13299
   49     -3.37253    0.00102
   50     -3.30375    0.00051
   51     -3.22016    0.00022
   52     -3.04455    0.00004
   53     -2.85308    0.00001
   54     -1.88508    0.00000
   55     -1.43933    0.00000
   56     -1.36725    0.00000
   57     -0.90294    0.00000
   58     -0.67550    0.00000
   59     -0.31250    0.00000
   60     -0.14106    0.00000
   61      0.19870    0.00000
   62      1.56668    0.00000
   63      2.21841    0.00000
   64      2.49622    0.00000
   65      2.89483    0.00000
   66      3.16740    0.00000
   67      3.55573    0.00000
   68      3.78061    0.00000
   69      4.11037    0.00000
   70      4.49228    0.00000
   71      4.92445    0.00000
   72      5.41682    0.00000
   73      5.69571    0.00000
   74      5.89594    0.00000
   75      6.54305    0.00000
   76      6.83269    0.00000
   77      6.91940    0.00000
   78      7.55717    0.00000
   79      8.02648    0.00000
   80      8.16992    0.00000
   81      8.49896    0.00000
   82      8.52834    0.00000
   83      8.82866    0.00000
   84      8.92624    0.00000
   85      9.07080    0.00000
   86      9.16937    0.00000
   87      9.26959    0.00000
   88      9.36611    0.00000
   89      9.39978    0.00000
   90      9.49302    0.00000
   91      9.61329    0.00000
   92      9.66914    0.00000
   93      9.98480    0.00000
   94     10.21183    0.00000
   95     10.28986    0.00000
   96     10.33721    0.00000
   97     10.44027    0.00000


Forces in eV/Ang:
  0 C    -0.02234   -0.03424    0.02789
  1 C    -0.01229    0.07768    0.04335
  2 C    -0.05756    0.03226    0.07355
  3 C     0.05724   -0.01919    0.00955
  4 C    -0.08945    0.00113   -0.05284
  5 C     0.06130    0.01582    0.08551
  6 C    -0.02317   -0.03716    0.01520
  7 C     0.01268    0.00485   -0.02478
  8 C     0.01919    0.01521    0.00124
  9 C     0.02835    0.07188   -0.02607
 10 C    -0.05368   -0.03312   -0.02788
 11 C    -0.05922   -0.00584   -0.10911
 12 C     0.04590   -0.06199   -0.04725
 13 C    -0.00724   -0.00893   -0.02996
 14 C     0.01001    0.01896    0.02135
 15 C     0.04317   -0.03517   -0.01929
 16 C    -0.03598    0.08491   -0.01682
 17 C     0.03187    0.01497   -0.00682
 18 C     0.10568   -0.02616    0.00839
 19 C     0.00449   -0.00095   -0.04123
 20 C    -0.00004    0.01386   -0.02218
 21 C    -0.02636   -0.05722    0.02600
 22 C    -0.00037    0.01506    0.04822
 23 C    -0.08012   -0.06367    0.02322

System changes: positions 

Initializing position-dependent things.

Density initialized from wave functions
           .--------------------------------------.  
          /|                                      |  
         / |                                      |  
        /  |                                      |  
       /   |                                      |  
      /    |                                      |  
     /     |                                      |  
    /      |                                      |  
   /       |                                      |  
  /        |           C  C     C                 |  
 *         |    C  C      C  C    C C             |  
 |         |        C  C          C               |  
 |         .-CC--C-C---C------C--C----------------.  
 |        /   C  C  C  C  C                      /   
 |       /                                      /    
 |      /                                      /     
 |     /                                      /      
 |    /                                      /       
 |   /                                      /        
 |  /                                      /         
 | /                                      /          
 |/                                      /           
 *--------------------------------------*            

Positions:
   0 C      5.619599    3.397255    5.542469
   1 C      3.555871    4.760883    5.640016
   2 C      7.114019    7.747545    5.037576
   3 C      7.931339    8.885860    5.086817
   4 C      6.324726   10.206824    5.296385
   5 C      7.569497   10.499974    5.270106
   6 C      5.163363    9.381868    5.206988
   7 C      5.643817    7.955923    5.193603
   8 C      3.830006    9.655183    5.051280
   9 C      4.986169    6.696898    5.228781
  10 C      7.959189    4.902730    5.164983
  11 C      7.344378    6.336180    4.929039
  12 C      6.569987    4.415308    5.260104
  13 C      6.078015    5.767529    5.032358
  14 C      4.383025    3.701160    5.737458
  15 C      3.764926    6.023105    5.531633
  16 C     11.203983    9.119322    5.389429
  17 C     12.130273    8.167838    5.476005
  18 C     11.581977    5.609134    5.440890
  19 C     11.924148    6.873953    5.455954
  20 C     10.275951   10.020768    5.334393
  21 C      9.241153    4.452389    5.288918
  22 C     10.420034    4.990958    5.343790
  23 C      8.912864    9.833350    5.213553

Unit cell:
           periodic     x           y           z      points  spacing
  1. axis:    yes   16.000000    0.000000    0.000000    80     0.2000
  2. axis:    yes    0.000000   16.000000    0.000000    80     0.2000
  3. axis:    yes    0.000000    0.000000   10.000000    48     0.2083

Effective grid spacing dv^(1/3) = 0.2027

                     log10-error:    total        iterations:
           time      wfs    density  energy       fermi  poisson
iter:   1  11:53:25          +inf  -179.537386    2      5      
iter:   2  11:53:26         -2.80  -179.539151    2      1      
iter:   3  11:53:26         -2.85  -179.541632    2      1      
iter:   4  11:53:27         -2.98  -179.538601    2      2      
iter:   5  11:53:27         -3.21  -179.540461    2      1      
iter:   6  11:53:28         -3.40  -179.537533    2      2      
iter:   7  11:53:28         -3.39  -179.537222    2      1      
iter:   8  11:53:29         -3.81  -179.538191    2      1      
iter:   9  11:53:30         -3.92  -179.538376    2      1      
iter:  10  11:53:30         -4.03  -179.538656    2      1      

Converged after 10 iterations.

Dipole moment: (-0.500669, 0.107051, 0.029194) |e|*Ang

Energy contributions relative to reference atoms: (reference = -24663.074771)

Kinetic:       +107.055538
Potential:     -114.458324
External:        +0.000000
XC:            -175.082117
Entropy (-ST):   -0.106438
Local:           +2.999466
--------------------------
Free energy:   -179.591875
Extrapolated:  -179.538656

Fermi level: -4.13363

 Band  Eigenvalues  Occupancy
    0    -23.73188    2.00000
    1    -22.96912    2.00000
    2    -21.41708    2.00000
    3    -20.97025    2.00000
    4    -20.37318    2.00000
    5    -20.20342    2.00000
    6    -19.50437    2.00000
    7    -19.20260    2.00000
    8    -18.84504    2.00000
    9    -18.35133    2.00000
   10    -17.82040    2.00000
   11    -17.42376    2.00000
   12    -16.77648    2.00000
   13    -16.03074    2.00000
   14    -15.42787    2.00000
   15    -14.96508    2.00000
   16    -14.65075    2.00000
   17    -14.26342    2.00000
   18    -13.71433    2.00000
   19    -13.34741    2.00000
   20    -12.58694    2.00000
   21    -12.37018    2.00000
   22    -11.97543    2.00000
   23    -11.59471    2.00000
   24    -10.94686    2.00000
   25    -10.72887    2.00000
   26    -10.23344    2.00000
   27    -10.11861    2.00000
   28    -10.01834    2.00000
   29     -9.37324    2.00000
   30     -8.99074    2.00000
   31     -8.86313    2.00000
   32     -8.75574    2.00000
   33     -8.54414    2.00000
   34     -8.47181    2.00000
   35     -8.20813    2.00000
   36     -8.00086    2.00000
   37     -7.51076    2.00000
   38     -7.28426    2.00000
   39     -6.94386    2.00000
   40     -6.50390    2.00000
   41     -6.47831    2.00000
   42     -5.78434    2.00000
   43     -5.76243    2.00000
   44     -5.70006    2.00000
   45     -4.97200    1.99954
   46     -4.54529    1.96792
   47     -4.42797    1.89990
   48     -3.86789    0.13106
   49     -3.35477    0.00083
   50     -3.30065    0.00048
   51     -3.22089    0.00022
   52     -3.04586    0.00004
   53     -2.86122    0.00001
   54     -1.89303    0.00000
   55     -1.44602    0.00000
   56     -1.35119    0.00000
   57     -0.91296    0.00000
   58     -0.74344    0.00000
   59     -0.31754    0.00000
   60     -0.15184    0.00000
   61      0.19469    0.00000
   62      1.55201    0.00000
   63      2.19129    0.00000
   64      2.47335    0.00000
   65      2.88340    0.00000
   66      3.13631    0.00000
   67      3.54386    0.00000
   68      3.76563    0.00000
   69      4.09913    0.00000
   70      4.50277    0.00000
   71      4.93314    0.00000
   72      5.40067    0.00000
   73      5.68441    0.00000
   74      5.89445    0.00000
   75      6.53759    0.00000
   76      6.81026    0.00000
   77      6.89854    0.00000
   78      7.54262    0.00000
   79      8.01018    0.00000
   80      8.15249    0.00000
   81      8.47502    0.00000
   82      8.51013    0.00000
   83      8.82517    0.00000
   84      8.92688    0.00000
   85      9.05620    0.00000
   86      9.15220    0.00000
   87      9.26662    0.00000
   88      9.35975    0.00000
   89      9.40229    0.00000
   90      9.49563    0.00000
   91      9.60422    0.00000
   92      9.66958    0.00000
   93      9.96862    0.00000
   94     10.20506    0.00000
   95     10.28054    0.00000
   96     10.33919    0.00000
   97     10.43003    0.00000


Forces in eV/Ang:
  0 C    -0.02845    0.02251    0.02931
  1 C     0.00816    0.04855    0.02647
  2 C    -0.06740    0.00319    0.07007
  3 C     0.02945   -0.03326   -0.00884
  4 C     0.01686    0.06669   -0.07755
  5 C    -0.05292   -0.06956    0.07987
  6 C     0.00354   -0.03702    0.01326
  7 C    -0.01921    0.01031   -0.01758
  8 C     0.06332   -0.02578    0.01067
  9 C     0.02854    0.03040   -0.03409
 10 C    -0.00574   -0.01606   -0.00187
 11 C    -0.07944    0.06503   -0.06632
 12 C     0.01221   -0.06716   -0.00836
 13 C    -0.01659   -0.02417   -0.06187
 14 C     0.05385    0.04815   -0.00527
 15 C     0.08455   -0.03093   -0.01668
 16 C     0.01534    0.08134   -0.01707
 17 C     0.00065    0.02193   -0.01971
 18 C     0.04645   -0.05136    0.01453
 19 C     0.02920   -0.01888   -0.02223
 20 C    -0.07506    0.05149   -0.01332
 21 C    -0.03607   -0.05760    0.03049
 22 C     0.00211    0.02938    0.02496
 23 C    -0.05085   -0.05513    0.04102

System changes: positions 

Initializing position-dependent things.

Density initialized from wave functions
           .--------------------------------------.  
          /|                                      |  
         / |                                      |  
        /  |                                      |  
       /   |                                      |  
      /    |                                      |  
     /     |                                      |  
    /      |                                      |  
   /       |                                      |  
  /        |           C  C     C                 |  
 *         |    C  C      C  C    C C             |  
 |         |        C  C          C               |  
 |         .-CC--C-C---C------C--C----------------.  
 |        /   C  C  C  C  C                      /   
 |       /                                      /    
 |      /                                      /     
 |     /                                      /      
 |    /                                      /       
 |   /                                      /        
 |  /                                      /         
 | /                                      /          
 |/                                      /           
 *--------------------------------------*            

Positions:
   0 C      5.618639    3.394744    5.544048
   1 C      3.553300    4.762245    5.641639
   2 C      7.114720    7.747239    5.040164
   3 C      7.932799    8.884983    5.089841
   4 C      6.322657   10.210349    5.289409
   5 C      7.568295   10.497082    5.274195
   6 C      5.163963    9.381315    5.205613
   7 C      5.645516    7.956656    5.193804
   8 C      3.830605    9.654038    5.051305
   9 C      4.988362    6.698699    5.229448
  10 C      7.958265    4.900881    5.164322
  11 C      7.344514    6.335765    4.927460
  12 C      6.568893    4.413296    5.259324
  13 C      6.078627    5.767152    5.033536
  14 C      4.383402    3.703878    5.736882
  15 C      3.768718    6.021911    5.528821
  16 C     11.202812    9.119630    5.390492
  17 C     12.130066    8.168415    5.476081
  18 C     11.583539    5.609295    5.437996
  19 C     11.923633    6.874607    5.452195
  20 C     10.274946   10.021233    5.335470
  21 C      9.240583    4.452472    5.290687
  22 C     10.419736    4.992246    5.344812
  23 C      8.911956    9.834122    5.213846

Unit cell:
           periodic     x           y           z      points  spacing
  1. axis:    yes   16.000000    0.000000    0.000000    80     0.2000
  2. axis:    yes    0.000000   16.000000    0.000000    80     0.2000
  3. axis:    yes    0.000000    0.000000   10.000000    48     0.2083

Effective grid spacing dv^(1/3) = 0.2027

                     log10-error:    total        iterations:
           time      wfs    density  energy       fermi  poisson
iter:   1  11:53:32          +inf  -179.543760    2      4      
iter:   2  11:53:33         -2.88  -179.541426    2      1      
iter:   3  11:53:33         -3.04  -179.539702    2      1      
iter:   4  11:53:34         -3.25  -179.540573    2      1      
iter:   5  11:53:34         -3.41  -179.538228    2      1      
iter:   6  11:53:35         -3.43  -179.541390    2      1      
iter:   7  11:53:35         -3.55  -179.540576    2      1      
iter:   8  11:53:36         -3.88  -179.540090    2      1      
iter:   9  11:53:36         -4.20  -179.540229    2      1      

Converged after 9 iterations.

Dipole moment: (-0.504671, 0.114070, 0.029188) |e|*Ang

Energy contributions relative to reference atoms: (reference = -24663.074771)

Kinetic:       +107.244136
Potential:     -114.616104
External:        +0.000000
XC:            -175.130067
Entropy (-ST):   -0.107409
Local:           +3.015510
--------------------------
Free energy:   -179.593934
Extrapolated:  -179.540229

Fermi level: -4.13683

 Band  Eigenvalues  Occupancy
    0    -23.73577    2.00000
    1    -22.96914    2.00000
    2    -21.42117    2.00000
    3    -20.97192    2.00000
    4    -20.37804    2.00000
    5    -20.20429    2.00000
    6    -19.50368    2.00000
    7    -19.20378    2.00000
    8    -18.84603    2.00000
    9    -18.35602    2.00000
   10    -17.82559    2.00000
   11    -17.42771    2.00000
   12    -16.77203    2.00000
   13    -16.03430    2.00000
   14    -15.42983    2.00000
   15    -14.96272    2.00000
   16    -14.65220    2.00000
   17    -14.25903    2.00000
   18    -13.71476    2.00000
   19    -13.34595    2.00000
   20    -12.58586    2.00000
   21    -12.37531    2.00000
   22    -11.97875    2.00000
   23    -11.60136    2.00000
   24    -10.95042    2.00000
   25    -10.73369    2.00000
   26    -10.23532    2.00000
   27    -10.11782    2.00000
   28    -10.01763    2.00000
   29     -9.36798    2.00000
   30     -8.99441    2.00000
   31     -8.86301    2.00000
   32     -8.75682    2.00000
   33     -8.54492    2.00000
   34     -8.47398    2.00000
   35     -8.20997    2.00000
   36     -8.00033    2.00000
   37     -7.51015    2.00000
   38     -7.28216    2.00000
   39     -6.94493    2.00000
   40     -6.50530    2.00000
   41     -6.47956    2.00000
   42     -5.78256    2.00000
   43     -5.76256    2.00000
   44     -5.69884    2.00000
   45     -4.97462    1.99954
   46     -4.54656    1.96731
   47     -4.43016    1.89894
   48     -3.87232    0.13259
   49     -3.36641    0.00090
   50     -3.29950    0.00046
   51     -3.22030    0.00021
   52     -3.04639    0.00004
   53     -2.85743    0.00001
   54     -1.88728    0.00000
   55     -1.43897    0.00000
   56     -1.35153    0.00000
   57     -0.90900    0.00000
   58     -0.72842    0.00000
   59     -0.31982    0.00000
   60     -0.15452    0.00000
   61      0.19279    0.00000
   62      1.55545    0.00000
   63      2.18503    0.00000
   64      2.48067    0.00000
   65      2.88588    0.00000
   66      3.14458    0.00000
   67      3.54021    0.00000
   68      3.77539    0.00000
   69      4.10521    0.00000
   70      4.49967    0.00000
   71      4.93386    0.00000
   72      5.39185    0.00000
   73      5.68514    0.00000
   74      5.89037    0.00000
   75      6.52774    0.00000
   76      6.81511    0.00000
   77      6.89364    0.00000
   78      7.54191    0.00000
   79      8.01248    0.00000
   80      8.15380    0.00000
   81      8.47094    0.00000
   82      8.50633    0.00000
   83      8.82683    0.00000
   84      8.92542    0.00000
   85      9.05496    0.00000
   86      9.15173    0.00000
   87      9.26604    0.00000
   88      9.36341    0.00000
   89      9.40353    0.00000
   90      9.50331    0.00000
   91      9.60519    0.00000
   92      9.66888    0.00000
   93      9.97134    0.00000
   94     10.20598    0.00000
   95     10.27964    0.00000
   96     10.33898    0.00000
   97     10.42600    0.00000


Forces in eV/Ang:
  0 C    -0.00017    0.02602    0.02343
  1 C     0.01013    0.00549    0.03120
  2 C    -0.03080   -0.00139    0.04044
  3 C     0.00290   -0.06551   -0.02549
  4 C    -0.00289    0.03844   -0.07904
  5 C    -0.01193   -0.02989    0.07560
  6 C    -0.00728   -0.00433    0.00327
  7 C    -0.01629    0.01578   -0.00086
  8 C     0.04580   -0.01984    0.01875
  9 C     0.00211   -0.01249   -0.03522
 10 C     0.00203   -0.00204    0.00337
 11 C    -0.06779    0.04871   -0.04347
 12 C     0.00105   -0.03197   -0.00067
 13 C    -0.02135   -0.03377   -0.08155
 14 C     0.02114    0.05244   -0.00499
 15 C     0.08117    0.01944   -0.01475
 16 C     0.02686    0.07681   -0.01861
 17 C    -0.00755    0.02914   -0.02857
 18 C     0.00023   -0.08603    0.00953
 19 C     0.03530    0.00532   -0.02416
 20 C    -0.04597    0.05459   -0.00563
 21 C     0.01157   -0.04430    0.03433
 22 C    -0.00150    0.02005    0.01860
 23 C    -0.03632   -0.04751    0.04865

