
  ___ ___ ___ _ _ _  
 |   |   |_  | | | | 
 | | | | | . | | | | 
 |__ |  _|___|_____|  1.3.0b1
 |___|_|             

User:   esb@s65n32.grendel.cscaa.dk
Date:   Thu Nov  9 09:52:30 2017
Arch:   x86_64
Pid:    22146
Python: 2.7.13
gpaw:   /home/esb/DFT/gpaw_git/gpaw
_gpaw:  /home/esb/DFT/gpaw_git/build/bin.linux-x86_64-2.7/gpaw-python
ase:    /home/esb/DFT/ase_git/ase (version 3.15.0b1)
numpy:  /comm/swstack/core/python/2.7.13/lib/python2.7/site-packages/numpy (version 1.13.3)
scipy:  /comm/swstack/core/python/2.7.13/lib/python2.7/site-packages/scipy (version 0.19.1)
units:  Angstrom and eV
cores:  16
Extra parameters: {'blacs': True}

Input parameters:
  basis: dzp
  gpts: [80 80 48]
  kpts: [1 1 1]
  maxiter: 99
  mixer: {backend: pulay,
          beta: 0.05,
          method: separate,
          nmaxold: 5,
          weight: 75}
  mode: lcao
  nbands: -50
  occupations: {name: fermi-dirac,
                width: 0.1}
  poissonsolver: {eps: 1e-07,
                  name: fd,
                  nn: 3,
                  relax: GS}
  xc: PBE

System changes: positions, numbers, cell, pbc, initial_charges, initial_magmoms 

Initialize ...

C-setup:
  name: Carbon
  id: 4aa54d4b901d75f77cc0ea3eec22967b
  Z: 6
  valence: 4
  core: 2
  charge: 0.0
  file: /home/esb/DFT/gpaw-setups-0.8.7929/C.PBE.gz
  cutoffs: 0.64(comp), 1.14(filt), 1.14(core), lmax=2
  valence states:
                energy  radius
    2s(2.00)   -13.751   0.635
    2p(2.00)    -5.284   0.635
    *s          13.461   0.635
    *p          21.927   0.635
    *d           0.000   0.635

  LCAO basis set for C:
    Name: dzp
    File: /home/esb/DFT/gpaw-setups-0.8.7929/C.dzp.basis.gz
    Number of radial functions: 5
    Number of spherical harmonics: 13
      l=0, rc=5.5469 Bohr: 2s-sz confined orbital
      l=1, rc=6.6719 Bohr: 2p-sz confined orbital
      l=0, rc=3.0312 Bohr: 2s-dz split-valence wave
      l=1, rc=3.7500 Bohr: 2p-dz split-valence wave
      l=2, rc=6.6719 Bohr: d-type Gaussian polarization

Reference energy: -24663.074771

Spin-paired calculation

Occupation numbers:
  Fermi-Dirac: width=0.1000 eV

Convergence criteria:
  Maximum total energy change: 0.0005 eV / electron
  Maximum integral of absolute density change: 0.0001 electrons
  Maximum integral of absolute eigenstate change: 4e-08 eV^2
  Maximum number of iterations: 99

Symmetries present (total): 1

  ( 1  0  0)
  ( 0  1  0)
  ( 0  0  1)

1 k-point (Gamma)
1 k-point in the irreducible part of the Brillouin zone
       k-points in crystal coordinates                weights
   0:     0.00000000    0.00000000    0.00000000          1/1

Wave functions: LCAO
  Diagonalizer: Serial LAPACK
  Atomic Correction: dense with blas
  Datatype: float
  Eigensolver: None 

LCAO using direct dense diagonalizer 

Densities:
  Coarse grid: 80*80*48 grid
  Fine grid: 160*160*96 grid
  Total Charge: 0.000000 

Density mixing:
  Method: separate
  Backend: pulay
  Linear mixing parameter: 0.05
  Mixing with 5 old densities
  Damping of long wave oscillations: 75 

Hamiltonian:
  XC and Coulomb potentials evaluated on a 160*160*96 grid
  Using the PBE Exchange-Correlation functional
  Interpolation: tri-quintic (5. degree polynomial)
  Poisson solver: Gauss-Seidel solver with 6 multi-grid levels
    Coarsest grid: 5 x 5 x 3 points
    Stencil: 6*3+1=19 point O(h^6) finite-difference Laplacian
    Max iterations: 1000
    Tolerance: 1.000000e-07 

Memory estimate:
  Process memory now: 79.55 MiB
  Calculator: 15.59 MiB
    Density: 6.13 MiB
      Arrays: 3.81 MiB
      Localized functions: 0.86 MiB
      Mixer: 1.46 MiB
    Hamiltonian: 5.40 MiB
      Arrays: 2.49 MiB
      XC: 0.00 MiB
      Poisson: 2.85 MiB
      vbar: 0.07 MiB
    Wavefunctions: 4.05 MiB
      C [qnM]: 0.23 MiB
      S, T [2 x qmm]: 1.49 MiB
      P [aqMi]: 0.01 MiB
      TCI: 0.00 MiB
      BasisFunctions: 2.33 MiB
      Eigensolver: 0.00 MiB

Total number of cores used: 16
Domain decomposition: 2 x 4 x 2

Number of atoms: 24
Number of atomic orbitals: 312
Number of bands in calculation: 98
Bands to converge: occupied states only
Number of valence electrons: 96

... initialized

Initializing position-dependent things.

Density initialized from atomic densities
           .--------------------------------------.  
          /|                                      |  
         / |                                      |  
        /  |                                      |  
       /   |                                      |  
      /    |                                      |  
     /     |                                      |  
    /      |                                      |  
   /       |                                      |  
  /        |    C     C  C  C                     |  
 *         |        C         C  C                |  
 |         C C       C   C        C               |  
 |         .---C----CC------C--C---C--------------.  
 |        /    C     C   CC                      /   
 |       /       C     C                        /    
 |      /                                      /     
 |     /                                      /      
 |    /                                      /       
 |   /                                      /        
 |  /                                      /         
 | /                                      /          
 |/                                      /           
 *--------------------------------------*            

Positions:
   0 C     10.714943    6.713765    5.040716
   1 C     12.105175    6.472709    4.773346
   2 C     11.572961    8.334422    4.687111
   3 C     10.958559    9.162022    4.984830
   4 C      9.367469    4.132462    5.116581
   5 C      9.519101    5.543678    5.209460
   6 C      9.684321    9.179426    5.015138
   7 C      5.378194    8.712916    5.802876
   8 C      5.713535    3.344428    5.326439
   9 C      2.720154    7.859607    5.107347
  10 C      7.474601    9.965105    5.679214
  11 C      6.241915    9.843237    5.865144
  12 C      6.110368    6.381896    5.365168
  13 C      8.349364    3.398632    5.171257
  14 C      7.701780    7.586696    5.400398
  15 C      4.373421    5.075565    5.625785
  16 C      8.398096    5.672562    4.527958
  17 C      6.237274    7.531132    5.555899
  18 C      7.023028    3.875364    5.245263
  19 C      3.962109    8.671975    5.906811
  20 C      4.691322    4.070902    5.432875
  21 C      8.557080    9.237150    5.941118
  22 C      2.723035    6.136324    5.950055
  23 C      7.020796    5.340016    5.298345

Unit cell:
           periodic     x           y           z      points  spacing
  1. axis:    yes   16.000000    0.000000    0.000000    80     0.2000
  2. axis:    yes    0.000000   16.000000    0.000000    80     0.2000
  3. axis:    yes    0.000000    0.000000   10.000000    48     0.2083

Effective grid spacing dv^(1/3) = 0.2027

                     log10-error:    total        iterations:
           time      wfs    density  energy       fermi  poisson
iter:   1  09:52:31          +inf  -160.318474    3      6      
iter:   2  09:52:32         -0.88  -158.387926    4      3      
iter:   3  09:52:32         -0.93  -155.523066    4      3      
iter:   4  09:52:33         -1.01  -154.758429    4      3      
iter:   5  09:52:34         -1.09  -153.788039    33     3      
iter:   6  09:52:34         -1.26  -153.617652    33     3      
iter:   7  09:52:35         -1.42  -153.433204    4      3      
iter:   8  09:52:36         -1.67  -153.408617    3      3      
iter:   9  09:52:36         -1.80  -153.386376    3      2      
iter:  10  09:52:37         -1.90  -153.370998    3      2      
iter:  11  09:52:37         -2.01  -153.364160    3      3      
iter:  12  09:52:38         -2.14  -153.359823    3      2      
iter:  13  09:52:38         -2.21  -153.353676    3      2      
iter:  14  09:52:39         -2.43  -153.347216    3      2      
iter:  15  09:52:40         -2.66  -153.344311    3      2      
iter:  16  09:52:40         -2.90  -153.341606    3      2      
iter:  17  09:52:41         -3.06  -153.343759    2      1      
iter:  18  09:52:41         -3.15  -153.343107    2      1      
iter:  19  09:52:42         -3.32  -153.340847    2      1      
iter:  20  09:52:42         -3.48  -153.338387    2      1      
iter:  21  09:52:43         -3.61  -153.337368    2      1      
iter:  22  09:52:44         -3.76  -153.337432    2      1      
iter:  23  09:52:44         -3.88  -153.338278    2      1      
iter:  24  09:52:45         -3.95  -153.339437    2      1      
iter:  25  09:52:45         -4.03  -153.339977    2      1      

Converged after 25 iterations.

Dipole moment: (0.347870, 0.072051, 0.079242) |e|*Ang

Energy contributions relative to reference atoms: (reference = -24663.074771)

Kinetic:       +158.616505
Potential:     -148.586184
External:        +0.000000
XC:            -166.094180
Entropy (-ST):   -0.390662
Local:           +2.919212
--------------------------
Free energy:   -153.535308
Extrapolated:  -153.339977

Fermi level: -4.28373

 Band  Eigenvalues  Occupancy
    0    -23.20620    2.00000
    1    -22.52011    2.00000
    2    -22.24352    2.00000
    3    -21.45730    2.00000
    4    -20.85708    2.00000
    5    -19.80398    2.00000
    6    -19.59854    2.00000
    7    -18.51051    2.00000
    8    -18.05008    2.00000
    9    -17.74672    2.00000
   10    -17.25219    2.00000
   11    -16.26384    2.00000
   12    -15.80317    2.00000
   13    -15.33824    2.00000
   14    -15.08355    2.00000
   15    -14.06531    2.00000
   16    -13.85443    2.00000
   17    -13.24761    2.00000
   18    -12.89380    2.00000
   19    -12.41711    2.00000
   20    -12.14628    2.00000
   21    -11.88616    2.00000
   22    -11.39392    2.00000
   23    -11.07670    2.00000
   24    -10.66313    2.00000
   25    -10.55014    2.00000
   26    -10.07408    2.00000
   27     -9.85267    2.00000
   28     -9.68789    2.00000
   29     -9.24496    2.00000
   30     -8.85231    2.00000
   31     -8.58749    2.00000
   32     -8.50156    2.00000
   33     -8.31927    2.00000
   34     -7.84661    2.00000
   35     -7.65080    2.00000
   36     -7.34992    2.00000
   37     -7.22115    2.00000
   38     -6.77549    2.00000
   39     -6.47957    2.00000
   40     -6.34193    2.00000
   41     -6.21014    2.00000
   42     -5.98752    2.00000
   43     -5.71883    2.00000
   44     -5.36948    1.99996
   45     -5.15142    1.99966
   46     -4.64020    1.94495
   47     -4.28788    1.02077
   48     -4.21730    0.67956
   49     -4.12712    0.34556
   50     -3.74516    0.00912
   51     -3.38963    0.00026
   52     -3.29834    0.00011
   53     -3.22090    0.00005
   54     -2.80419    0.00000
   55     -2.71700    0.00000
   56     -2.57605    0.00000
   57     -2.00851    0.00000
   58     -1.60632    0.00000
   59     -1.41656    0.00000
   60     -1.06827    0.00000
   61     -0.64433    0.00000
   62     -0.39947    0.00000
   63     -0.00121    0.00000
   64      0.66082    0.00000
   65      0.86298    0.00000
   66      1.30250    0.00000
   67      1.87777    0.00000
   68      2.12007    0.00000
   69      2.42423    0.00000
   70      2.56284    0.00000
   71      2.87214    0.00000
   72      3.95776    0.00000
   73      4.06730    0.00000
   74      4.96955    0.00000
   75      5.47256    0.00000
   76      5.62572    0.00000
   77      5.97341    0.00000
   78      6.80981    0.00000
   79      6.85973    0.00000
   80      7.08583    0.00000
   81      7.52961    0.00000
   82      8.04417    0.00000
   83      8.41149    0.00000
   84      8.43834    0.00000
   85      8.60003    0.00000
   86      8.80076    0.00000
   87      8.98890    0.00000
   88      9.01976    0.00000
   89      9.09467    0.00000
   90      9.27578    0.00000
   91      9.37926    0.00000
   92      9.53886    0.00000
   93      9.68064    0.00000
   94      9.76055    0.00000
   95      9.81167    0.00000
   96     10.06609    0.00000
   97     10.15482    0.00000


Forces in eV/Ang:
  0 C     3.19456   -4.63127   -0.16647
  1 C    -4.16280    3.88392    0.44591
  2 C    18.63594  -27.14537   -7.19744
  3 C   -14.02034   21.96759    6.62528
  4 C     2.03320    0.04619    0.39084
  5 C     6.27260    2.24868   -0.25206
  6 C    -6.36427    3.24585    4.07556
  7 C    -1.54549    1.18188   -0.12250
  8 C     4.92243   -2.87781   -0.69609
  9 C     4.99380    0.08738    4.66136
 10 C    -2.09276    1.21376    0.73561
 11 C    -1.84740    0.40215    0.39612
 12 C    -3.75898  -20.41650   -1.82702
 13 C    -0.73576   -1.52014    0.18189
 14 C     1.06925    1.37637    0.30033
 15 C   -12.90539   32.36837    5.98844
 16 C    -7.32630    4.42482    2.33514
 17 C     3.54087   17.02892    2.24169
 18 C    -2.72565   -1.45085    0.83523
 19 C    -3.43909   -4.06225   -3.49909
 20 C     6.39043  -25.44215   -4.63667
 21 C     4.20387   -3.00254   -4.69378
 22 C     3.15391    1.32017   -1.94926
 23 C     2.45836   -0.16277   -4.13248

System changes: positions 

Initializing position-dependent things.

Density initialized from wave functions
           .--------------------------------------.  
          /|                                      |  
         / |                                      |  
        /  |                                      |  
       /   |                                      |  
      /    |                                      |  
     /     |                                      |  
    /      |                                      |  
   /       |                                      |  
  /        |    C     C  C  C                     |  
 *         |        C         C  C                |  
 |         C C       C   C        C               |  
 |         .---C----CC------C--C---C--------------.  
 |        /    C     C   CC                      /   
 |       /       C     C                        /    
 |      /                                      /     
 |     /                                      /      
 |    /                                      /       
 |   /                                      /        
 |  /                                      /         
 | /                                      /          
 |/                                      /           
 *--------------------------------------*            

Positions:
   0 C     10.718557    6.708526    5.040528
   1 C     12.100465    6.477103    4.773851
   2 C     11.594044    8.303712    4.678969
   3 C     10.942698    9.186874    4.992326
   4 C      9.369769    4.132514    5.117023
   5 C      9.526198    5.546222    5.209175
   6 C      9.677121    9.183098    5.019749
   7 C      5.376445    8.714253    5.802737
   8 C      5.719104    3.341172    5.325652
   9 C      2.725803    7.859706    5.112620
  10 C      7.472233    9.966478    5.680046
  11 C      6.239825    9.843692    5.865592
  12 C      6.106116    6.358799    5.363101
  13 C      8.348531    3.396912    5.171463
  14 C      7.702990    7.588253    5.400738
  15 C      4.358821    5.112184    5.632560
  16 C      8.389807    5.677568    4.530600
  17 C      6.241280    7.550397    5.558435
  18 C      7.019945    3.873722    5.246208
  19 C      3.958219    8.667379    5.902853
  20 C      4.698552    4.042119    5.427630
  21 C      8.561836    9.233753    5.935808
  22 C      2.726603    6.137817    5.947850
  23 C      7.023578    5.339832    5.293669

Unit cell:
           periodic     x           y           z      points  spacing
  1. axis:    yes   16.000000    0.000000    0.000000    80     0.2000
  2. axis:    yes    0.000000   16.000000    0.000000    80     0.2000
  3. axis:    yes    0.000000    0.000000   10.000000    48     0.2083

Effective grid spacing dv^(1/3) = 0.2027

                     log10-error:    total        iterations:
           time      wfs    density  energy       fermi  poisson
iter:   1  09:52:47          +inf  -158.121291    4      5      
iter:   2  09:52:48         -1.94  -158.094284    3      2      
iter:   3  09:52:48         -2.03  -158.077336    3      2      
iter:   4  09:52:49         -2.10  -158.056963    3      2      
iter:   5  09:52:49         -2.26  -158.046986    3      2      
iter:   6  09:52:50         -2.48  -158.041996    2      2      
iter:   7  09:52:51         -2.67  -158.039751    2      2      
iter:   8  09:52:51         -2.80  -158.038729    2      2      
iter:   9  09:52:52         -3.01  -158.038109    2      1      
iter:  10  09:52:52         -3.12  -158.038224    2      1      
iter:  11  09:52:53         -3.27  -158.037500    2      1      
iter:  12  09:52:53         -3.35  -158.035135    2      1      
iter:  13  09:52:54         -3.58  -158.036247    2      1      
iter:  14  09:52:55         -3.73  -158.036063    2      1      
iter:  15  09:52:55         -4.02  -158.037582    2      1      

Converged after 15 iterations.

Dipole moment: (0.316602, 0.061805, 0.077000) |e|*Ang

Energy contributions relative to reference atoms: (reference = -24663.074771)

Kinetic:       +132.983187
Potential:     -130.899896
External:        +0.000000
XC:            -162.749919
Entropy (-ST):   -0.373324
Local:           +2.815707
--------------------------
Free energy:   -158.224245
Extrapolated:  -158.037582

Fermi level: -4.31024

 Band  Eigenvalues  Occupancy
    0    -23.12379    2.00000
    1    -22.39110    2.00000
    2    -22.02160    2.00000
    3    -21.37250    2.00000
    4    -20.78318    2.00000
    5    -19.75658    2.00000
    6    -19.57605    2.00000
    7    -18.59032    2.00000
    8    -18.04106    2.00000
    9    -17.72109    2.00000
   10    -17.28952    2.00000
   11    -16.21546    2.00000
   12    -15.78945    2.00000
   13    -15.38274    2.00000
   14    -15.03978    2.00000
   15    -14.08667    2.00000
   16    -13.89899    2.00000
   17    -13.25958    2.00000
   18    -12.94274    2.00000
   19    -12.46534    2.00000
   20    -12.17236    2.00000
   21    -11.92653    2.00000
   22    -11.36084    2.00000
   23    -11.03784    2.00000
   24    -10.55788    2.00000
   25    -10.48155    2.00000
   26     -9.97736    2.00000
   27     -9.82179    2.00000
   28     -9.56535    2.00000
   29     -9.12876    2.00000
   30     -8.81584    2.00000
   31     -8.59692    2.00000
   32     -8.48146    2.00000
   33     -8.23406    2.00000
   34     -7.78980    2.00000
   35     -7.64054    2.00000
   36     -7.30964    2.00000
   37     -7.19918    2.00000
   38     -6.82603    2.00000
   39     -6.48639    2.00000
   40     -6.34066    2.00000
   41     -6.23474    2.00000
   42     -6.01975    2.00000
   43     -5.73838    2.00000
   44     -5.35826    1.99994
   45     -5.24156    1.99982
   46     -4.71572    1.96591
   47     -4.32678    1.08252
   48     -4.22434    0.59508
   49     -4.15615    0.35281
   50     -3.68235    0.00374
   51     -3.32036    0.00010
   52     -3.25963    0.00005
   53     -3.18550    0.00003
   54     -2.79720    0.00000
   55     -2.66069    0.00000
   56     -2.52843    0.00000
   57     -1.99918    0.00000
   58     -1.63976    0.00000
   59     -1.42260    0.00000
   60     -1.03025    0.00000
   61     -0.61776    0.00000
   62     -0.30159    0.00000
   63      0.01570    0.00000
   64      0.50095    0.00000
   65      0.78507    0.00000
   66      1.20965    0.00000
   67      1.81593    0.00000
   68      1.96783    0.00000
   69      2.26038    0.00000
   70      2.47037    0.00000
   71      2.74678    0.00000
   72      4.00912    0.00000
   73      4.06388    0.00000
   74      4.77589    0.00000
   75      5.54944    0.00000
   76      5.67963    0.00000
   77      5.99768    0.00000
   78      6.80103    0.00000
   79      6.88234    0.00000
   80      7.10917    0.00000
   81      7.59448    0.00000
   82      8.07246    0.00000
   83      8.42166    0.00000
   84      8.45962    0.00000
   85      8.62925    0.00000
   86      8.82539    0.00000
   87      9.00146    0.00000
   88      9.06108    0.00000
   89      9.09760    0.00000
   90      9.27000    0.00000
   91      9.39710    0.00000
   92      9.55450    0.00000
   93      9.69801    0.00000
   94      9.74987    0.00000
   95      9.83286    0.00000
   96     10.11919    0.00000
   97     10.14371    0.00000


Forces in eV/Ang:
  0 C     2.74528   -4.33063   -0.16042
  1 C    -3.67702    3.83217    0.37279
  2 C    11.35531  -18.16984   -3.89814
  3 C    -6.86809   12.84517    3.26654
  4 C     1.82215    0.01271    0.42711
  5 C     5.78921    2.23325   -0.62496
  6 C    -5.80139    3.02009    3.90315
  7 C    -1.57295    1.19705   -0.12996
  8 C     5.07169   -3.06467   -0.64534
  9 C     5.07107    0.23133    4.70867
 10 C    -1.82740    1.10121    0.79369
 11 C    -1.76368    0.52199    0.38703
 12 C    -4.06614  -15.29139   -0.96155
 13 C    -0.59579   -1.30516    0.17904
 14 C     0.93308    1.53397    0.34631
 15 C    -8.83830   20.87524    3.72799
 16 C    -6.61833    4.43051    2.74200
 17 C     3.33373   11.86660    1.37626
 18 C    -2.11331   -1.42177    0.70331
 19 C    -3.50301   -4.16756   -3.53700
 20 C     1.82254  -13.52809   -2.35305
 21 C     3.23221   -2.92078   -4.55025
 22 C     3.36341    1.12682   -1.99494
 23 C     2.68256   -0.55477   -4.10538

System changes: positions 

Initializing position-dependent things.

Density initialized from wave functions
           .--------------------------------------.  
          /|                                      |  
         / |                                      |  
        /  |                                      |  
       /   |                                      |  
      /    |                                      |  
     /     |                                      |  
    /      |                                      |  
   /       |                                      |  
  /        |          C  C  C                     |  
 *         |    C   C         C  C                |  
 |         |CC       C   C        C               |  
 |         .---C----CC------C--C---C--------------.  
 |        /    C     C   CC                      /   
 |       /       C     C                        /    
 |      /                                      /     
 |     /                                      /      
 |    /                                      /       
 |   /                                      /        
 |  /                                      /         
 | /                                      /          
 |/                                      /           
 *--------------------------------------*            

Positions:
   0 C     10.727384    6.692502    5.039908
   1 C     12.088046    6.492385    4.774987
   2 C     11.602665    8.276162    4.680124
   3 C     10.951623    9.192066    4.988302
   4 C      9.376077    4.132394    5.118942
   5 C      9.547199    5.555204    5.204721
   6 C      9.656479    9.194190    5.034698
   7 C      5.369922    8.719188    5.802172
   8 C      5.740449    3.327777    5.323295
   9 C      2.746775    7.861385    5.131968
  10 C      7.466184    9.970367    5.683565
  11 C      6.233100    9.846426    5.867115
  12 C      6.088038    6.323121    5.363651
  13 C      8.346834    3.392722    5.172175
  14 C      7.706075    7.595287    5.402379
  15 C      4.343882    5.137760    5.636058
  16 C      8.366597    5.695573    4.543818
  17 C      6.253741    7.571989    5.559568
  18 C      7.014520    3.868103    5.248383
  19 C      3.943677    8.649929    5.888307
  20 C      4.682450    4.048516    5.429830
  21 C      8.569952    9.222323    5.918085
  22 C      2.741327    6.141394    5.939521
  23 C      7.035615    5.335565    5.277152

Unit cell:
           periodic     x           y           z      points  spacing
  1. axis:    yes   16.000000    0.000000    0.000000    80     0.2000
  2. axis:    yes    0.000000   16.000000    0.000000    80     0.2000
  3. axis:    yes    0.000000    0.000000   10.000000    48     0.2083

Effective grid spacing dv^(1/3) = 0.2027

                     log10-error:    total        iterations:
           time      wfs    density  energy       fermi  poisson
iter:   1  09:52:57          +inf  -161.785935    5      5      
iter:   2  09:52:58         -1.61  -161.563355    4      2      
iter:   3  09:52:58         -1.83  -161.486023    4      2      
iter:   4  09:52:59         -2.00  -161.454918    3      2      
iter:   5  09:52:59         -2.15  -161.442740    3      2      
iter:   6  09:53:00         -2.29  -161.438089    2      2      
iter:   7  09:53:00         -2.46  -161.437190    3      2      
iter:   8  09:53:01         -2.53  -161.435893    3      2      
iter:   9  09:53:02         -2.85  -161.435340    2      2      
iter:  10  09:53:02         -3.05  -161.434705    2      1      
iter:  11  09:53:03         -3.19  -161.434418    2      1      
iter:  12  09:53:03         -3.35  -161.434069    2      1      
iter:  13  09:53:04         -3.52  -161.434458    2      1      
iter:  14  09:53:04         -3.66  -161.434649    2      1      
iter:  15  09:53:05         -3.84  -161.434847    2      1      
iter:  16  09:53:06         -3.96  -161.434809    2      1      
iter:  17  09:53:06         -4.15  -161.434939    2      1      

Converged after 17 iterations.

Dipole moment: (0.304018, 0.097693, 0.083170) |e|*Ang

Energy contributions relative to reference atoms: (reference = -24663.074771)

Kinetic:       +114.008492
Potential:     -117.341681
External:        +0.000000
XC:            -160.777616
Entropy (-ST):   -0.365587
Local:           +2.858659
--------------------------
Free energy:   -161.617733
Extrapolated:  -161.434939

Fermi level: -4.29787

 Band  Eigenvalues  Occupancy
    0    -22.95282    2.00000
    1    -22.16306    2.00000
    2    -21.83035    2.00000
    3    -21.21624    2.00000
    4    -20.66168    2.00000
    5    -19.80775    2.00000
    6    -19.53915    2.00000
    7    -18.74943    2.00000
    8    -17.98690    2.00000
    9    -17.83341    2.00000
   10    -17.30857    2.00000
   11    -16.24745    2.00000
   12    -15.74780    2.00000
   13    -15.40461    2.00000
   14    -14.95058    2.00000
   15    -14.06365    2.00000
   16    -13.94117    2.00000
   17    -13.28507    2.00000
   18    -13.02925    2.00000
   19    -12.59610    2.00000
   20    -12.12836    2.00000
   21    -11.94708    2.00000
   22    -11.25547    2.00000
   23    -11.08212    2.00000
   24    -10.47475    2.00000
   25    -10.41055    2.00000
   26     -9.92193    2.00000
   27     -9.84517    2.00000
   28     -9.45795    2.00000
   29     -9.05856    2.00000
   30     -8.87972    2.00000
   31     -8.63008    2.00000
   32     -8.52251    2.00000
   33     -8.18880    2.00000
   34     -7.73842    2.00000
   35     -7.62847    2.00000
   36     -7.29457    2.00000
   37     -7.15569    2.00000
   38     -6.88317    2.00000
   39     -6.49680    2.00000
   40     -6.33574    2.00000
   41     -6.26605    2.00000
   42     -6.06261    2.00000
   43     -5.82538    2.00000
   44     -5.44509    1.99998
   45     -5.29850    1.99991
   46     -4.78605    1.98495
   47     -4.31026    1.06187
   48     -4.21273    0.59826
   49     -4.14283    0.35005
   50     -3.69509    0.00481
   51     -3.29969    0.00009
   52     -3.25953    0.00006
   53     -3.13613    0.00002
   54     -2.75782    0.00000
   55     -2.70472    0.00000
   56     -2.41602    0.00000
   57     -1.97437    0.00000
   58     -1.57830    0.00000
   59     -1.40881    0.00000
   60     -0.97728    0.00000
   61     -0.51984    0.00000
   62     -0.14466    0.00000
   63      0.08292    0.00000
   64      0.51000    0.00000
   65      0.76022    0.00000
   66      1.25388    0.00000
   67      1.81786    0.00000
   68      1.94702    0.00000
   69      2.32479    0.00000
   70      2.53207    0.00000
   71      2.80307    0.00000
   72      4.05836    0.00000
   73      4.35833    0.00000
   74      4.79522    0.00000
   75      5.62037    0.00000
   76      5.78257    0.00000
   77      6.10372    0.00000
   78      6.86959    0.00000
   79      6.93509    0.00000
   80      7.22636    0.00000
   81      7.62302    0.00000
   82      8.14263    0.00000
   83      8.49841    0.00000
   84      8.52217    0.00000
   85      8.69380    0.00000
   86      8.87859    0.00000
   87      8.99132    0.00000
   88      9.12711    0.00000
   89      9.13993    0.00000
   90      9.28320    0.00000
   91      9.41288    0.00000
   92      9.58418    0.00000
   93      9.74090    0.00000
   94      9.77153    0.00000
   95      9.84638    0.00000
   96     10.09614    0.00000
   97     10.17114    0.00000


Forces in eV/Ang:
  0 C     1.86295   -4.16544   -0.08012
  1 C    -2.80040    3.81517    0.22025
  2 C     8.95768  -15.62998   -2.79677
  3 C    -6.76768   10.27908    2.29879
  4 C     1.32478   -0.06568    0.47917
  5 C     4.19785    1.92786   -1.37581
  6 C    -2.49873    2.69736    3.13342
  7 C    -1.53228    1.02573   -0.18358
  8 C     1.43569   -1.30614   -0.30730
  9 C     5.36522    0.35617    4.74603
 10 C    -1.37633    0.83116    0.99754
 11 C    -1.52901    0.56230    0.39305
 12 C    -3.81057   -9.93547   -0.14323
 13 C     0.10991   -0.81681    0.14953
 14 C     0.83991    1.36971    0.27572
 15 C    -7.55992   18.45024    3.03906
 16 C    -4.95584    4.52206    3.44672
 17 C     2.70370    6.57378    0.51429
 18 C    -1.25821   -1.32021    0.57015
 19 C    -3.49864   -4.32768   -3.57727
 20 C     3.79624  -13.00506   -2.06185
 21 C     1.51427   -2.43366   -4.04397
 22 C     3.26884    1.05958   -1.87700
 23 C     2.20453   -0.44855   -3.78872

System changes: positions 

Initializing position-dependent things.

Density initialized from wave functions
           .--------------------------------------.  
          /|                                      |  
         / |                                      |  
        /  |                                      |  
       /   |                                      |  
      /    |                                      |  
     /     |                                      |  
    /      |                                      |  
   /       |                                      |  
  /        |          C  C  C                     |  
 *         |    C   C         C  C                |  
 |         |CC       C   C        C               |  
 |         .---C----C-C-----C--C---C--------------.  
 |        /    C     C   CC                      /   
 |       /       C     C                        /    
 |      /                                      /     
 |     /                                      /      
 |    /                                      /       
 |   /                                      /        
 |  /                                      /         
 | /                                      /          
 |/                                      /           
 *--------------------------------------*            

Positions:
   0 C     10.733075    6.671893    5.039689
   1 C     12.077453    6.512761    4.775443
   2 C     11.606890    8.245125    4.685091
   3 C     10.953346    9.193236    4.980622
   4 C      9.380999    4.131680    5.121854
   5 C      9.563753    5.564880    5.193554
   6 C      9.653471    9.206877    5.049015
   7 C      5.361558    8.724441    5.801014
   8 C      5.740735    3.323709    5.322670
   9 C      2.776958    7.864370    5.158046
  10 C      7.461166    9.973657    5.689751
  11 C      6.225790    9.850208    5.869212
  12 C      6.066314    6.308831    5.369364
  13 C      8.349788    3.390555    5.172903
  14 C      7.709691    7.603183    5.403959
  15 C      4.327520    5.170908    5.638895
  16 C      8.347294    5.720338    4.566293
  17 C      6.265860    7.567991    5.555767
  18 C      7.012918    3.861330    5.250467
  19 C      3.924371    8.625529    5.868611
  20 C      4.683147    4.042808    5.431508
  21 C      8.569054    9.210672    5.898074
  22 C      2.759959    6.145955    5.929366
  23 C      7.047678    5.331281    5.257471

Unit cell:
           periodic     x           y           z      points  spacing
  1. axis:    yes   16.000000    0.000000    0.000000    80     0.2000
  2. axis:    yes    0.000000   16.000000    0.000000    80     0.2000
  3. axis:    yes    0.000000    0.000000   10.000000    48     0.2083

Effective grid spacing dv^(1/3) = 0.2027

                     log10-error:    total        iterations:
           time      wfs    density  energy       fermi  poisson
iter:   1  09:53:08          +inf  -164.747023    5      5      
iter:   2  09:53:09         -1.64  -164.524944    3      2      
iter:   3  09:53:09         -1.86  -164.441856    3      2      
iter:   4  09:53:10         -2.03  -164.406699    3      2      
iter:   5  09:53:10         -2.20  -164.396405    3      2      
iter:   6  09:53:11         -2.35  -164.390858    3      2      
iter:   7  09:53:11         -2.53  -164.391642    3      2      
iter:   8  09:53:12         -2.60  -164.389874    2      2      
iter:   9  09:53:13         -2.78  -164.389598    2      2      
iter:  10  09:53:13         -3.05  -164.389718    2      2      
iter:  11  09:53:14         -3.26  -164.389273    2      1      
iter:  12  09:53:14         -3.34  -164.388423    2      1      
iter:  13  09:53:15         -3.60  -164.389735    2      1      
iter:  14  09:53:15         -3.65  -164.389549    2      1      
iter:  15  09:53:16         -3.79  -164.389309    2      1      
iter:  16  09:53:17         -3.99  -164.389886    2      1      
iter:  17  09:53:17         -4.08  -164.389980    2      1      

Converged after 17 iterations.

Dipole moment: (0.314244, 0.123271, 0.080892) |e|*Ang

Energy contributions relative to reference atoms: (reference = -24663.074771)

Kinetic:       +101.824312
Potential:     -108.707145
External:        +0.000000
XC:            -160.166941
Entropy (-ST):   -0.347401
Local:           +2.833496
--------------------------
Free energy:   -164.563680
Extrapolated:  -164.389980

Fermi level: -4.27155

 Band  Eigenvalues  Occupancy
    0    -22.84304    2.00000
    1    -22.03784    2.00000
    2    -21.74130    2.00000
    3    -21.09642    2.00000
    4    -20.61038    2.00000
    5    -19.83344    2.00000
    6    -19.46515    2.00000
    7    -18.87518    2.00000
    8    -17.96584    2.00000
    9    -17.90337    2.00000
   10    -17.35231    2.00000
   11    -16.36263    2.00000
   12    -15.74460    2.00000
   13    -15.44462    2.00000
   14    -15.01437    2.00000
   15    -14.04652    2.00000
   16    -13.99725    2.00000
   17    -13.33832    2.00000
   18    -13.08974    2.00000
   19    -12.73776    2.00000
   20    -12.11587    2.00000
   21    -11.95446    2.00000
   22    -11.28835    2.00000
   23    -11.01644    2.00000
   24    -10.43150    2.00000
   25    -10.36712    2.00000
   26     -9.95344    2.00000
   27     -9.84528    2.00000
   28     -9.41350    2.00000
   29     -9.09857    2.00000
   30     -8.95876    2.00000
   31     -8.66402    2.00000
   32     -8.56690    2.00000
   33     -8.20092    2.00000
   34     -7.73073    2.00000
   35     -7.60563    2.00000
   36     -7.28670    2.00000
   37     -7.12848    2.00000
   38     -6.91839    2.00000
   39     -6.53922    2.00000
   40     -6.31232    2.00000
   41     -6.28800    2.00000
   42     -6.10437    2.00000
   43     -5.92422    2.00000
   44     -5.51623    1.99999
   45     -5.34254    1.99996
   46     -4.82216    1.99191
   47     -4.29528    1.11807
   48     -4.19158    0.62015
   49     -4.08439    0.26671
   50     -3.62260    0.00303
   51     -3.30028    0.00012
   52     -3.19325    0.00004
   53     -3.03773    0.00001
   54     -2.74542    0.00000
   55     -2.59283    0.00000
   56     -2.30130    0.00000
   57     -1.97384    0.00000
   58     -1.44778    0.00000
   59     -1.39657    0.00000
   60     -0.91344    0.00000
   61     -0.40867    0.00000
   62      0.02977    0.00000
   63      0.18440    0.00000
   64      0.62000    0.00000
   65      0.85001    0.00000
   66      1.34462    0.00000
   67      1.80034    0.00000
   68      2.02717    0.00000
   69      2.46522    0.00000
   70      2.63006    0.00000
   71      2.95604    0.00000
   72      4.08222    0.00000
   73      4.57821    0.00000
   74      5.14621    0.00000
   75      5.60543    0.00000
   76      5.86379    0.00000
   77      6.19274    0.00000
   78      6.85418    0.00000
   79      6.96257    0.00000
   80      7.40157    0.00000
   81      7.55600    0.00000
   82      8.22565    0.00000
   83      8.57429    0.00000
   84      8.60401    0.00000
   85      8.75497    0.00000
   86      8.94913    0.00000
   87      9.01038    0.00000
   88      9.14043    0.00000
   89      9.17262    0.00000
   90      9.28255    0.00000
   91      9.43934    0.00000
   92      9.59901    0.00000
   93      9.75020    0.00000
   94      9.80895    0.00000
   95      9.88361    0.00000
   96     10.09015    0.00000
   97     10.17961    0.00000


Forces in eV/Ang:
  0 C     1.02246   -3.94673   -0.00407
  1 C    -1.99273    3.78023    0.06475
  2 C     7.06467  -13.54359   -1.93012
  3 C    -5.64797    8.11595    1.52426
  4 C     1.20654    0.09325    0.48612
  5 C     3.30157    1.49443   -1.69727
  6 C    -1.08459    2.46608    2.43909
  7 C    -1.35478    0.70521   -0.27774
  8 C     0.85807   -1.03198   -0.19840
  9 C     5.44210    0.39879    4.70067
 10 C    -1.24260    0.71568    1.01833
 11 C    -1.45813    0.38918    0.40555
 12 C    -3.63445   -9.32889   -0.10673
 13 C     0.27432   -0.61606    0.15185
 14 C     1.08689    1.25670    0.18073
 15 C    -5.79903   14.18665    2.04678
 16 C    -3.95954    4.77315    3.83147
 17 C     2.11499    6.06061    0.50829
 18 C    -0.75519   -1.07743    0.40514
 19 C    -3.13675   -4.34590   -3.61489
 20 C     2.57486   -8.73129   -1.16633
 21 C     0.39215   -2.38787   -3.56731
 22 C     3.24746    0.83227   -1.82843
 23 C     1.36421   -0.31762   -3.37416

System changes: positions 

Initializing position-dependent things.

Density initialized from wave functions
           .--------------------------------------.  
          /|                                      |  
         / |                                      |  
        /  |                                      |  
       /   |                                      |  
      /    |                                      |  
     /     |                                      |  
    /      |                                      |  
   /       |                                      |  
  /        |          C  C  C                     |  
 *         |    C   C         C  C                |  
 |         |CC       C   C        C               |  
 |         .---C----C-C-----C--C---C--------------.  
 |        /    C     C   CC                      /   
 |       /       C     C                        /    
 |      /                                      /     
 |     /                                      /      
 |    /                                      /       
 |   /                                      /        
 |  /                                      /         
 | /                                      /          
 |/                                      /           
 *--------------------------------------*            

Positions:
   0 C     10.733131    6.652424    5.040043
   1 C     12.072156    6.532977    4.774832
   2 C     11.610091    8.213499    4.690594
   3 C     10.951118    9.194617    4.973201
   4 C      9.385588    4.132369    5.124733
   5 C      9.574636    5.571189    5.180787
   6 C      9.659412    9.218252    5.058343
   7 C      5.354671    8.727126    5.799122
   8 C      5.737791    3.321365    5.322681
   9 C      2.807519    7.867384    5.183677
  10 C      7.456533    9.976342    5.695908
  11 C      6.218785    9.852334    5.871428
  12 C      6.046448    6.287495    5.373398
  13 C      8.353493    3.389399    5.173671
  14 C      7.715632    7.609952    5.404712
  15 C      4.317516    5.191337    5.638070
  16 C      8.334033    5.747135    4.590859
  17 C      6.273851    7.571824    5.553921
  18 C      7.013902    3.856438    5.251506
  19 C      3.908127    8.601224    5.848674
  20 C      4.681216    4.050096    5.436214
  21 C      8.561569    9.198996    5.881441
  22 C      2.778099    6.149042    5.919624
  23 C      7.052683    5.328732    5.240965

Unit cell:
           periodic     x           y           z      points  spacing
  1. axis:    yes   16.000000    0.000000    0.000000    80     0.2000
  2. axis:    yes    0.000000   16.000000    0.000000    80     0.2000
  3. axis:    yes    0.000000    0.000000   10.000000    48     0.2083

Effective grid spacing dv^(1/3) = 0.2027

                     log10-error:    total        iterations:
           time      wfs    density  energy       fermi  poisson
iter:   1  09:53:19          +inf  -166.993936    4      5      
iter:   2  09:53:20         -1.71  -166.824728    3      2      
iter:   3  09:53:20         -1.90  -166.740223    3      2      
iter:   4  09:53:21         -2.10  -166.713618    3      2      
iter:   5  09:53:21         -2.27  -166.705738    3      2      
iter:   6  09:53:22         -2.42  -166.701059    3      2      
iter:   7  09:53:23         -2.61  -166.702058    2      2      
iter:   8  09:53:23         -2.67  -166.700567    2      2      
iter:   9  09:53:24         -2.91  -166.700685    2      2      
iter:  10  09:53:24         -3.16  -166.698594    2      1      
iter:  11  09:53:25         -3.39  -166.700007    2      1      
iter:  12  09:53:25         -3.47  -166.700622    2      1      
iter:  13  09:53:26         -3.65  -166.700572    2      1      
iter:  14  09:53:26         -3.78  -166.701378    2      1      
iter:  15  09:53:27         -3.83  -166.701136    2      1      
iter:  16  09:53:28         -3.90  -166.700576    2      1      
iter:  17  09:53:28         -4.27  -166.701104    2      1      

Converged after 17 iterations.

Dipole moment: (0.323944, 0.154217, 0.074259) |e|*Ang

Energy contributions relative to reference atoms: (reference = -24663.074771)

Kinetic:        +93.898840
Potential:     -103.135453
External:        +0.000000
XC:            -160.161582
Entropy (-ST):   -0.324967
Local:           +2.859575
--------------------------
Free energy:   -166.863587
Extrapolated:  -166.701104

Fermi level: -4.25457

 Band  Eigenvalues  Occupancy
    0    -22.74628    2.00000
    1    -21.93006    2.00000
    2    -21.68096    2.00000
    3    -21.02733    2.00000
    4    -20.53510    2.00000
    5    -19.87395    2.00000
    6    -19.43991    2.00000
    7    -18.96786    2.00000
    8    -17.98790    2.00000
    9    -17.92402    2.00000
   10    -17.40790    2.00000
   11    -16.47925    2.00000
   12    -15.76309    2.00000
   13    -15.48255    2.00000
   14    -15.04598    2.00000
   15    -14.10776    2.00000
   16    -13.98571    2.00000
   17    -13.38651    2.00000
   18    -13.12597    2.00000
   19    -12.83284    2.00000
   20    -12.11160    2.00000
   21    -11.94578    2.00000
   22    -11.36000    2.00000
   23    -10.91388    2.00000
   24    -10.39719    2.00000
   25    -10.32722    2.00000
   26     -9.97098    2.00000
   27     -9.80741    2.00000
   28     -9.39012    2.00000
   29     -9.19452    2.00000
   30     -9.04238    2.00000
   31     -8.69736    2.00000
   32     -8.63720    2.00000
   33     -8.19665    2.00000
   34     -7.73467    2.00000
   35     -7.60638    2.00000
   36     -7.29981    2.00000
   37     -7.12876    2.00000
   38     -6.93702    2.00000
   39     -6.57433    2.00000
   40     -6.35821    2.00000
   41     -6.25946    2.00000
   42     -6.12673    2.00000
   43     -5.99733    2.00000
   44     -5.56743    2.00000
   45     -5.36038    1.99997
   46     -4.83849    1.99419
   47     -4.29378    1.19362
   48     -4.17809    0.63524
   49     -4.01996    0.17476
   50     -3.56796    0.00208
   51     -3.27347    0.00011
   52     -3.13541    0.00003
   53     -2.93387    0.00000
   54     -2.74204    0.00000
   55     -2.48897    0.00000
   56     -2.17146    0.00000
   57     -1.97356    0.00000
   58     -1.37199    0.00000
   59     -1.29470    0.00000
   60     -0.83027    0.00000
   61     -0.31636    0.00000
   62      0.16248    0.00000
   63      0.28892    0.00000
   64      0.69225    0.00000
   65      0.99242    0.00000
   66      1.49979    0.00000
   67      1.83790    0.00000
   68      2.15453    0.00000
   69      2.62591    0.00000
   70      2.69208    0.00000
   71      3.16004    0.00000
   72      4.10797    0.00000
   73      4.74726    0.00000
   74      5.42658    0.00000
   75      5.67382    0.00000
   76      5.89784    0.00000
   77      6.20990    0.00000
   78      6.84334    0.00000
   79      7.02439    0.00000
   80      7.48181    0.00000
   81      7.61408    0.00000
   82      8.28419    0.00000
   83      8.60647    0.00000
   84      8.67143    0.00000
   85      8.86840    0.00000
   86      9.02086    0.00000
   87      9.07623    0.00000
   88      9.18079    0.00000
   89      9.19806    0.00000
   90      9.27129    0.00000
   91      9.47128    0.00000
   92      9.62150    0.00000
   93      9.76115    0.00000
   94      9.85184    0.00000
   95      9.92450    0.00000
   96     10.08672    0.00000
   97     10.19607    0.00000


Forces in eV/Ang:
  0 C     0.55129   -3.68211   -0.04888
  1 C    -1.51415    3.75711    0.00303
  2 C     5.40929  -11.61535   -1.19783
  3 C    -4.00001    6.09323    0.87247
  4 C     1.05753    0.06127    0.49327
  5 C     2.82180    1.22299   -1.77004
  6 C    -0.86909    2.29872    2.12042
  7 C    -1.12963    0.52154   -0.33761
  8 C     0.46395   -0.68738   -0.09813
  9 C     5.24152    0.14249    4.48237
 10 C    -1.22070    0.69005    0.99397
 11 C    -1.43489    0.28461    0.43342
 12 C    -3.43083   -7.54483    0.06662
 13 C     0.43622   -0.44300    0.13588
 14 C     1.09380    1.24269    0.13623
 15 C    -5.04563   13.16489    1.64341
 16 C    -3.40527    5.07771    3.94616
 17 C     1.65937    4.47456    0.28627
 18 C    -0.66509   -0.97205    0.26922
 19 C    -2.54796   -4.07316   -3.40978
 20 C     2.61660   -7.86179   -0.94046
 21 C    -0.07536   -2.50730   -3.39908
 22 C     3.07244    0.72210   -1.75588
 23 C     0.84162   -0.34535   -2.94207

System changes: positions 

Initializing position-dependent things.

Density initialized from wave functions
           .--------------------------------------.  
          /|                                      |  
         / |                                      |  
        /  |                                      |  
       /   |                                      |  
      /    |                                      |  
     /     |                                      |  
    /      |                                      |  
   /       |                                      |  
  /        |          C  C  C                     |  
 *         |    C  C          C  C                |  
 |         |CC       C   C        C               |  
 |         .---C----C-C-----C--C---C--------------.  
 |        /    C     C   CC                      /   
 |       /       C     C                        /    
 |      /                                      /     
 |     /                                      /      
 |    /                                      /       
 |   /                                      /        
 |  /                                      /         
 | /                                      /          
 |/                                      /           
 *--------------------------------------*            

Positions:
   0 C     10.730506    6.634783    5.039844
   1 C     12.069561    6.553183    4.773941
   2 C     11.608002    8.187740    4.698348
   3 C     10.957284    9.189237    4.964143
   4 C      9.389630    4.132826    5.127600
   5 C      9.583732    5.575503    5.168621
   6 C      9.662415    9.228796    5.066049
   7 C      5.349789    8.728395    5.796756
   8 C      5.735535    3.320236    5.323148
   9 C      2.835916    7.867683    5.207325
  10 C      7.451238    9.979274    5.701565
  11 C      6.211570    9.853384    5.873918
  12 C      6.028304    6.271488    5.377293
  13 C      8.357716    3.389016    5.174330
  14 C      7.721825    7.616723    5.405124
  15 C      4.308604    5.217453    5.636722
  16 C      8.322919    5.776786    4.615299
  17 C      6.278736    7.572020    5.551805
  18 C      7.013959    3.852277    5.251606
  19 C      3.897291    8.579653    5.830655
  20 C      4.682025    4.052316    5.440273
  21 C      8.552990    9.185432    5.865380
  22 C      2.794618    6.151449    5.910392
  23 C      7.053433    5.326095    5.227897

Unit cell:
           periodic     x           y           z      points  spacing
  1. axis:    yes   16.000000    0.000000    0.000000    80     0.2000
  2. axis:    yes    0.000000   16.000000    0.000000    80     0.2000
  3. axis:    yes    0.000000    0.000000   10.000000    48     0.2083

Effective grid spacing dv^(1/3) = 0.2027

                     log10-error:    total        iterations:
           time      wfs    density  energy       fermi  poisson
iter:   1  09:53:30          +inf  -168.846392    4      5      
iter:   2  09:53:31         -1.77  -168.718096    3      2      
iter:   3  09:53:31         -1.96  -168.651995    3      2      
iter:   4  09:53:32         -2.16  -168.625136    3      2      
iter:   5  09:53:32         -2.35  -168.619985    3      2      
iter:   6  09:53:33         -2.52  -168.617894    3      2      
iter:   7  09:53:34         -2.64  -168.617071    3      2      
iter:   8  09:53:34         -2.76  -168.612824    2      1      
iter:   9  09:53:35         -2.85  -168.616131    2      2      
iter:  10  09:53:35         -3.25  -168.617744    2      1      
iter:  11  09:53:36         -3.31  -168.614079    2      1      
iter:  12  09:53:36         -3.53  -168.616425    2      1      
iter:  13  09:53:37         -3.71  -168.617258    2      1      
iter:  14  09:53:38         -3.79  -168.616434    2      1      
iter:  15  09:53:38         -3.98  -168.616971    2      1      
iter:  16  09:53:39         -4.11  -168.617241    2      1      

Converged after 16 iterations.

Dipole moment: (0.364202, 0.187806, 0.064135) |e|*Ang

Energy contributions relative to reference atoms: (reference = -24663.074771)

Kinetic:        +88.130417
Potential:      -99.092279
External:        +0.000000
XC:            -160.369126
Entropy (-ST):   -0.306681
Local:           +2.867087
--------------------------
Free energy:   -168.770581
Extrapolated:  -168.617241

Fermi level: -4.24216

 Band  Eigenvalues  Occupancy
    0    -22.65402    2.00000
    1    -21.86371    2.00000
    2    -21.65807    2.00000
    3    -20.95754    2.00000
    4    -20.48860    2.00000
    5    -19.90514    2.00000
    6    -19.41587    2.00000
    7    -19.00674    2.00000
    8    -18.09612    2.00000
    9    -17.89095    2.00000
   10    -17.44989    2.00000
   11    -16.56020    2.00000
   12    -15.78090    2.00000
   13    -15.51865    2.00000
   14    -15.08530    2.00000
   15    -14.17944    2.00000
   16    -13.96541    2.00000
   17    -13.42612    2.00000
   18    -13.15501    2.00000
   19    -12.88753    2.00000
   20    -12.11274    2.00000
   21    -11.93675    2.00000
   22    -11.42239    2.00000
   23    -10.83324    2.00000
   24    -10.38168    2.00000
   25    -10.30628    2.00000
   26     -9.99020    2.00000
   27     -9.78003    2.00000
   28     -9.39945    2.00000
   29     -9.27177    2.00000
   30     -9.14671    2.00000
   31     -8.73626    2.00000
   32     -8.64125    2.00000
   33     -8.20931    2.00000
   34     -7.74413    2.00000
   35     -7.63192    2.00000
   36     -7.29501    2.00000
   37     -7.14509    2.00000
   38     -6.94192    2.00000
   39     -6.59940    2.00000
   40     -6.41247    2.00000
   41     -6.22725    2.00000
   42     -6.14149    2.00000
   43     -6.03257    2.00000
   44     -5.62411    2.00000
   45     -5.37790    1.99998
   46     -4.84634    1.99526
   47     -4.28823    1.22634
   48     -4.17425    0.67289
   49     -3.95201    0.10416
   50     -3.50377    0.00124
   51     -3.26983    0.00012
   52     -3.09054    0.00002
   53     -2.82765    0.00000
   54     -2.72027    0.00000
   55     -2.38632    0.00000
   56     -2.08759    0.00000
   57     -1.96914    0.00000
   58     -1.34171    0.00000
   59     -1.12708    0.00000
   60     -0.72225    0.00000
   61     -0.24802    0.00000
   62      0.24933    0.00000
   63      0.39475    0.00000
   64      0.74946    0.00000
   65      1.16518    0.00000
   66      1.68915    0.00000
   67      1.87040    0.00000
   68      2.35031    0.00000
   69      2.70920    0.00000
   70      2.85080    0.00000
   71      3.38990    0.00000
   72      4.11339    0.00000
   73      4.89567    0.00000
   74      5.51009    0.00000
   75      5.78662    0.00000
   76      5.92450    0.00000
   77      6.20226    0.00000
   78      6.81998    0.00000
   79      7.07469    0.00000
   80      7.44181    0.00000
   81      7.73636    0.00000
   82      8.31115    0.00000
   83      8.57710    0.00000
   84      8.71965    0.00000
   85      8.96247    0.00000
   86      9.05799    0.00000
   87      9.16210    0.00000
   88      9.23235    0.00000
   89      9.24073    0.00000
   90      9.30898    0.00000
   91      9.51173    0.00000
   92      9.63683    0.00000
   93      9.76684    0.00000
   94      9.88630    0.00000
   95      9.97611    0.00000
   96     10.09582    0.00000
   97     10.21579    0.00000


Forces in eV/Ang:
  0 C     0.48406   -3.52458   -0.06409
  1 C    -1.37910    3.73863   -0.01974
  2 C     4.78929  -11.03640   -0.92885
  3 C    -3.92980    5.59656    0.75606
  4 C     0.98091    0.06892    0.48777
  5 C     2.30190    0.96096   -1.78885
  6 C    -0.17777    2.11128    1.77031
  7 C    -0.98973    0.31832   -0.37235
  8 C     0.21868   -0.50861   -0.02919
  9 C     4.60010   -0.42046    4.04860
 10 C    -1.17672    0.63583    0.99179
 11 C    -1.33768    0.21153    0.43744
 12 C    -3.34477   -6.53152    0.11324
 13 C     0.46113   -0.31315    0.12128
 14 C     1.02479    1.13738    0.07930
 15 C    -4.02758   11.30180    1.13425
 16 C    -3.01694    5.29510    4.00231
 17 C     1.40224    3.61984    0.16760
 18 C    -0.42975   -0.82263    0.14982
 19 C    -1.64470   -3.50583   -2.94582
 20 C     2.09068   -6.06865   -0.56293
 21 C    -0.45335   -2.56614   -3.26287
 22 C     2.93789    0.62554   -1.71283
 23 C     0.50324   -0.36078   -2.59695

System changes: positions 

Initializing position-dependent things.

Density initialized from wave functions
           .--------------------------------------.  
          /|                                      |  
         / |                                      |  
        /  |                                      |  
       /   |                                      |  
      /    |                                      |  
     /     |                                      |  
    /      |                                      |  
   /       |                                      |  
  /        |          C  C  C                     |  
 *         |    C  C          C  C                |  
 |         |CC       C   C        C               |  
 |         .---C----C-C-----C--C---C--------------.  
 |        /    C     C   CC                      /   
 |       /       C     C                        /    
 |      /                                      /     
 |     /                                      /      
 |    /                                      /       
 |   /                                      /        
 |  /                                      /         
 | /                                      /          
 |/                                      /           
 *--------------------------------------*            

Positions:
   0 C     10.729243    6.618260    5.039383
   1 C     12.066357    6.573018    4.773187
   2 C     11.607569    8.159135    4.705132
   3 C     10.958505    9.188162    4.957336
   4 C      9.393404    4.133181    5.130325
   5 C      9.590057    5.578130    5.157384
   6 C      9.668375    9.238031    5.071817
   7 C      5.345942    8.728313    5.794280
   8 C      5.733290    3.319686    5.323913
   9 C      2.857623    7.862553    5.226631
  10 C      7.445953    9.981973    5.707003
  11 C      6.205149    9.853956    5.876382
  12 C      6.010919    6.259440    5.380765
  13 C      8.361477    3.389231    5.174856
  14 C      7.727005    7.622554    5.405151
  15 C      4.304433    5.237825    5.633373
  16 C      8.313042    5.807547    4.638884
  17 C      6.282493    7.569756    5.549396
  18 C      7.014917    3.849152    5.250974
  19 C      3.894456    8.563806    5.817310
  20 C      4.680734    4.059806    5.445404
  21 C      8.543821    9.171274    5.849829
  22 C      2.809682    6.153388    5.901571
  23 C      7.052491    5.323301    5.217371

Unit cell:
           periodic     x           y           z      points  spacing
  1. axis:    yes   16.000000    0.000000    0.000000    80     0.2000
  2. axis:    yes    0.000000   16.000000    0.000000    80     0.2000
  3. axis:    yes    0.000000    0.000000   10.000000    48     0.2083

Effective grid spacing dv^(1/3) = 0.2027

                     log10-error:    total        iterations:
           time      wfs    density  energy       fermi  poisson
iter:   1  09:53:41          +inf  -170.360411    4      5      
iter:   2  09:53:41         -1.82  -170.261593    2      2      
iter:   3  09:53:42         -2.02  -170.219545    3      2      
iter:   4  09:53:42         -2.19  -170.194634    3      2      
iter:   5  09:53:43         -2.42  -170.191228    3      2      
iter:   6  09:53:44         -2.60  -170.190546    3      2      
iter:   7  09:53:44         -2.69  -170.189244    3      2      
iter:   8  09:53:45         -2.84  -170.185465    2      1      
iter:   9  09:53:45         -2.93  -170.188685    2      2      
iter:  10  09:53:46         -3.33  -170.190081    2      1      
iter:  11  09:53:46         -3.38  -170.186936    2      1      
iter:  12  09:53:47         -3.69  -170.189681    2      1      
iter:  13  09:53:47         -3.74  -170.190151    2      1      
iter:  14  09:53:48         -3.86  -170.188893    2      1      
iter:  15  09:53:49         -4.06  -170.189815    2      1      

Converged after 15 iterations.

Dipole moment: (0.398498, 0.217135, 0.051991) |e|*Ang

Energy contributions relative to reference atoms: (reference = -24663.074771)

Kinetic:        +83.838957
Potential:      -96.084286
External:        +0.000000
XC:            -160.669388
Entropy (-ST):   -0.294866
Local:           +2.872335
--------------------------
Free energy:   -170.337248
Extrapolated:  -170.189815

Fermi level: -4.23676

 Band  Eigenvalues  Occupancy
    0    -22.57323    2.00000
    1    -21.82105    2.00000
    2    -21.64604    2.00000
    3    -20.89902    2.00000
    4    -20.45783    2.00000
    5    -19.94259    2.00000
    6    -19.41155    2.00000
    7    -19.05652    2.00000
    8    -18.17682    2.00000
    9    -17.86232    2.00000
   10    -17.47498    2.00000
   11    -16.58882    2.00000
   12    -15.81164    2.00000
   13    -15.55348    2.00000
   14    -15.10161    2.00000
   15    -14.25014    2.00000
   16    -13.94761    2.00000
   17    -13.45204    2.00000
   18    -13.17328    2.00000
   19    -12.91531    2.00000
   20    -12.11079    2.00000
   21    -11.92726    2.00000
   22    -11.46333    2.00000
   23    -10.77495    2.00000
   24    -10.38023    2.00000
   25    -10.27560    2.00000
   26     -9.99486    2.00000
   27     -9.75065    2.00000
   28     -9.43715    2.00000
   29     -9.35095    2.00000
   30     -9.25995    2.00000
   31     -8.79917    2.00000
   32     -8.62875    2.00000
   33     -8.22376    2.00000
   34     -7.76898    2.00000
   35     -7.66052    2.00000
   36     -7.29246    2.00000
   37     -7.17437    2.00000
   38     -6.95450    2.00000
   39     -6.61409    2.00000
   40     -6.45956    2.00000
   41     -6.21069    2.00000
   42     -6.15079    2.00000
   43     -6.04117    2.00000
   44     -5.65569    2.00000
   45     -5.38245    1.99998
   46     -4.83117    1.99477
   47     -4.28587    1.24070
   48     -4.17495    0.70043
   49     -3.89444    0.06315
   50     -3.46075    0.00085
   51     -3.24730    0.00010
   52     -3.04611    0.00001
   53     -2.74535    0.00000
   54     -2.70613    0.00000
   55     -2.30518    0.00000
   56     -2.06003    0.00000
   57     -1.92753    0.00000
   58     -1.29485    0.00000
   59     -1.00387    0.00000
   60     -0.60784    0.00000
   61     -0.19370    0.00000
   62      0.31900    0.00000
   63      0.49555    0.00000
   64      0.80458    0.00000
   65      1.31304    0.00000
   66      1.84807    0.00000
   67      1.96979    0.00000
   68      2.59906    0.00000
   69      2.77126    0.00000
   70      3.06692    0.00000
   71      3.59405    0.00000
   72      4.14530    0.00000
   73      5.02618    0.00000
   74      5.53959    0.00000
   75      5.87061    0.00000
   76      5.94330    0.00000
   77      6.21606    0.00000
   78      6.80835    0.00000
   79      7.09523    0.00000
   80      7.42078    0.00000
   81      7.81479    0.00000
   82      8.32117    0.00000
   83      8.52774    0.00000
   84      8.74937    0.00000
   85      9.01180    0.00000
   86      9.06835    0.00000
   87      9.19688    0.00000
   88      9.25446    0.00000
   89      9.29335    0.00000
   90      9.39366    0.00000
   91      9.53584    0.00000
   92      9.65836    0.00000
   93      9.78815    0.00000
   94      9.91341    0.00000
   95     10.03922    0.00000
   96     10.11445    0.00000
   97     10.23789    0.00000


Forces in eV/Ang:
  0 C     0.31312   -3.32158   -0.11239
  1 C    -1.14116    3.67220   -0.04688
  2 C     3.77029   -9.72516   -0.53881
  3 C    -3.01840    4.38041    0.44195
  4 C     0.91465    0.06307    0.48035
  5 C     1.90324    0.77137   -1.75487
  6 C    -0.06210    1.92483    1.59846
  7 C    -0.77808    0.16578   -0.39415
  8 C    -0.11929   -0.24083    0.04818
  9 C     3.92167   -0.97944    3.57767
 10 C    -1.06319    0.56726    0.95991
 11 C    -1.25278    0.15487    0.43061
 12 C    -3.21241   -5.94542    0.11625
 13 C     0.49913   -0.20356    0.10234
 14 C     0.99278    1.01737    0.02691
 15 C    -3.44492   10.58866    0.86153
 16 C    -2.74782    5.46555    4.08472
 17 C     1.20048    3.14243    0.13335
 18 C    -0.33330   -0.70975    0.06537
 19 C    -0.94841   -2.95962   -2.47432
 20 C     2.14685   -5.55831   -0.43395
 21 C    -0.70556   -2.62401   -3.22062
 22 C     2.82310    0.62481   -1.67029
 23 C     0.25043   -0.26302   -2.27125

System changes: positions 

Initializing position-dependent things.

Density initialized from wave functions
           .--------------------------------------.  
          /|                                      |  
         / |                                      |  
        /  |                                      |  
       /   |                                      |  
      /    |                                      |  
     /     |                                      |  
    /      |                                      |  
   /       |                                      |  
  /        |          C  C  C                     |  
 *         |    C  C          C  C                |  
 |         |CC       C   C        C               |  
 |         .---C----C-C-----C--C---C--------------.  
 |        /    C     C   CC                      /   
 |       /       C      C                       /    
 |      /                                      /     
 |     /                                      /      
 |    /                                      /       
 |   /                                      /        
 |  /                                      /         
 | /                                      /          
 |/                                      /           
 *--------------------------------------*            

Positions:
   0 C     10.727778    6.603127    5.038533
   1 C     12.063991    6.591992    4.772403
   2 C     11.604047    8.135842    4.712559
   3 C     10.962876    9.183323    4.950292
   4 C      9.397012    4.133520    5.132907
   5 C      9.594446    5.579807    5.147109
   6 C      9.673276    9.245992    5.077115
   7 C      5.343598    8.727398    5.791812
   8 C      5.729464    3.320614    5.325063
   9 C      2.873337    7.853048    5.241905
  10 C      7.441589    9.984168    5.712044
  11 C      6.199434    9.854239    5.878682
  12 C      5.994616    6.246245    5.383427
  13 C      8.365018    3.389856    5.175241
  14 C      7.731854    7.627261    5.404828
  15 C      4.301729    5.259488    5.629707
  16 C      8.303777    5.838613    4.662316
  17 C      6.285664    7.569349    5.547644
  18 C      7.015968    3.846743    5.250010
  19 C      3.896335    8.552481    5.807923
  20 C      4.681743    4.064152    5.449982
  21 C      8.534426    9.156952    5.834239
  22 C      2.823834    6.155719    5.893099
  23 C      7.050649    5.321645    5.208839

Unit cell:
           periodic     x           y           z      points  spacing
  1. axis:    yes   16.000000    0.000000    0.000000    80     0.2000
  2. axis:    yes    0.000000   16.000000    0.000000    80     0.2000
  3. axis:    yes    0.000000    0.000000   10.000000    48     0.2083

Effective grid spacing dv^(1/3) = 0.2027

                     log10-error:    total        iterations:
           time      wfs    density  energy       fermi  poisson
iter:   1  09:53:51          +inf  -171.661381    4      5      
iter:   2  09:53:51         -1.88  -171.579485    3      2      
iter:   3  09:53:52         -2.09  -171.553098    2      2      
iter:   4  09:53:52         -2.25  -171.534363    3      2      
iter:   5  09:53:53         -2.50  -171.532054    3      2      
iter:   6  09:53:54         -2.67  -171.531918    3      2      
iter:   7  09:53:54         -2.76  -171.530794    3      2      
iter:   8  09:53:55         -2.94  -171.527680    2      1      
iter:   9  09:53:55         -3.03  -171.530515    2      2      
iter:  10  09:53:56         -3.41  -171.531544    2      1      
iter:  11  09:53:56         -3.45  -171.528616    2      1      
iter:  12  09:53:57         -3.77  -171.531390    2      1      
iter:  13  09:53:57         -3.82  -171.531829    2      1      
iter:  14  09:53:58         -3.93  -171.530535    2      1      
iter:  15  09:53:59         -4.15  -171.531288    2      1      

Converged after 15 iterations.

Dipole moment: (0.441813, 0.242639, 0.038784) |e|*Ang

Energy contributions relative to reference atoms: (reference = -24663.074771)

Kinetic:        +80.196841
Potential:      -93.501095
External:        +0.000000
XC:            -160.965791
Entropy (-ST):   -0.289051
Local:           +2.883283
--------------------------
Free energy:   -171.675814
Extrapolated:  -171.531288

Fermi level: -4.23238

 Band  Eigenvalues  Occupancy
    0    -22.50066    2.00000
    1    -21.81275    2.00000
    2    -21.64357    2.00000
    3    -20.84688    2.00000
    4    -20.43727    2.00000
    5    -19.95783    2.00000
    6    -19.41854    2.00000
    7    -19.07247    2.00000
    8    -18.23470    2.00000
    9    -17.83138    2.00000
   10    -17.49031    2.00000
   11    -16.59877    2.00000
   12    -15.84060    2.00000
   13    -15.59549    2.00000
   14    -15.11810    2.00000
   15    -14.30604    2.00000
   16    -13.92660    2.00000
   17    -13.47100    2.00000
   18    -13.18451    2.00000
   19    -12.93348    2.00000
   20    -12.10952    2.00000
   21    -11.92337    2.00000
   22    -11.49380    2.00000
   23    -10.73994    2.00000
   24    -10.37662    2.00000
   25    -10.25074    2.00000
   26    -10.00218    2.00000
   27     -9.72856    2.00000
   28     -9.50204    2.00000
   29     -9.44816    2.00000
   30     -9.32588    2.00000
   31     -8.85756    2.00000
   32     -8.60494    2.00000
   33     -8.24118    2.00000
   34     -7.80641    2.00000
   35     -7.68233    2.00000
   36     -7.28596    2.00000
   37     -7.20167    2.00000
   38     -6.96439    2.00000
   39     -6.62098    2.00000
   40     -6.48580    2.00000
   41     -6.20848    2.00000
   42     -6.15397    2.00000
   43     -6.03539    2.00000
   44     -5.67816    2.00000
   45     -5.39196    1.99998
   46     -4.80947    1.99379
   47     -4.28049    1.23599
   48     -4.17669    0.72852
   49     -3.84589    0.04107
   50     -3.41205    0.00055
   51     -3.23611    0.00009
   52     -3.01136    0.00001
   53     -2.70212    0.00000
   54     -2.65820    0.00000
   55     -2.22899    0.00000
   56     -2.06873    0.00000
   57     -1.87126    0.00000
   58     -1.23408    0.00000
   59     -0.90566    0.00000
   60     -0.49513    0.00000
   61     -0.14593    0.00000
   62      0.37386    0.00000
   63      0.59745    0.00000
   64      0.88258    0.00000
   65      1.43784    0.00000
   66      1.92592    0.00000
   67      2.14751    0.00000
   68      2.82605    0.00000
   69      2.90024    0.00000
   70      3.29295    0.00000
   71      3.77545    0.00000
   72      4.20632    0.00000
   73      5.13277    0.00000
   74      5.57008    0.00000
   75      5.93543    0.00000
   76      5.95420    0.00000
   77      6.23809    0.00000
   78      6.78861    0.00000
   79      7.09056    0.00000
   80      7.43263    0.00000
   81      7.86221    0.00000
   82      8.32473    0.00000
   83      8.46567    0.00000
   84      8.76504    0.00000
   85      9.04320    0.00000
   86      9.06536    0.00000
   87      9.20629    0.00000
   88      9.27160    0.00000
   89      9.34398    0.00000
   90      9.46460    0.00000
   91      9.51990    0.00000
   92      9.68768    0.00000
   93      9.82005    0.00000
   94      9.94262    0.00000
   95     10.09461    0.00000
   96     10.13355    0.00000
   97     10.26818    0.00000


Forces in eV/Ang:
  0 C     0.29864   -3.20499   -0.16064
  1 C    -1.02121    3.52092   -0.06545
  2 C     3.25766   -9.02756   -0.34371
  3 C    -2.79802    3.91595    0.35531
  4 C     0.85389    0.07716    0.45964
  5 C     1.52330    0.62628   -1.71265
  6 C     0.16575    1.74136    1.45022
  7 C    -0.60795    0.06214   -0.40547
  8 C    -0.13440   -0.13654    0.08984
  9 C     3.45332   -1.40804    3.25451
 10 C    -1.04706    0.51883    0.93258
 11 C    -1.06811    0.13362    0.42260
 12 C    -3.11875   -5.18675    0.11900
 13 C     0.48878   -0.10808    0.08553
 14 C     0.90585    0.86008   -0.01665
 15 C    -2.80169    9.58865    0.59720
 16 C    -2.49499    5.53992    4.12242
 17 C     1.03616    2.50527    0.07037
 18 C    -0.25431   -0.60587   -0.00497
 19 C    -0.51533   -2.58091   -2.13539
 20 C     1.80914   -4.62772   -0.25264
 21 C    -0.83394   -2.65268   -3.18060
 22 C     2.75557    0.64568   -1.63997
 23 C     0.10156   -0.26165   -2.04461

System changes: positions 

Initializing position-dependent things.

Density initialized from wave functions
           .--------------------------------------.  
          /|                                      |  
         / |                                      |  
        /  |                                      |  
       /   |                                      |  
      /    |                                      |  
     /     |                                      |  
    /      |                                      |  
   /       |                                      |  
  /        |          C  C C                      |  
 *         |    C  C          C  C                |  
 |         |CC       C   C        C               |  
 |         .---C---C--C-----C--C---C--------------.  
 |        /    C     C   CC                      /   
 |       /       C      C                       /    
 |      /                                      /     
 |     /                                      /      
 |    /                                      /       
 |   /                                      /        
 |  /                                      /         
 | /                                      /          
 |/                                      /           
 *--------------------------------------*            

Positions:
   0 C     10.727256    6.588345    5.037200
   1 C     12.061640    6.609549    4.771605
   2 C     11.600920    8.113061    4.719548
   3 C     10.965300    9.180255    4.944474
   4 C      9.400421    4.133993    5.135269
   5 C      9.596915    5.580901    5.137582
   6 C      9.678190    9.252779    5.082178
   7 C      5.342467    8.726088    5.789360
   8 C      5.727182    3.321603    5.326320
   9 C      2.885903    7.840406    5.255125
  10 C      7.436953    9.986139    5.716818
  11 C      6.195396    9.854563    5.880893
  12 C      5.978814    6.235780    5.385609
  13 C      8.368100    3.390911    5.175501
  14 C      7.735874    7.630592    5.404233
  15 C      4.301439    5.279717    5.625544
  16 C      8.295219    5.869888    4.685738
  17 C      6.288292    7.566938    5.545884
  18 C      7.016866    3.844920    5.248744
  19 C      3.900211    8.543561    5.800790
  20 C      4.681180    4.069945    5.454716
  21 C      8.525644    9.142331    5.818328
  22 C      2.837764    6.158673    5.884718
  23 C      7.048600    5.319948    5.201362

Unit cell:
           periodic     x           y           z      points  spacing
  1. axis:    yes   16.000000    0.000000    0.000000    80     0.2000
  2. axis:    yes    0.000000   16.000000    0.000000    80     0.2000
  3. axis:    yes    0.000000    0.000000   10.000000    48     0.2083

Effective grid spacing dv^(1/3) = 0.2027

                     log10-error:    total        iterations:
           time      wfs    density  energy       fermi  poisson
iter:   1  09:54:01          +inf  -172.835556    4      5      
iter:   2  09:54:01         -1.93  -172.766055    3      2      
iter:   3  09:54:02         -2.13  -172.743888    3      2      
iter:   4  09:54:02         -2.28  -172.728024    3      2      
iter:   5  09:54:03         -2.54  -172.725806    2      2      
iter:   6  09:54:04         -2.71  -172.726072    2      2      
iter:   7  09:54:04         -2.81  -172.725126    2      2      
iter:   8  09:54:05         -2.99  -172.721933    2      1      
iter:   9  09:54:05         -3.09  -172.724809    2      2      
iter:  10  09:54:06         -3.44  -172.725907    2      1      
iter:  11  09:54:06         -3.50  -172.722888    2      1      
iter:  12  09:54:07         -3.78  -172.725836    2      1      
iter:  13  09:54:07         -3.85  -172.725936    2      1      
iter:  14  09:54:08         -3.96  -172.724899    2      1      
iter:  15  09:54:09         -4.16  -172.725623    2      1      

Converged after 15 iterations.

Dipole moment: (0.475043, 0.264027, 0.025774) |e|*Ang

Energy contributions relative to reference atoms: (reference = -24663.074771)

Kinetic:        +77.075959
Potential:      -91.270170
External:        +0.000000
XC:            -161.278999
Entropy (-ST):   -0.286181
Local:           +2.890677
--------------------------
Free energy:   -172.868714
Extrapolated:  -172.725623

Fermi level: -4.22700

 Band  Eigenvalues  Occupancy
    0    -22.43906    2.00000
    1    -21.83029    2.00000
    2    -21.63327    2.00000
    3    -20.79672    2.00000
    4    -20.43572    2.00000
    5    -19.95851    2.00000
    6    -19.42840    2.00000
    7    -19.08432    2.00000
    8    -18.27206    2.00000
    9    -17.80574    2.00000
   10    -17.49886    2.00000
   11    -16.59443    2.00000
   12    -15.87613    2.00000
   13    -15.62788    2.00000
   14    -15.12196    2.00000
   15    -14.35335    2.00000
   16    -13.90698    2.00000
   17    -13.48142    2.00000
   18    -13.18842    2.00000
   19    -12.94635    2.00000
   20    -12.10662    2.00000
   21    -11.92225    2.00000
   22    -11.51158    2.00000
   23    -10.72921    2.00000
   24    -10.37121    2.00000
   25    -10.22814    2.00000
   26    -10.00354    2.00000
   27     -9.71125    2.00000
   28     -9.59235    2.00000
   29     -9.53207    2.00000
   30     -9.36664    2.00000
   31     -8.91933    2.00000
   32     -8.57925    2.00000
   33     -8.26097    2.00000
   34     -7.86886    2.00000
   35     -7.68911    2.00000
   36     -7.28495    2.00000
   37     -7.21882    2.00000
   38     -6.97892    2.00000
   39     -6.62762    2.00000
   40     -6.50229    2.00000
   41     -6.21825    2.00000
   42     -6.15676    2.00000
   43     -6.02245    2.00000
   44     -5.68412    2.00000
   45     -5.39914    1.99998
   46     -4.77697    1.99186
   47     -4.27357    1.22875
   48     -4.17615    0.75110
   49     -3.80086    0.02781
   50     -3.37683    0.00041
   51     -3.22229    0.00009
   52     -2.97632    0.00001
   53     -2.68109    0.00000
   54     -2.62011    0.00000
   55     -2.16154    0.00000
   56     -2.07469    0.00000
   57     -1.81779    0.00000
   58     -1.15800    0.00000
   59     -0.82243    0.00000
   60     -0.39773    0.00000
   61     -0.10054    0.00000
   62      0.41866    0.00000
   63      0.70964    0.00000
   64      0.98543    0.00000
   65      1.54207    0.00000
   66      1.98497    0.00000
   67      2.34400    0.00000
   68      2.92545    0.00000
   69      3.17635    0.00000
   70      3.53803    0.00000
   71      3.90616    0.00000
   72      4.30979    0.00000
   73      5.22162    0.00000
   74      5.59686    0.00000
   75      5.96913    0.00000
   76      5.99777    0.00000
   77      6.26773    0.00000
   78      6.77418    0.00000
   79      7.07733    0.00000
   80      7.45852    0.00000
   81      7.88996    0.00000
   82      8.32448    0.00000
   83      8.41045    0.00000
   84      8.77418    0.00000
   85      9.05292    0.00000
   86      9.06533    0.00000
   87      9.20982    0.00000
   88      9.29653    0.00000
   89      9.38342    0.00000
   90      9.48678    0.00000
   91      9.51540    0.00000
   92      9.71654    0.00000
   93      9.87449    0.00000
   94      9.97237    0.00000
   95     10.14437    0.00000
   96     10.16365    0.00000
   97     10.28676    0.00000


Forces in eV/Ang:
  0 C     0.23516   -3.05520   -0.18882
  1 C    -0.86153    3.33345   -0.07424
  2 C     2.66914   -8.07477   -0.15540
  3 C    -2.38247    3.28405    0.23848
  4 C     0.77249    0.08184    0.42819
  5 C     1.21226    0.52344   -1.64725
  6 C     0.25360    1.53798    1.32638
  7 C    -0.44692   -0.01532   -0.41143
  8 C    -0.34256    0.04326    0.14530
  9 C     3.14377   -1.68515    3.01954
 10 C    -0.85164    0.45219    0.88922
 11 C    -1.03305    0.08710    0.42780
 12 C    -3.00895   -4.71892    0.10953
 13 C     0.48997   -0.02110    0.06292
 14 C     0.84895    0.69144   -0.07106
 15 C    -2.30419    8.92015    0.42158
 16 C    -2.31655    5.56417    4.19153
 17 C     0.88677    2.14244    0.05257
 18 C    -0.16488   -0.49671   -0.06110
 19 C    -0.28290   -2.34418   -1.89377
 20 C     1.73366   -4.12260   -0.15218
 21 C    -0.99860   -2.61054   -3.13988
 22 C     2.68059    0.70378   -1.61969
 23 C    -0.04169   -0.17282   -1.84771

System changes: positions 

Initializing position-dependent things.

Density initialized from wave functions
           .--------------------------------------.  
          /|                                      |  
         / |                                      |  
        /  |                                      |  
[...]
Entropy (-ST):   -0.040043
Local:           +3.019035
--------------------------
Free energy:   -184.556631
Extrapolated:  -184.536610

Fermi level: -3.97555

 Band  Eigenvalues  Occupancy
    0    -22.48666    2.00000
    1    -21.83450    2.00000
    2    -21.57719    2.00000
    3    -20.96650    2.00000
    4    -20.56628    2.00000
    5    -20.08050    2.00000
    6    -19.69068    2.00000
    7    -19.53598    2.00000
    8    -18.44855    2.00000
    9    -18.21416    2.00000
   10    -17.45693    2.00000
   11    -17.17278    2.00000
   12    -16.50600    2.00000
   13    -15.92577    2.00000
   14    -15.44836    2.00000
   15    -15.04303    2.00000
   16    -14.01561    2.00000
   17    -13.64528    2.00000
   18    -13.45599    2.00000
   19    -13.00829    2.00000
   20    -12.66990    2.00000
   21    -12.18603    2.00000
   22    -11.74772    2.00000
   23    -11.64347    2.00000
   24    -10.74390    2.00000
   25    -10.53199    2.00000
   26    -10.36189    2.00000
   27    -10.25953    2.00000
   28     -9.72365    2.00000
   29     -9.59877    2.00000
   30     -9.47857    2.00000
   31     -9.26795    2.00000
   32     -9.08549    2.00000
   33     -8.72709    2.00000
   34     -8.49091    2.00000
   35     -7.78936    2.00000
   36     -7.46519    2.00000
   37     -7.28811    2.00000
   38     -7.14484    2.00000
   39     -6.68543    2.00000
   40     -6.53449    2.00000
   41     -6.28304    2.00000
   42     -6.16600    2.00000
   43     -5.97063    2.00000
   44     -5.68301    2.00000
   45     -5.39515    2.00000
   46     -4.81380    1.99954
   47     -4.36584    1.96043
   48     -3.58384    0.03902
   49     -3.15956    0.00057
   50     -3.12234    0.00039
   51     -2.82583    0.00002
   52     -2.75433    0.00001
   53     -2.65764    0.00000
   54     -2.60655    0.00000
   55     -2.31313    0.00000
   56     -1.38816    0.00000
   57     -1.10362    0.00000
   58     -0.83094    0.00000
   59      0.12496    0.00000
   60      0.49228    0.00000
   61      1.37511    0.00000
   62      1.60598    0.00000
   63      3.07507    0.00000
   64      3.59499    0.00000
   65      3.88600    0.00000
   66      4.41948    0.00000
   67      4.62996    0.00000
   68      4.89669    0.00000
   69      4.98191    0.00000
   70      5.52392    0.00000
   71      5.85984    0.00000
   72      6.16871    0.00000
   73      6.20980    0.00000
   74      6.66812    0.00000
   75      6.88218    0.00000
   76      7.18607    0.00000
   77      7.69379    0.00000
   78      7.85860    0.00000
   79      8.11894    0.00000
   80      8.22768    0.00000
   81      8.72114    0.00000
   82      8.81450    0.00000
   83      8.88966    0.00000
   84      9.07031    0.00000
   85      9.12768    0.00000
   86      9.34267    0.00000
   87      9.53843    0.00000
   88      9.63282    0.00000
   89      9.66605    0.00000
   90      9.72722    0.00000
   91      9.84752    0.00000
   92      9.98884    0.00000
   93     10.29542    0.00000
   94     10.33396    0.00000
   95     10.38339    0.00000
   96     10.42196    0.00000
   97     10.47813    0.00000


Forces in eV/Ang:
  0 C    -0.02266   -0.02787    0.00351
  1 C    -0.11891    0.01479    0.05932
  2 C     0.00945    0.02635   -0.05059
  3 C     0.02658   -0.01920    0.04451
  4 C    -0.00002    0.05762    0.02856
  5 C     0.01133    0.00837   -0.04188
  6 C     0.02954    0.00441   -0.01518
  7 C    -0.04857    0.09352   -0.07837
  8 C    -0.01436    0.00256   -0.02164
  9 C     0.00483   -0.01428    0.03262
 10 C     0.01898    0.01453   -0.06734
 11 C    -0.02057   -0.05427    0.03308
 12 C     0.05370   -0.03743    0.01377
 13 C    -0.02536    0.06461   -0.00640
 14 C     0.00657    0.02885   -0.01540
 15 C    -0.01228   -0.08933    0.01348
 16 C     0.01383   -0.09574   -0.02707
 17 C     0.00687    0.07719   -0.00924
 18 C    -0.02630   -0.03342   -0.05642
 19 C     0.02244   -0.14276   -0.02359
 20 C    -0.03650    0.10071    0.02355
 21 C     0.04765    0.05510    0.04648
 22 C     0.05082    0.03586    0.00721
 23 C     0.04588   -0.04003    0.00854

System changes: positions 

Initializing position-dependent things.

Density initialized from wave functions
           .--------------------------------------.  
          /|                                      |  
         / |                                      |  
        /  |                                      |  
       /   |                                      |  
      /    |                                      |  
     /     |                                      |  
    /      |                                      |  
   /       |                                      |  
  /        |          C  C                        |  
 *         |    C  C       C  C   C               |  
 |         | CC      C  C         C               |  
 |         .---C---C-C---C--C--C--C---------------.  
 |        /    C     C    C                      /   
 |       /       C     C                        /    
 |      /                                      /     
 |     /                                      /      
 |    /                                      /       
 |   /                                      /        
 |  /                                      /         
 | /                                      /          
 |/                                      /           
 *--------------------------------------*            

Positions:
   0 C     10.730028    6.159714    4.943400
   1 C     11.800621    6.865562    4.839301
   2 C     11.622175    8.181790    4.757490
   3 C     10.954375    9.286115    5.038339
   4 C      9.364525    4.144814    5.020863
   5 C      9.481893    5.566431    5.089784
   6 C      9.677602    9.181771    5.206675
   7 C      5.342864    8.723110    5.719443
   8 C      5.696515    3.355586    5.331952
   9 C      3.446335    7.474113    5.675749
  10 C      7.451171    9.992381    5.648935
  11 C      6.212678    9.848916    5.774563
  12 C      5.783578    6.125209    5.459342
  13 C      8.335716    3.431570    5.128057
  14 C      7.672926    7.587357    5.403130
  15 C      4.447201    5.482741    5.487947
  16 C      8.168036    6.215759    5.273618
  17 C      6.202947    7.535326    5.535237
  18 C      7.004311    3.890069    5.259944
  19 C      3.923575    8.689690    5.780819
  20 C      4.667115    4.075779    5.414813
  21 C      8.347239    8.896215    5.414226
  22 C      3.204366    6.186014    5.577718
  23 C      6.992654    5.350713    5.322067

Unit cell:
           periodic     x           y           z      points  spacing
  1. axis:    yes   16.000000    0.000000    0.000000    80     0.2000
  2. axis:    yes    0.000000   16.000000    0.000000    80     0.2000
  3. axis:    yes    0.000000    0.000000   10.000000    48     0.2083

Effective grid spacing dv^(1/3) = 0.2027

                     log10-error:    total        iterations:
           time      wfs    density  energy       fermi  poisson
iter:   1  09:59:34          +inf  -184.535371    2      5      
iter:   2  09:59:35         -2.78  -184.535431    2      1      
iter:   3  09:59:36         -2.91  -184.537125    2      1      
iter:   4  09:59:36         -3.11  -184.538164    2      1      
iter:   5  09:59:37         -3.37  -184.538699    2      1      
iter:   6  09:59:37         -3.46  -184.538873    1      1      
iter:   7  09:59:38         -3.72  -184.538500    2      1      
iter:   8  09:59:38         -3.90  -184.538805    2      1      
iter:   9  09:59:39         -3.96  -184.539011    1      1      
iter:  10  09:59:40         -3.79  -184.538578    1      1      
iter:  11  09:59:40         -4.32  -184.538675    1      1      

Converged after 11 iterations.

Dipole moment: (1.172523, 0.013957, -0.113491) |e|*Ang

Energy contributions relative to reference atoms: (reference = -24663.074771)

Kinetic:       +112.379905
Potential:     -121.044651
External:        +0.000000
XC:            -178.880182
Entropy (-ST):   -0.040617
Local:           +3.026561
--------------------------
Free energy:   -184.558984
Extrapolated:  -184.538675

Fermi level: -3.97521

 Band  Eigenvalues  Occupancy
    0    -22.48416    2.00000
    1    -21.82605    2.00000
    2    -21.57540    2.00000
    3    -20.96647    2.00000
    4    -20.56459    2.00000
    5    -20.08021    2.00000
    6    -19.68783    2.00000
    7    -19.53871    2.00000
    8    -18.44465    2.00000
    9    -18.21512    2.00000
   10    -17.45731    2.00000
   11    -17.17074    2.00000
   12    -16.50859    2.00000
   13    -15.92933    2.00000
   14    -15.44719    2.00000
   15    -15.04358    2.00000
   16    -14.01501    2.00000
   17    -13.64377    2.00000
   18    -13.45077    2.00000
   19    -13.00852    2.00000
   20    -12.66943    2.00000
   21    -12.18486    2.00000
   22    -11.75259    2.00000
   23    -11.64735    2.00000
   24    -10.73669    2.00000
   25    -10.54272    2.00000
   26    -10.35913    2.00000
   27    -10.26396    2.00000
   28     -9.72035    2.00000
   29     -9.58934    2.00000
   30     -9.47740    2.00000
   31     -9.26656    2.00000
   32     -9.09047    2.00000
   33     -8.72658    2.00000
   34     -8.49286    2.00000
   35     -7.79064    2.00000
   36     -7.45636    2.00000
   37     -7.28872    2.00000
   38     -7.14663    2.00000
   39     -6.69065    2.00000
   40     -6.53063    2.00000
   41     -6.28579    2.00000
   42     -6.16677    2.00000
   43     -5.97104    2.00000
   44     -5.68452    2.00000
   45     -5.39753    2.00000
   46     -4.81392    1.99954
   47     -4.36364    1.95970
   48     -3.58534    0.03973
   49     -3.16260    0.00059
   50     -3.12176    0.00039
   51     -2.82550    0.00002
   52     -2.75160    0.00001
   53     -2.65763    0.00000
   54     -2.60375    0.00000
   55     -2.30713    0.00000
   56     -1.39304    0.00000
   57     -1.10128    0.00000
   58     -0.81676    0.00000
   59      0.12382    0.00000
   60      0.48956    0.00000
   61      1.37430    0.00000
   62      1.60018    0.00000
   63      3.05860    0.00000
   64      3.59729    0.00000
   65      3.89777    0.00000
   66      4.42012    0.00000
   67      4.62796    0.00000
   68      4.89628    0.00000
   69      4.97752    0.00000
   70      5.53160    0.00000
   71      5.86322    0.00000
   72      6.16061    0.00000
   73      6.20284    0.00000
   74      6.67387    0.00000
   75      6.89583    0.00000
   76      7.19615    0.00000
   77      7.68734    0.00000
   78      7.87438    0.00000
   79      8.15280    0.00000
   80      8.22716    0.00000
   81      8.72737    0.00000
   82      8.81955    0.00000
   83      8.89311    0.00000
   84      9.07751    0.00000
   85      9.12719    0.00000
   86      9.35072    0.00000
   87      9.54467    0.00000
   88      9.63346    0.00000
   89      9.66488    0.00000
   90      9.71655    0.00000
   91      9.84755    0.00000
   92      9.98710    0.00000
   93     10.29530    0.00000
   94     10.33534    0.00000
   95     10.39454    0.00000
   96     10.42245    0.00000
   97     10.47605    0.00000


Forces in eV/Ang:
  0 C    -0.04038   -0.02523    0.02140
  1 C    -0.09870    0.02099    0.05807
  2 C     0.00372    0.00495   -0.05522
  3 C     0.03989   -0.03118    0.04923
  4 C    -0.04439    0.06626    0.04153
  5 C    -0.00177    0.01999   -0.05897
  6 C    -0.02253    0.00863   -0.00681
  7 C    -0.01715    0.03709   -0.06829
  8 C     0.00683   -0.02071   -0.02968
  9 C    -0.02198    0.02747    0.01615
 10 C    -0.00775   -0.00919   -0.02948
 11 C     0.00136   -0.01401    0.01392
 12 C     0.02256   -0.03536   -0.01584
 13 C    -0.00051    0.06581   -0.01628
 14 C     0.07216    0.00692    0.00820
 15 C    -0.01767   -0.07668    0.04495
 16 C     0.02541   -0.05924   -0.03680
 17 C     0.05244    0.06777   -0.02134
 18 C    -0.02593   -0.02494   -0.06190
 19 C     0.00608   -0.03440   -0.00487
 20 C    -0.03566    0.08045    0.00649
 21 C     0.03380    0.04629    0.01880
 22 C     0.03153   -0.05257    0.01417
 23 C     0.03587   -0.03172    0.04159

System changes: positions 

Initializing position-dependent things.

Density initialized from wave functions
           .--------------------------------------.  
          /|                                      |  
         / |                                      |  
        /  |                                      |  
       /   |                                      |  
      /    |                                      |  
     /     |                                      |  
    /      |                                      |  
   /       |                                      |  
  /        |          C  C                        |  
 *         |    C  C       C  C   C               |  
 |         | CC      C  C         C               |  
 |         .---C---C-C---C--C--C--C---------------.  
 |        /    C    C     C                      /   
 |       /       C     C                        /    
 |      /                                      /     
 |     /                                      /      
 |    /                                      /       
 |   /                                      /        
 |  /                                      /         
 | /                                      /          
 |/                                      /           
 *--------------------------------------*            

Positions:
   0 C     10.728643    6.159257    4.941554
   1 C     11.794014    6.872692    4.845926
   2 C     11.622649    8.189244    4.753047
   3 C     10.957323    9.292659    5.046860
   4 C      9.362885    4.142559    5.018143
   5 C      9.482443    5.563186    5.090985
   6 C      9.679780    9.182303    5.208618
   7 C      5.343819    8.724480    5.718080
   8 C      5.693357    3.356820    5.328784
   9 C      3.447019    7.472851    5.680070
  10 C      7.452228    9.992248    5.635207
  11 C      6.214783    9.848498    5.769429
  12 C      5.783856    6.124643    5.463819
  13 C      8.333319    3.431194    5.127349
  14 C      7.674241    7.585511    5.405652
  15 C      4.445996    5.483178    5.487673
  16 C      8.168897    6.211899    5.278638
  17 C      6.204064    7.535559    5.538169
  18 C      7.001997    3.888478    5.258514
  19 C      3.926609    8.685694    5.782607
  20 C      4.664149    4.077567    5.412611
  21 C      8.349270    8.894844    5.412792
  22 C      3.203204    6.185329    5.576318
  23 C      6.992678    5.348772    5.325259

Unit cell:
           periodic     x           y           z      points  spacing
  1. axis:    yes   16.000000    0.000000    0.000000    80     0.2000
  2. axis:    yes    0.000000   16.000000    0.000000    80     0.2000
  3. axis:    yes    0.000000    0.000000   10.000000    48     0.2083

Effective grid spacing dv^(1/3) = 0.2027

                     log10-error:    total        iterations:
           time      wfs    density  energy       fermi  poisson
iter:   1  09:59:42          +inf  -184.539181    2      5      
iter:   2  09:59:43         -2.91  -184.539002    2      1      
iter:   3  09:59:43         -2.98  -184.539239    2      1      
iter:   4  09:59:44         -3.20  -184.539471    2      1      
iter:   5  09:59:45         -3.43  -184.539934    2      1      
iter:   6  09:59:45         -3.62  -184.540353    2      1      
iter:   7  09:59:46         -3.93  -184.540288    2      1      
iter:   8  09:59:46         -3.91  -184.540546    2      1      
iter:   9  09:59:47         -4.22  -184.540661    2      1      

Converged after 9 iterations.

Dipole moment: (1.164475, 0.016055, -0.110447) |e|*Ang

Energy contributions relative to reference atoms: (reference = -24663.074771)

Kinetic:       +112.700683
Potential:     -121.308394
External:        +0.000000
XC:            -178.942206
Entropy (-ST):   -0.040755
Local:           +3.029634
--------------------------
Free energy:   -184.561038
Extrapolated:  -184.540661

Fermi level: -3.97498

 Band  Eigenvalues  Occupancy
    0    -22.48303    2.00000
    1    -21.81803    2.00000
    2    -21.57692    2.00000
    3    -20.96934    2.00000
    4    -20.56290    2.00000
    5    -20.07952    2.00000
    6    -19.68376    2.00000
    7    -19.54441    2.00000
    8    -18.44204    2.00000
    9    -18.21853    2.00000
   10    -17.45758    2.00000
   11    -17.16879    2.00000
   12    -16.51217    2.00000
   13    -15.93422    2.00000
   14    -15.44540    2.00000
   15    -15.04594    2.00000
   16    -14.01326    2.00000
   17    -13.64495    2.00000
   18    -13.44510    2.00000
   19    -13.01148    2.00000
   20    -12.67350    2.00000
   21    -12.18733    2.00000
   22    -11.75831    2.00000
   23    -11.65255    2.00000
   24    -10.73308    2.00000
   25    -10.55319    2.00000
   26    -10.35805    2.00000
   27    -10.26751    2.00000
   28     -9.71677    2.00000
   29     -9.57923    2.00000
   30     -9.47841    2.00000
   31     -9.26830    2.00000
   32     -9.09214    2.00000
   33     -8.72831    2.00000
   34     -8.49461    2.00000
   35     -7.79199    2.00000
   36     -7.44491    2.00000
   37     -7.28933    2.00000
   38     -7.14929    2.00000
   39     -6.69464    2.00000
   40     -6.52738    2.00000
   41     -6.28860    2.00000
   42     -6.16673    2.00000
   43     -5.97189    2.00000
   44     -5.68531    2.00000
   45     -5.39944    2.00000
   46     -4.81593    1.99955
   47     -4.36292    1.95951
   48     -3.58560    0.03992
   49     -3.16608    0.00061
   50     -3.11508    0.00037
   51     -2.82877    0.00002
   52     -2.74411    0.00001
   53     -2.65514    0.00000
   54     -2.60127    0.00000
   55     -2.29515    0.00000
   56     -1.39524    0.00000
   57     -1.09900    0.00000
   58     -0.81137    0.00000
   59      0.12408    0.00000
   60      0.48462    0.00000
   61      1.37586    0.00000
   62      1.59180    0.00000
   63      3.03762    0.00000
   64      3.59977    0.00000
   65      3.91112    0.00000
   66      4.42161    0.00000
   67      4.62751    0.00000
   68      4.89505    0.00000
   69      4.97778    0.00000
   70      5.53809    0.00000
   71      5.87182    0.00000
   72      6.15032    0.00000
   73      6.19981    0.00000
   74      6.68019    0.00000
   75      6.91292    0.00000
   76      7.20713    0.00000
   77      7.68341    0.00000
   78      7.89193    0.00000
   79      8.18806    0.00000
   80      8.23307    0.00000
   81      8.73522    0.00000
   82      8.82434    0.00000
   83      8.89553    0.00000
   84      9.08579    0.00000
   85      9.13050    0.00000
   86      9.35761    0.00000
   87      9.55332    0.00000
   88      9.63422    0.00000
   89      9.66265    0.00000
   90      9.71149    0.00000
   91      9.84672    0.00000
   92      9.98741    0.00000
   93     10.29725    0.00000
   94     10.33628    0.00000
   95     10.40303    0.00000
   96     10.42561    0.00000
   97     10.47508    0.00000


Forces in eV/Ang:
  0 C    -0.02644   -0.00793    0.02805
  1 C    -0.07694   -0.00103    0.06293
  2 C    -0.00801    0.01632   -0.07125
  3 C     0.02013   -0.03213    0.05264
  4 C    -0.03131    0.05239    0.03796
  5 C    -0.02092    0.02394   -0.05911
  6 C    -0.00363    0.02965   -0.00855
  7 C     0.03561   -0.01167   -0.05482
  8 C    -0.01699   -0.03559   -0.03577
  9 C    -0.04448   -0.01371    0.00517
 10 C     0.01029    0.02066   -0.02585
 11 C    -0.01452    0.01604    0.00764
 12 C     0.02244   -0.01436   -0.02947
 13 C    -0.01762    0.02791   -0.02237
 14 C     0.08702    0.00843    0.02195
 15 C     0.01254   -0.04486    0.05642
 16 C     0.01962   -0.00793   -0.03686
 17 C     0.06850    0.02469   -0.03032
 18 C    -0.01871   -0.01122   -0.05387
 19 C    -0.00984    0.03725   -0.00346
 20 C     0.00954    0.01651   -0.01085
 21 C     0.02306    0.01326    0.00544
 22 C     0.00769   -0.04111    0.02250
 23 C    -0.00795   -0.00787    0.04802

