
  ___ ___ ___ _ _ _  
 |   |   |_  | | | | 
 | | | | | . | | | | 
 |__ |  _|___|_____|  1.3.0b1
 |___|_|             

User:   esb@s65n74.grendel.cscaa.dk
Date:   Thu Nov  9 11:02:54 2017
Arch:   x86_64
Pid:    100202
Python: 2.7.13
gpaw:   /home/esb/DFT/gpaw_git/gpaw
_gpaw:  /home/esb/DFT/gpaw_git/build/bin.linux-x86_64-2.7/gpaw-python
ase:    /home/esb/DFT/ase_git/ase (version 3.15.0b1)
numpy:  /comm/swstack/core/python/2.7.13/lib/python2.7/site-packages/numpy (version 1.13.3)
scipy:  /comm/swstack/core/python/2.7.13/lib/python2.7/site-packages/scipy (version 0.19.1)
units:  Angstrom and eV
cores:  16
Extra parameters: {'blacs': True}

Input parameters:
  basis: dzp
  gpts: [80 80 48]
  kpts: [1 1 1]
  maxiter: 99
  mixer: {backend: pulay,
          beta: 0.05,
          method: separate,
          nmaxold: 5,
          weight: 75}
  mode: lcao
  nbands: -50
  occupations: {name: fermi-dirac,
                width: 0.1}
  poissonsolver: {eps: 1e-07,
                  name: fd,
                  nn: 3,
                  relax: GS}
  xc: PBE

System changes: positions, numbers, cell, pbc, initial_charges, initial_magmoms 

Initialize ...

C-setup:
  name: Carbon
  id: 4aa54d4b901d75f77cc0ea3eec22967b
  Z: 6
  valence: 4
  core: 2
  charge: 0.0
  file: /home/esb/DFT/gpaw-setups-0.8.7929/C.PBE.gz
  cutoffs: 0.64(comp), 1.14(filt), 1.14(core), lmax=2
  valence states:
                energy  radius
    2s(2.00)   -13.751   0.635
    2p(2.00)    -5.284   0.635
    *s          13.461   0.635
    *p          21.927   0.635
    *d           0.000   0.635

  LCAO basis set for C:
    Name: dzp
    File: /home/esb/DFT/gpaw-setups-0.8.7929/C.dzp.basis.gz
    Number of radial functions: 5
    Number of spherical harmonics: 13
      l=0, rc=5.5469 Bohr: 2s-sz confined orbital
      l=1, rc=6.6719 Bohr: 2p-sz confined orbital
      l=0, rc=3.0312 Bohr: 2s-dz split-valence wave
      l=1, rc=3.7500 Bohr: 2p-dz split-valence wave
      l=2, rc=6.6719 Bohr: d-type Gaussian polarization

Reference energy: -24663.074771

Spin-paired calculation

Occupation numbers:
  Fermi-Dirac: width=0.1000 eV

Convergence criteria:
  Maximum total energy change: 0.0005 eV / electron
  Maximum integral of absolute density change: 0.0001 electrons
  Maximum integral of absolute eigenstate change: 4e-08 eV^2
  Maximum number of iterations: 99

Symmetries present (total): 1

  ( 1  0  0)
  ( 0  1  0)
  ( 0  0  1)

1 k-point (Gamma)
1 k-point in the irreducible part of the Brillouin zone
       k-points in crystal coordinates                weights
   0:     0.00000000    0.00000000    0.00000000          1/1

Wave functions: LCAO
  Diagonalizer: Serial LAPACK
  Atomic Correction: dense with blas
  Datatype: float
  Eigensolver: None 

LCAO using direct dense diagonalizer 

Densities:
  Coarse grid: 80*80*48 grid
  Fine grid: 160*160*96 grid
  Total Charge: 0.000000 

Density mixing:
  Method: separate
  Backend: pulay
  Linear mixing parameter: 0.05
  Mixing with 5 old densities
  Damping of long wave oscillations: 75 

Hamiltonian:
  XC and Coulomb potentials evaluated on a 160*160*96 grid
  Using the PBE Exchange-Correlation functional
  Interpolation: tri-quintic (5. degree polynomial)
  Poisson solver: Gauss-Seidel solver with 6 multi-grid levels
    Coarsest grid: 5 x 5 x 3 points
    Stencil: 6*3+1=19 point O(h^6) finite-difference Laplacian
    Max iterations: 1000
    Tolerance: 1.000000e-07 

Memory estimate:
  Process memory now: 77.57 MiB
  Calculator: 15.59 MiB
    Density: 6.13 MiB
      Arrays: 3.81 MiB
      Localized functions: 0.86 MiB
      Mixer: 1.46 MiB
    Hamiltonian: 5.40 MiB
      Arrays: 2.49 MiB
      XC: 0.00 MiB
      Poisson: 2.85 MiB
      vbar: 0.07 MiB
    Wavefunctions: 4.05 MiB
      C [qnM]: 0.23 MiB
      S, T [2 x qmm]: 1.49 MiB
      P [aqMi]: 0.01 MiB
      TCI: 0.00 MiB
      BasisFunctions: 2.33 MiB
      Eigensolver: 0.00 MiB

Total number of cores used: 16
Domain decomposition: 2 x 4 x 2

Number of atoms: 24
Number of atomic orbitals: 312
Number of bands in calculation: 98
Bands to converge: occupied states only
Number of valence electrons: 96

... initialized

Initializing position-dependent things.

Density initialized from atomic densities
           .--------------------------------------.  
          /|                                      |  
         / |                                      |  
        /  |                                      |  
       /   |                                      |  
      /    |                                      |  
     /     |                                      |  
    /      |                                      |  
   /       |                                      |  
  /        |           C                          |  
 *         |   C C  CC    C  C                    |  
 |         | C          C  C    C                 |  
 |         .---C---C-C---C--C-CCC-----------------.  
 |        /    C     C    C                      /   
 |       /       C     C                        /    
 |      /                                      /     
 |     /                                      /      
 |    /                                      /       
 |   /                                      /        
 |  /                                      /         
 | /                                      /          
 |/                                      /           
 *--------------------------------------*            

Positions:
   0 C      7.545008    7.469398    5.484831
   1 C      8.744317    8.020017    5.153980
   2 C      6.569842   10.046205    5.224577
   3 C     10.366398    9.405956    4.387809
   4 C     10.796407    8.178112    4.309688
   5 C      9.878865    7.165717    4.772173
   6 C      7.809452   10.175471    4.986225
   7 C      9.016181    9.454922    4.850008
   8 C      5.511718    9.104155    5.462811
   9 C      3.621566    7.860868    5.596709
  10 C      6.146601    7.817678    5.591381
  11 C      4.067361    9.110587    5.528720
  12 C     10.773867    6.150322    5.188351
  13 C      9.367469    4.132462    5.116581
  14 C      9.519101    5.543678    5.209460
  15 C      5.713535    3.344428    5.326439
  16 C      5.816388    6.119330    5.454633
  17 C      8.349364    3.398632    5.171257
  18 C      4.483426    5.475644    5.523497
  19 C      8.198879    6.195252    5.294327
  20 C      7.023028    3.875364    5.245263
  21 C      4.691322    4.070902    5.432875
  22 C      3.243281    6.174632    5.664165
  23 C      7.020796    5.340016    5.298345

Unit cell:
           periodic     x           y           z      points  spacing
  1. axis:    yes   16.000000    0.000000    0.000000    80     0.2000
  2. axis:    yes    0.000000   16.000000    0.000000    80     0.2000
  3. axis:    yes    0.000000    0.000000   10.000000    48     0.2083

Effective grid spacing dv^(1/3) = 0.2027

                     log10-error:    total        iterations:
           time      wfs    density  energy       fermi  poisson
iter:   1  11:02:56          +inf  -179.642674    2      6      
iter:   2  11:02:57         -0.89  -178.722687    3      3      
iter:   3  11:02:57         -0.92  -176.094862    34     4      
iter:   4  11:02:58         -1.18  -175.363535    3      3      
iter:   5  11:02:59         -1.28  -175.244157    34     3      
iter:   6  11:02:59         -1.48  -175.129262    3      3      
iter:   7  11:03:00         -1.61  -175.215778    4      3      
iter:   8  11:03:01         -1.75  -175.156182    3      2      
iter:   9  11:03:01         -1.91  -175.131842    3      3      
iter:  10  11:03:02         -2.10  -175.122660    3      2      
iter:  11  11:03:02         -2.22  -175.120143    3      2      
iter:  12  11:03:03         -2.59  -175.110680    3      2      
iter:  13  11:03:04         -2.65  -175.110121    3      2      
iter:  14  11:03:04         -2.95  -175.109050    2      2      
iter:  15  11:03:05         -3.10  -175.106397    2      1      
iter:  16  11:03:05         -3.16  -175.105304    2      1      
iter:  17  11:03:06         -3.30  -175.110247    2      1      
iter:  18  11:03:06         -3.38  -175.115165    2      1      
iter:  19  11:03:07         -3.51  -175.113538    2      1      
iter:  20  11:03:08         -3.72  -175.108883    2      1      
iter:  21  11:03:08         -3.78  -175.106654    2      1      
iter:  22  11:03:09         -3.87  -175.106958    2      1      
iter:  23  11:03:09         -3.96  -175.105971    2      1      
iter:  24  11:03:10         -4.10  -175.106902    2      1      

Converged after 24 iterations.

Dipole moment: (0.111003, 0.157731, -0.055363) |e|*Ang

Energy contributions relative to reference atoms: (reference = -24663.074771)

Kinetic:       +122.604605
Potential:     -123.669906
External:        +0.000000
XC:            -176.900304
Entropy (-ST):   -0.272070
Local:           +2.994738
--------------------------
Free energy:   -175.242936
Extrapolated:  -175.106902

Fermi level: -4.42532

 Band  Eigenvalues  Occupancy
    0    -24.19193    2.00000
    1    -22.37004    2.00000
    2    -22.10266    2.00000
    3    -21.38451    2.00000
    4    -21.05959    2.00000
    5    -20.58229    2.00000
    6    -19.66361    2.00000
    7    -19.12074    2.00000
    8    -18.90624    2.00000
    9    -18.14453    2.00000
   10    -17.54649    2.00000
   11    -17.36691    2.00000
   12    -16.32198    2.00000
   13    -16.15433    2.00000
   14    -14.96667    2.00000
   15    -14.87298    2.00000
   16    -14.43702    2.00000
   17    -14.12033    2.00000
   18    -13.48923    2.00000
   19    -13.06562    2.00000
   20    -12.53938    2.00000
   21    -12.27744    2.00000
   22    -11.96429    2.00000
   23    -11.63729    2.00000
   24    -11.62155    2.00000
   25    -11.28450    2.00000
   26    -10.27880    2.00000
   27     -9.98873    2.00000
   28     -9.95420    2.00000
   29     -9.77410    2.00000
   30     -9.26233    2.00000
   31     -8.85610    2.00000
   32     -8.54963    2.00000
   33     -8.32336    2.00000
   34     -8.03536    2.00000
   35     -7.54874    2.00000
   36     -7.09011    2.00000
   37     -6.90524    2.00000
   38     -6.73620    2.00000
   39     -6.68240    2.00000
   40     -6.57977    2.00000
   41     -6.50623    2.00000
   42     -6.25137    2.00000
   43     -6.09120    2.00000
   44     -5.99343    2.00000
   45     -5.42903    1.99991
   46     -4.82823    1.96504
   47     -4.50852    1.39355
   48     -4.34783    0.63084
   49     -3.89301    0.00971
   50     -3.65792    0.00093
   51     -3.24506    0.00001
   52     -3.11625    0.00000
   53     -2.92025    0.00000
   54     -2.33749    0.00000
   55     -2.22261    0.00000
   56     -1.59244    0.00000
   57     -1.37687    0.00000
   58     -0.66762    0.00000
   59     -0.00667    0.00000
   60      0.30971    0.00000
   61      1.26188    0.00000
   62      1.41949    0.00000
   63      1.70212    0.00000
   64      2.15946    0.00000
   65      2.54857    0.00000
   66      2.94655    0.00000
   67      3.05785    0.00000
   68      3.88839    0.00000
   69      4.46306    0.00000
   70      4.71549    0.00000
   71      5.26194    0.00000
   72      5.71557    0.00000
   73      5.99867    0.00000
   74      6.33150    0.00000
   75      6.66409    0.00000
   76      6.93926    0.00000
   77      7.11612    0.00000
   78      7.51805    0.00000
   79      7.83498    0.00000
   80      8.02101    0.00000
   81      8.40279    0.00000
   82      8.63082    0.00000
   83      8.84642    0.00000
   84      8.89643    0.00000
   85      9.03723    0.00000
   86      9.31971    0.00000
   87      9.41222    0.00000
   88      9.48156    0.00000
   89      9.55832    0.00000
   90      9.65055    0.00000
   91      9.82324    0.00000
   92     10.00635    0.00000
   93     10.01920    0.00000
   94     10.08793    0.00000
   95     10.18061    0.00000
   96     10.27834    0.00000
   97     10.35990    0.00000


Forces in eV/Ang:
  0 C     3.06071    1.55170   -0.10056
  1 C    -0.39689    4.27138   -0.32588
  2 C     0.13010   -0.04585   -0.02035
  3 C     0.33704   -0.24751    0.77545
  4 C     1.11814    3.31860   -2.98853
  5 C     4.43206    4.58863   -0.69212
  6 C     0.00193   -0.03862   -0.05896
  7 C    -0.34329   -0.14123   -0.18947
  8 C     0.90386   -0.77485    0.01508
  9 C    -0.13810   -2.87160    0.02391
 10 C     1.43551   -5.62875   -0.62482
 11 C    -1.01075   -2.76181    0.15495
 12 C     0.35134    0.24753    1.21102
 13 C    -0.53051   -0.40337   -0.36654
 14 C    -0.81139   -3.64492    1.39714
 15 C     0.03186   -0.06930   -0.02501
 16 C    -1.54870    2.05126    0.35978
 17 C    -0.41393   -0.10227   -0.16695
 18 C     0.15049    1.45583   -0.00660
 19 C    -6.29746   -5.72362    1.57242
 20 C    -0.19922   -0.45561   -0.03248
 21 C    -0.34886    0.09217    0.09488
 22 C     0.23710    4.90763   -0.20797
 23 C    -0.16505    0.45530    0.16083

System changes: positions 

Initializing position-dependent things.

Density initialized from wave functions
           .--------------------------------------.  
          /|                                      |  
         / |                                      |  
        /  |                                      |  
       /   |                                      |  
      /    |                                      |  
     /     |                                      |  
    /      |                                      |  
   /       |                                      |  
  /        |           C                          |  
 *         |   C C  CC    C  C                    |  
 |         | C          C  C    C                 |  
 |         .---C---C-C---C--C-CCC-----------------.  
 |        /    C     C    C                      /   
 |       /       C     C                        /    
 |      /                                      /     
 |     /                                      /      
 |    /                                      /       
 |   /                                      /        
 |  /                                      /         
 | /                                      /          
 |/                                      /           
 *--------------------------------------*            

Positions:
   0 C      7.559155    7.476570    5.484367
   1 C      8.742482    8.039760    5.152474
   2 C      6.570444   10.045993    5.224483
   3 C     10.367956    9.404812    4.391394
   4 C     10.801576    8.193451    4.295874
   5 C      9.899351    7.186927    4.768974
   6 C      7.809461   10.175293    4.985953
   7 C      9.014594    9.454269    4.849133
   8 C      5.515896    9.100573    5.462881
   9 C      3.620927    7.847595    5.596819
  10 C      6.153236    7.791661    5.588493
  11 C      4.062689    9.097822    5.529436
  12 C     10.775491    6.151466    5.193949
  13 C      9.365017    4.130598    5.114886
  14 C      9.515351    5.526831    5.215918
  15 C      5.713683    3.344108    5.326324
  16 C      5.809230    6.128811    5.456296
  17 C      8.347451    3.398159    5.170485
  18 C      4.484121    5.482373    5.523466
  19 C      8.169771    6.168797    5.301595
  20 C      7.022107    3.873258    5.245113
  21 C      4.689710    4.071328    5.433314
  22 C      3.244377    6.197316    5.663204
  23 C      7.020033    5.342121    5.299088

Unit cell:
           periodic     x           y           z      points  spacing
  1. axis:    yes   16.000000    0.000000    0.000000    80     0.2000
  2. axis:    yes    0.000000   16.000000    0.000000    80     0.2000
  3. axis:    yes    0.000000    0.000000   10.000000    48     0.2083

Effective grid spacing dv^(1/3) = 0.2027

                     log10-error:    total        iterations:
           time      wfs    density  energy       fermi  poisson
iter:   1  11:03:12          +inf  -176.355514    3      5      
iter:   2  11:03:13         -1.94  -176.311787    3      2      
iter:   3  11:03:13         -2.08  -176.277025    2      2      
iter:   4  11:03:14         -2.34  -176.269324    2      2      
iter:   5  11:03:14         -2.55  -176.268157    2      2      
iter:   6  11:03:15         -2.67  -176.267961    3      2      
iter:   7  11:03:16         -2.89  -176.267555    2      2      
iter:   8  11:03:16         -3.16  -176.267116    2      1      
iter:   9  11:03:17         -3.27  -176.267379    2      1      
iter:  10  11:03:17         -3.39  -176.267938    2      1      
iter:  11  11:03:18         -3.56  -176.268507    2      1      
iter:  12  11:03:19         -3.73  -176.267816    2      1      
iter:  13  11:03:19         -3.78  -176.267871    2      1      
iter:  14  11:03:20         -3.86  -176.268022    2      1      
iter:  15  11:03:20         -4.01  -176.267758    2      1      

Converged after 15 iterations.

Dipole moment: (0.104823, 0.201916, -0.065311) |e|*Ang

Energy contributions relative to reference atoms: (reference = -24663.074771)

Kinetic:       +121.795788
Potential:     -123.802319
External:        +0.000000
XC:            -177.085168
Entropy (-ST):   -0.274618
Local:           +2.961251
--------------------------
Free energy:   -176.405067
Extrapolated:  -176.267758

Fermi level: -4.43371

 Band  Eigenvalues  Occupancy
    0    -23.90312    2.00000
    1    -22.36941    2.00000
    2    -21.99005    2.00000
    3    -21.33597    2.00000
    4    -20.92090    2.00000
    5    -20.55746    2.00000
    6    -19.67799    2.00000
    7    -19.10956    2.00000
    8    -18.87524    2.00000
    9    -18.14106    2.00000
   10    -17.51512    2.00000
   11    -17.34626    2.00000
   12    -16.30645    2.00000
   13    -16.15276    2.00000
   14    -14.97653    2.00000
   15    -14.82473    2.00000
   16    -14.29175    2.00000
   17    -14.13291    2.00000
   18    -13.49796    2.00000
   19    -13.03639    2.00000
   20    -12.49404    2.00000
   21    -12.29349    2.00000
   22    -11.78860    2.00000
   23    -11.64099    2.00000
   24    -11.57884    2.00000
   25    -11.17405    2.00000
   26    -10.26544    2.00000
   27    -10.03617    2.00000
   28     -9.95371    2.00000
   29     -9.71792    2.00000
   30     -9.36630    2.00000
   31     -8.86622    2.00000
   32     -8.54720    2.00000
   33     -8.38905    2.00000
   34     -8.13634    2.00000
   35     -7.58827    2.00000
   36     -7.10277    2.00000
   37     -6.92887    2.00000
   38     -6.75181    2.00000
   39     -6.70173    2.00000
   40     -6.55539    2.00000
   41     -6.53224    2.00000
   42     -6.30234    2.00000
   43     -6.12350    2.00000
   44     -5.96306    2.00000
   45     -5.39683    1.99987
   46     -4.82562    1.96105
   47     -4.51449    1.38327
   48     -4.35998    0.64720
   49     -3.88008    0.00785
   50     -3.64406    0.00074
   51     -3.20982    0.00001
   52     -3.10264    0.00000
   53     -2.88733    0.00000
   54     -2.35301    0.00000
   55     -2.20183    0.00000
   56     -1.53932    0.00000
   57     -1.38305    0.00000
   58     -0.63550    0.00000
   59      0.05214    0.00000
   60      0.37997    0.00000
   61      1.45968    0.00000
   62      1.62007    0.00000
   63      1.93166    0.00000
   64      2.29237    0.00000
   65      2.60966    0.00000
   66      2.97286    0.00000
   67      3.22332    0.00000
   68      3.90949    0.00000
   69      4.53012    0.00000
   70      4.67723    0.00000
   71      5.20803    0.00000
   72      5.80198    0.00000
   73      5.94365    0.00000
   74      6.33937    0.00000
   75      6.67578    0.00000
   76      6.96622    0.00000
   77      7.11654    0.00000
   78      7.55198    0.00000
   79      7.92309    0.00000
   80      8.04417    0.00000
   81      8.45390    0.00000
   82      8.67068    0.00000
   83      8.85058    0.00000
   84      8.90933    0.00000
   85      9.06141    0.00000
   86      9.34432    0.00000
   87      9.41721    0.00000
   88      9.50153    0.00000
   89      9.59359    0.00000
   90      9.66001    0.00000
   91      9.81972    0.00000
   92      9.99305    0.00000
   93     10.01381    0.00000
   94     10.11390    0.00000
   95     10.20489    0.00000
   96     10.29437    0.00000
   97     10.38265    0.00000


Forces in eV/Ang:
  0 C     2.42310    0.62502   -0.06800
  1 C     0.30288    3.22103   -0.46519
  2 C    -0.00708   -0.16091    0.02246
  3 C     0.16840    0.43813    0.64594
  4 C     1.20277    3.02491   -2.83117
  5 C     4.16288    3.93995   -0.27678
  6 C     0.01906    0.02709   -0.04603
  7 C    -0.27611    0.27603   -0.24147
  8 C     0.75627   -1.30056    0.05072
  9 C    -0.23289   -3.16382    0.03737
 10 C     1.10394   -4.70263   -0.67380
 11 C    -0.62928   -2.56965    0.12581
 12 C    -0.50042    0.25702    0.96353
 13 C    -0.44293   -0.55761   -0.30369
 14 C    -0.82474   -2.74476    1.36145
 15 C    -0.20507    0.04360    0.00111
 16 C    -1.21274    1.96167    0.33745
 17 C    -0.60954   -0.27980   -0.16754
 18 C    -0.13894    1.35759    0.01266
 19 C    -4.38867   -4.32315    1.38714
 20 C    -0.09770   -0.37135   -0.05431
 21 C    -0.27480    0.18156    0.08460
 22 C     0.53312    5.00137   -0.24100
 23 C    -0.93556   -0.10324    0.26469

System changes: positions 

Initializing position-dependent things.

Density initialized from wave functions
           .--------------------------------------.  
          /|                                      |  
         / |                                      |  
        /  |                                      |  
       /   |                                      |  
      /    |                                      |  
     /     |                                      |  
    /      |                                      |  
   /       |                                      |  
  /        |           C                          |  
 *         |   C C  CC    C  C                    |  
 |         | C          C  C    C                 |  
 |         .---C---C-C---C--C-CCC-----------------.  
 |        /    C     C    C                      /   
 |       /       C     C                        /    
 |      /                                      /     
 |     /                                      /      
 |    /                                      /       
 |   /                                      /        
 |  /                                      /         
 | /                                      /          
 |/                                      /           
 *--------------------------------------*            

Positions:
   0 C      7.574207    7.476611    5.484018
   1 C      8.748293    8.058747    5.148265
   2 C      6.569699   10.044201    5.224868
   3 C     10.368376    9.411571    4.395610
   4 C     10.811069    8.214773    4.275325
   5 C      9.929375    7.213357    4.768981
   6 C      7.809691   10.175828    4.985671
   7 C      9.012852    9.458453    4.847050
   8 C      5.520853    9.088120    5.463443
   9 C      3.618694    7.822273    5.597169
  10 C      6.159887    7.760880    5.583167
  11 C      4.059868    9.079420    5.530238
  12 C     10.767426    6.153452    5.199965
  13 C      9.362120    4.125617    5.112914
  14 C      9.509067    5.510677    5.226001
  15 C      5.710943    3.345006    5.326464
  16 C      5.801781    6.143147    5.458727
  17 C      8.341870    3.395155    5.169220
  18 C      4.481615    5.492111    5.523659
  19 C      8.146309    6.143267    5.311118
  20 C      7.021883    3.870883    5.244594
  21 C      4.688012    4.073147    5.433900
  22 C      3.249888    6.235489    5.661221
  23 C      7.009098    5.338527    5.301607

Unit cell:
           periodic     x           y           z      points  spacing
  1. axis:    yes   16.000000    0.000000    0.000000    80     0.2000
  2. axis:    yes    0.000000   16.000000    0.000000    80     0.2000
  3. axis:    yes    0.000000    0.000000   10.000000    48     0.2083

Effective grid spacing dv^(1/3) = 0.2027

                     log10-error:    total        iterations:
           time      wfs    density  energy       fermi  poisson
iter:   1  11:03:22          +inf  -177.672401    3      5      
iter:   2  11:03:23         -1.85  -177.594505    2      2      
iter:   3  11:03:24         -2.04  -177.567606    3      2      
iter:   4  11:03:24         -2.17  -177.546120    3      2      
iter:   5  11:03:25         -2.48  -177.543754    2      2      
iter:   6  11:03:25         -2.62  -177.542459    3      2      
iter:   7  11:03:26         -2.82  -177.543003    2      2      
iter:   8  11:03:27         -2.99  -177.542993    2      2      
iter:   9  11:03:27         -3.23  -177.542793    2      1      
iter:  10  11:03:28         -3.39  -177.543196    2      1      
iter:  11  11:03:28         -3.46  -177.543941    2      1      
iter:  12  11:03:29         -3.68  -177.543246    2      1      
iter:  13  11:03:30         -3.75  -177.542934    2      1      
iter:  14  11:03:30         -3.79  -177.543346    2      1      
iter:  15  11:03:31         -3.88  -177.543029    2      1      
iter:  16  11:03:31         -4.27  -177.542816    2      1      

Converged after 16 iterations.

Dipole moment: (0.077518, 0.235690, -0.070913) |e|*Ang

Energy contributions relative to reference atoms: (reference = -24663.074771)

Kinetic:       +120.860866
Potential:     -123.862681
External:        +0.000000
XC:            -177.367682
Entropy (-ST):   -0.278409
Local:           +2.965887
--------------------------
Free energy:   -177.682020
Extrapolated:  -177.542816

Fermi level: -4.45646

 Band  Eigenvalues  Occupancy
    0    -23.68441    2.00000
    1    -22.39942    2.00000
    2    -21.86637    2.00000
    3    -21.28244    2.00000
    4    -20.79293    2.00000
    5    -20.53214    2.00000
    6    -19.67512    2.00000
    7    -19.11898    2.00000
    8    -18.84862    2.00000
    9    -18.12388    2.00000
   10    -17.50819    2.00000
   11    -17.31885    2.00000
   12    -16.32270    2.00000
   13    -16.16543    2.00000
   14    -14.98164    2.00000
   15    -14.80496    2.00000
   16    -14.17842    2.00000
   17    -14.13321    2.00000
   18    -13.51145    2.00000
   19    -13.01309    2.00000
   20    -12.45418    2.00000
   21    -12.31507    2.00000
   22    -11.63789    2.00000
   23    -11.62795    2.00000
   24    -11.52466    2.00000
   25    -11.08413    2.00000
   26    -10.35565    2.00000
   27    -10.07075    2.00000
   28     -9.96365    2.00000
   29     -9.68392    2.00000
   30     -9.48763    2.00000
   31     -8.88254    2.00000
   32     -8.57281    2.00000
   33     -8.46748    2.00000
   34     -8.16194    2.00000
   35     -7.67023    2.00000
   36     -7.10602    2.00000
   37     -6.96038    2.00000
   38     -6.78937    2.00000
   39     -6.72333    2.00000
   40     -6.56863    2.00000
   41     -6.51710    2.00000
   42     -6.32315    2.00000
   43     -6.13728    2.00000
   44     -5.96004    2.00000
   45     -5.32405    1.99966
   46     -4.82766    1.95231
   47     -4.53627    1.37914
   48     -4.38615    0.66227
   49     -3.87571    0.00599
   50     -3.65045    0.00063
   51     -3.16825    0.00001
   52     -3.07597    0.00000
   53     -2.84526    0.00000
   54     -2.39042    0.00000
   55     -2.16360    0.00000
   56     -1.49783    0.00000
   57     -1.37448    0.00000
   58     -0.60264    0.00000
   59      0.10581    0.00000
   60      0.46342    0.00000
   61      1.55826    0.00000
   62      2.04482    0.00000
   63      2.11763    0.00000
   64      2.56668    0.00000
   65      2.68854    0.00000
   66      2.96434    0.00000
   67      3.48574    0.00000
   68      3.97605    0.00000
   69      4.59537    0.00000
   70      4.65046    0.00000
   71      5.22660    0.00000
   72      5.80241    0.00000
   73      5.90485    0.00000
   74      6.38673    0.00000
   75      6.70773    0.00000
   76      6.98902    0.00000
   77      7.15173    0.00000
   78      7.59629    0.00000
   79      7.95950    0.00000
   80      8.03366    0.00000
   81      8.49386    0.00000
   82      8.69268    0.00000
   83      8.86215    0.00000
   84      8.91271    0.00000
   85      9.07328    0.00000
   86      9.35585    0.00000
   87      9.43148    0.00000
   88      9.52753    0.00000
   89      9.61669    0.00000
   90      9.67197    0.00000
   91      9.81556    0.00000
   92      9.94656    0.00000
   93     10.02504    0.00000
   94     10.13592    0.00000
   95     10.23440    0.00000
   96     10.32010    0.00000
   97     10.40850    0.00000


Forces in eV/Ang:
  0 C     2.17508    0.09947   -0.08812
  1 C     0.52278    2.07929   -0.43707
  2 C    -0.02045   -0.31277    0.04891
  3 C     0.06703    0.97497    0.48512
  4 C     1.30698    2.86192   -2.61650
  5 C     3.76008    3.34005    0.07268
  6 C    -0.20157    0.10199    0.01129
  7 C    -0.13653    0.61204   -0.33804
  8 C     0.55911   -1.62384    0.04608
  9 C    -0.26380   -3.31528    0.05605
 10 C     0.94251   -3.81695   -0.66748
 11 C    -0.37627   -2.50689    0.15293
 12 C    -1.01381    0.26767    0.72775
 13 C    -0.47966   -0.72117   -0.16013
 14 C    -0.94626   -2.22208    1.30158
 15 C    -0.28501    0.06847    0.00800
 16 C    -0.99710    1.62917    0.29614
 17 C    -0.56813   -0.37322   -0.19192
 18 C    -0.38695    1.23128    0.01933
 19 C    -2.82412   -3.15976    1.17612
 20 C    -0.21532   -0.36937   -0.06319
 21 C    -0.38194    0.43113    0.09839
 22 C     0.91469    5.14192   -0.28222
 23 C    -1.25486   -0.35406    0.34673

System changes: positions 

Initializing position-dependent things.

Density initialized from wave functions
           .--------------------------------------.  
          /|                                      |  
         / |                                      |  
        /  |                                      |  
       /   |                                      |  
      /    |                                      |  
     /     |                                      |  
    /      |                                      |  
   /       |                                      |  
  /        |           C                          |  
 *         |   C C  CC    C  C                    |  
 |         | C          C  C    C                 |  
 |         .---C---C-C---C--C-CC-C----------------.  
 |        /    C     C    C                      /   
 |       /       C     C                        /    
 |      /                                      /     
 |     /                                      /      
 |    /                                      /       
 |   /                                      /        
 |  /                                      /         
 | /                                      /          
 |/                                      /           
 *--------------------------------------*            

Positions:
   0 C      7.588851    7.474530    5.483364
   1 C      8.753925    8.069833    5.144818
   2 C      6.569281   10.041296    5.225371
   3 C     10.368350    9.421331    4.398645
   4 C     10.821266    8.235355    4.256478
   5 C      9.956162    7.235879    4.771066
   6 C      7.807679   10.176884    4.985915
   7 C      9.012275    9.464555    4.844195
   8 C      5.524325    9.074275    5.463838
   9 C      3.616481    7.796546    5.597657
  10 C      6.166010    7.735934    5.578092
  11 C      4.058297    9.061089    5.531401
  12 C     10.757150    6.155501    5.204441
  13 C      9.358581    4.119554    5.112163
  14 C      9.501654    5.496783    5.235561
  15 C      5.708212    3.345770    5.326584
  16 C      5.795386    6.154420    5.460812
  17 C      8.337376    3.391831    5.167720
  18 C      4.477629    5.500879    5.523852
  19 C      8.132100    6.124719    5.319122
  20 C      7.020157    3.868259    5.244062
  21 C      4.685015    4.077130    5.434654
  22 C      3.258164    6.274558    5.658949
  23 C      6.997616    5.334326    5.304580

Unit cell:
           periodic     x           y           z      points  spacing
  1. axis:    yes   16.000000    0.000000    0.000000    80     0.2000
  2. axis:    yes    0.000000   16.000000    0.000000    80     0.2000
  3. axis:    yes    0.000000    0.000000   10.000000    48     0.2083

Effective grid spacing dv^(1/3) = 0.2027

                     log10-error:    total        iterations:
           time      wfs    density  energy       fermi  poisson
iter:   1  11:03:33          +inf  -178.731381    3      5      
iter:   2  11:03:34         -1.84  -178.630918    3      2      
iter:   3  11:03:35         -2.10  -178.612377    3      2      
iter:   4  11:03:35         -2.22  -178.593644    3      2      
iter:   5  11:03:36         -2.55  -178.589914    3      2      
iter:   6  11:03:36         -2.72  -178.589684    2      2      
iter:   7  11:03:37         -2.90  -178.590394    2      2      
iter:   8  11:03:38         -3.18  -178.589799    2      1      
iter:   9  11:03:38         -3.37  -178.590047    2      1      
iter:  10  11:03:39         -3.54  -178.590356    2      1      
iter:  11  11:03:39         -3.61  -178.590581    2      1      
iter:  12  11:03:40         -3.83  -178.590936    2      1      
iter:  13  11:03:41         -3.92  -178.590532    2      1      
iter:  14  11:03:41         -3.98  -178.590672    2      1      
iter:  15  11:03:42         -4.05  -178.590436    2      1      

Converged after 15 iterations.

Dipole moment: (0.048318, 0.244150, -0.071200) |e|*Ang

Energy contributions relative to reference atoms: (reference = -24663.074771)

Kinetic:       +120.429033
Potential:     -124.131878
External:        +0.000000
XC:            -177.720475
Entropy (-ST):   -0.279888
Local:           +2.972828
--------------------------
Free energy:   -178.730380
Extrapolated:  -178.590436

Fermi level: -4.47657

 Band  Eigenvalues  Occupancy
    0    -23.55973    2.00000
    1    -22.41910    2.00000
    2    -21.77570    2.00000
    3    -21.23901    2.00000
    4    -20.71391    2.00000
    5    -20.51103    2.00000
    6    -19.65728    2.00000
    7    -19.15079    2.00000
    8    -18.83984    2.00000
    9    -18.10448    2.00000
   10    -17.51440    2.00000
   11    -17.28943    2.00000
   12    -16.36712    2.00000
   13    -16.17615    2.00000
   14    -14.97969    2.00000
   15    -14.81715    2.00000
   16    -14.18249    2.00000
   17    -14.07172    2.00000
   18    -13.51568    2.00000
   19    -12.99312    2.00000
   20    -12.42208    2.00000
   21    -12.32558    2.00000
   22    -11.62753    2.00000
   23    -11.55662    2.00000
   24    -11.44783    2.00000
   25    -11.03512    2.00000
   26    -10.48028    2.00000
   27    -10.07624    2.00000
   28     -9.96935    2.00000
   29     -9.71230    2.00000
   30     -9.53335    2.00000
   31     -8.91290    2.00000
   32     -8.61620    2.00000
   33     -8.48746    2.00000
   34     -8.17027    2.00000
   35     -7.76755    2.00000
   36     -7.10385    2.00000
   37     -6.98169    2.00000
   38     -6.83200    2.00000
   39     -6.74744    2.00000
   40     -6.59669    2.00000
   41     -6.49651    2.00000
   42     -6.32492    2.00000
   43     -6.14236    2.00000
   44     -5.98143    2.00000
   45     -5.25235    1.99915
   46     -4.83259    1.94471
   47     -4.55882    1.38954
   48     -4.40604    0.66128
   49     -3.87317    0.00478
   50     -3.65635    0.00055
   51     -3.12293    0.00000
   52     -3.05770    0.00000
   53     -2.81396    0.00000
   54     -2.39893    0.00000
   55     -2.09014    0.00000
   56     -1.50173    0.00000
   57     -1.34135    0.00000
   58     -0.58728    0.00000
   59      0.15126    0.00000
   60      0.54507    0.00000
   61      1.62300    0.00000
   62      2.15317    0.00000
   63      2.43437    0.00000
   64      2.76344    0.00000
   65      2.79584    0.00000
   66      3.07619    0.00000
   67      3.78442    0.00000
   68      4.02973    0.00000
   69      4.62368    0.00000
   70      4.65738    0.00000
   71      5.26110    0.00000
   72      5.77057    0.00000
   73      5.89244    0.00000
   74      6.43731    0.00000
   75      6.74803    0.00000
   76      6.99932    0.00000
   77      7.20091    0.00000
   78      7.62826    0.00000
   79      7.96590    0.00000
   80      8.01754    0.00000
   81      8.52073    0.00000
   82      8.70851    0.00000
   83      8.87332    0.00000
   84      8.91195    0.00000
   85      9.08090    0.00000
   86      9.34730    0.00000
   87      9.45760    0.00000
   88      9.55255    0.00000
   89      9.62960    0.00000
   90      9.67574    0.00000
   91      9.80848    0.00000
   92      9.92674    0.00000
   93     10.03889    0.00000
   94     10.14375    0.00000
   95     10.25455    0.00000
   96     10.32878    0.00000
   97     10.42661    0.00000


Forces in eV/Ang:
  0 C     1.82546   -0.25638   -0.05534
  1 C     0.76144    1.51399   -0.41749
  2 C    -0.18430   -0.46677    0.09671
  3 C    -0.01712    1.31474    0.35236
  4 C     1.35344    2.69430   -2.39143
  5 C     3.43656    2.89726    0.27977
  6 C    -0.19759    0.14612    0.02416
  7 C    -0.10467    0.77414   -0.37686
  8 C     0.44174   -1.80340    0.02889
  9 C    -0.27266   -3.30580    0.04316
 10 C     0.89505   -3.15188   -0.66428
 11 C    -0.20590   -2.42511    0.13318
 12 C    -1.29990    0.28285    0.54674
 13 C    -0.40095   -0.76357   -0.04728
 14 C    -0.93900   -1.74783    1.23872
 15 C    -0.51629    0.16341    0.02798
 16 C    -0.81523    1.29565    0.25748
 17 C    -0.68191   -0.51094   -0.20994
 18 C    -0.51074    1.09478    0.02197
 19 C    -1.85495   -2.47552    1.03188
 20 C    -0.25671   -0.36439   -0.07187
 21 C    -0.35457    0.50314    0.09677
 22 C     1.16977    5.05945   -0.30400
 23 C    -1.30325   -0.44525    0.38638

System changes: positions 

Initializing position-dependent things.

Density initialized from wave functions
           .--------------------------------------.  
          /|                                      |  
         / |                                      |  
        /  |                                      |  
       /   |                                      |  
      /    |                                      |  
     /     |                                      |  
    /      |                                      |  
   /       |                                      |  
  /        |           C                          |  
 *         |   C C  CC    C  C                    |  
 |         | C          C  C    C                 |  
 |         .---C---C-C---C--C-CC-C----------------.  
 |        /    C     C    C                      /   
 |       /       C     C                        /    
 |      /                                      /     
 |     /                                      /      
 |    /                                      /       
 |   /                                      /        
 |  /                                      /         
 | /                                      /          
 |/                                      /           
 *--------------------------------------*            

Positions:
   0 C      7.601396    7.470949    5.483062
   1 C      8.760800    8.078765    5.141707
   2 C      6.567201   10.037027    5.226317
   3 C     10.367845    9.432999    4.400756
   4 C     10.831897    8.255334    4.239088
   5 C      9.981115    7.256142    4.774178
   6 C      7.806086   10.178213    4.986176
   7 C      9.011654    9.471279    4.841104
   8 C      5.527171    9.059579    5.463986
   9 C      3.614341    7.771126    5.597943
  10 C      6.172649    7.714719    5.573004
  11 C      4.057489    9.042795    5.532357
  12 C     10.745831    6.157741    5.207825
  13 C      9.355799    4.113454    5.112313
  14 C      9.494417    5.485439    5.244805
  15 C      5.703285    3.347415    5.326882
  16 C      5.789928    6.162895    5.462619
  17 C      8.331700    3.387316    5.166024
  18 C      4.473114    5.508694    5.524034
  19 C      8.122314    6.108869    5.326392
  20 C      7.017963    3.865475    5.243471
  21 C      4.682353    4.081387    5.435397
  22 C      3.268332    6.313167    5.656509
  23 C      6.987311    5.330460    5.307739

Unit cell:
           periodic     x           y           z      points  spacing
  1. axis:    yes   16.000000    0.000000    0.000000    80     0.2000
  2. axis:    yes    0.000000   16.000000    0.000000    80     0.2000
  3. axis:    yes    0.000000    0.000000   10.000000    48     0.2083

Effective grid spacing dv^(1/3) = 0.2027

                     log10-error:    total        iterations:
           time      wfs    density  energy       fermi  poisson
iter:   1  11:03:44          +inf  -179.665595    3      5      
iter:   2  11:03:44         -1.80  -179.536658    3      2      
iter:   3  11:03:45         -2.12  -179.520430    3      2      
iter:   4  11:03:46         -2.24  -179.504170    3      2      
iter:   5  11:03:46         -2.53  -179.501397    2      2      
iter:   6  11:03:47         -2.69  -179.498773    3      2      
iter:   7  11:03:48         -2.83  -179.499083    2      2      
iter:   8  11:03:48         -2.95  -179.499703    2      2      
iter:   9  11:03:49         -3.32  -179.499793    2      1      
iter:  10  11:03:49         -3.39  -179.499593    2      1      
iter:  11  11:03:50         -3.65  -179.500081    2      1      
iter:  12  11:03:50         -3.73  -179.500230    2      1      
iter:  13  11:03:51         -3.93  -179.500074    2      1      
iter:  14  11:03:52         -4.04  -179.500151    2      1      

Converged after 14 iterations.

Dipole moment: (0.020004, 0.239749, -0.068322) |e|*Ang

Energy contributions relative to reference atoms: (reference = -24663.074771)

Kinetic:       +120.355573
Potential:     -124.575352
External:        +0.000000
XC:            -178.118896
Entropy (-ST):   -0.280064
Local:           +2.978556
--------------------------
Free energy:   -179.640183
Extrapolated:  -179.500151

Fermi level: -4.49572

 Band  Eigenvalues  Occupancy
    0    -23.47338    2.00000
    1    -22.43426    2.00000
    2    -21.71360    2.00000
    3    -21.20678    2.00000
    4    -20.65964    2.00000
    5    -20.49409    2.00000
    6    -19.63241    2.00000
    7    -19.19505    2.00000
    8    -18.82971    2.00000
    9    -18.08811    2.00000
   10    -17.53351    2.00000
   11    -17.26773    2.00000
   12    -16.43892    2.00000
   13    -16.16932    2.00000
   14    -14.97491    2.00000
   15    -14.84239    2.00000
   16    -14.19447    2.00000
   17    -14.02524    2.00000
   18    -13.51655    2.00000
   19    -12.97407    2.00000
   20    -12.39787    2.00000
   21    -12.33320    2.00000
   22    -11.61220    2.00000
   23    -11.54635    2.00000
   24    -11.35908    2.00000
   25    -11.00839    2.00000
   26    -10.58610    2.00000
   27    -10.08409    2.00000
   28     -9.97445    2.00000
   29     -9.77551    2.00000
   30     -9.53022    2.00000
   31     -8.96022    2.00000
   32     -8.64259    2.00000
   33     -8.49115    2.00000
   34     -8.17969    2.00000
   35     -7.86955    2.00000
   36     -7.09427    2.00000
   37     -6.98808    2.00000
   38     -6.87856    2.00000
   39     -6.77913    2.00000
   40     -6.61677    2.00000
   41     -6.48240    2.00000
   42     -6.32284    2.00000
   43     -6.14221    2.00000
   44     -6.00317    2.00000
   45     -5.19363    1.99814
   46     -4.83699    1.93620
   47     -4.58370    1.41354
   48     -4.42208    0.64758
   49     -3.87617    0.00407
   50     -3.66171    0.00048
   51     -3.08646    0.00000
   52     -3.02899    0.00000
   53     -2.78984    0.00000
   54     -2.40998    0.00000
   55     -1.98526    0.00000
   56     -1.52631    0.00000
   57     -1.30349    0.00000
   58     -0.57922    0.00000
   59      0.18875    0.00000
   60      0.63504    0.00000
   61      1.66606    0.00000
   62      2.21568    0.00000
   63      2.62775    0.00000
   64      2.81892    0.00000
   65      2.94110    0.00000
   66      3.26041    0.00000
   67      4.03199    0.00000
   68      4.20348    0.00000
   69      4.64644    0.00000
   70      4.69804    0.00000
   71      5.28932    0.00000
   72      5.74923    0.00000
   73      5.89386    0.00000
   74      6.50287    0.00000
   75      6.80195    0.00000
   76      7.00612    0.00000
   77      7.25472    0.00000
   78      7.65662    0.00000
   79      7.94014    0.00000
   80      8.04297    0.00000
   81      8.53749    0.00000
   82      8.72693    0.00000
   83      8.88338    0.00000
   84      8.91174    0.00000
   85      9.08744    0.00000
   86      9.33522    0.00000
   87      9.47177    0.00000
   88      9.57192    0.00000
   89      9.64016    0.00000
   90      9.68030    0.00000
   91      9.81432    0.00000
   92      9.93024    0.00000
   93     10.04948    0.00000
   94     10.14487    0.00000
   95     10.26865    0.00000
   96     10.32567    0.00000
   97     10.43579    0.00000


Forces in eV/Ang:
  0 C     1.65335   -0.47226   -0.07339
  1 C     0.84828    1.02655   -0.35880
  2 C    -0.14529   -0.55903    0.09485
  3 C    -0.06707    1.50142    0.25457
  4 C     1.34179    2.53724   -2.16155
  5 C     3.12545    2.58917    0.37526
  6 C    -0.37992    0.16999    0.06883
  7 C    -0.05796    0.86446   -0.40716
  8 C     0.26782   -1.87659   -0.00932
  9 C    -0.25545   -2.92105    0.05373
 10 C     0.80052   -2.53117   -0.63383
 11 C    -0.03543   -2.25056    0.12861
 12 C    -1.45315    0.28759    0.40371
 13 C    -0.45807   -0.85889    0.03852
 14 C    -0.92872   -1.43288    1.16435
 15 C    -0.54580    0.16673    0.02537
 16 C    -0.69155    0.96165    0.22930
 17 C    -0.63678   -0.54551   -0.23230
 18 C    -0.56067    0.94993    0.02306
 19 C    -1.18196   -1.97056    0.92372
 20 C    -0.34194   -0.36045   -0.07512
 21 C    -0.48138    0.64755    0.10747
 22 C     1.35554    4.57967   -0.33014
 23 C    -1.27125   -0.52685    0.38943

System changes: positions 

Initializing position-dependent things.

Density initialized from wave functions
           .--------------------------------------.  
          /|                                      |  
         / |                                      |  
        /  |                                      |  
       /   |                                      |  
      /    |                                      |  
     /     |                                      |  
    /      |                                      |  
   /       |                                      |  
  /        |           C                          |  
 *         |   C C  C     C  C                    |  
 |         | C       C  C  C    C                 |  
 |         .---C---C-C---C--C-CC-C----------------.  
 |        /    C     C    C                      /   
 |       /       C     C                        /    
 |      /                                      /     
 |     /                                      /      
 |    /                                      /       
 |   /                                      /        
 |  /                                      /         
 | /                                      /          
 |/                                      /           
 *--------------------------------------*            

Positions:
   0 C      7.615085    7.466067    5.482392
   1 C      8.768542    8.085914    5.138992
   2 C      6.565818   10.031417    5.227212
   3 C     10.367020    9.447048    4.402423
   4 C     10.843694    8.277029    4.221353
   5 C     10.007006    7.277525    4.777831
   6 C      7.801960   10.179832    4.986989
   7 C      9.011270    9.479138    4.837368
   8 C      5.528650    9.042868    5.463625
   9 C      3.612262    7.747674    5.598410
  10 C      6.179612    7.695554    5.567586
  11 C      4.057918    9.023703    5.533423
  12 C     10.732673    6.160342    5.210636
  13 C      9.351594    4.105518    5.113213
  14 C      9.486375    5.474275    5.254675
  15 C      5.697962    3.349037    5.327116
  16 C      5.784395    6.169178    5.464464
  17 C      8.326124    3.382179    5.163818
  18 C      4.468060    5.516214    5.524226
  19 C      8.114611    6.093389    5.334020
  20 C      7.014379    3.862224    5.242793
  21 C      4.677516    4.087765    5.436400
  22 C      3.281383    6.350854    5.653452
  23 C      6.977124    5.325893    5.311140

Unit cell:
           periodic     x           y           z      points  spacing
  1. axis:    yes   16.000000    0.000000    0.000000    80     0.2000
  2. axis:    yes    0.000000   16.000000    0.000000    80     0.2000
  3. axis:    yes    0.000000    0.000000   10.000000    48     0.2083

Effective grid spacing dv^(1/3) = 0.2027

                     log10-error:    total        iterations:
           time      wfs    density  energy       fermi  poisson
iter:   1  11:03:54          +inf  -180.527323    3      5      
iter:   2  11:03:54         -1.76  -180.371089    3      2      
iter:   3  11:03:55         -2.11  -180.354771    3      2      
iter:   4  11:03:56         -2.24  -180.339641    3      2      
iter:   5  11:03:56         -2.48  -180.335941    3      2      
iter:   6  11:03:57         -2.67  -180.332323    3      2      
iter:   7  11:03:57         -2.80  -180.333472    2      2      
iter:   8  11:03:58         -2.94  -180.333639    3      2      
iter:   9  11:03:59         -3.28  -180.333219    2      1      
iter:  10  11:03:59         -3.38  -180.332908    2      1      
iter:  11  11:04:00         -3.62  -180.333547    2      1      
iter:  12  11:04:00         -3.69  -180.334255    2      1      
iter:  13  11:04:01         -3.87  -180.333882    2      1      
iter:  14  11:04:01         -3.95  -180.333531    2      1      
iter:  15  11:04:02         -4.02  -180.333815    2      1      

Converged after 15 iterations.

Dipole moment: (-0.011301, 0.226613, -0.062658) |e|*Ang

Energy contributions relative to reference atoms: (reference = -24663.074771)

Kinetic:       +121.106902
Potential:     -125.627787
External:        +0.000000
XC:            -178.663050
Entropy (-ST):   -0.279585
Local:           +2.989912
--------------------------
Free energy:   -180.473607
Extrapolated:  -180.333815

Fermi level: -4.51193

 Band  Eigenvalues  Occupancy
    0    -23.39869    2.00000
    1    -22.44323    2.00000
    2    -21.66452    2.00000
    3    -21.18270    2.00000
    4    -20.62181    2.00000
    5    -20.48243    2.00000
    6    -19.60682    2.00000
    7    -19.24806    2.00000
    8    -18.82293    2.00000
    9    -18.08075    2.00000
   10    -17.55512    2.00000
   11    -17.24023    2.00000
   12    -16.51947    2.00000
   13    -16.16060    2.00000
   14    -14.97153    2.00000
   15    -14.86663    2.00000
   16    -14.19939    2.00000
   17    -13.99053    2.00000
   18    -13.51470    2.00000
   19    -12.95881    2.00000
   20    -12.38339    2.00000
   21    -12.33245    2.00000
   22    -11.59772    2.00000
   23    -11.55614    2.00000
   24    -11.27433    2.00000
   25    -10.99363    2.00000
   26    -10.66167    2.00000
   27    -10.10244    2.00000
   28     -9.97678    2.00000
   29     -9.83365    2.00000
   30     -9.51814    2.00000
   31     -9.02302    2.00000
   32     -8.65888    2.00000
   33     -8.49349    2.00000
   34     -8.19376    2.00000
   35     -7.98383    2.00000
   36     -7.08844    2.00000
   37     -6.98967    2.00000
   38     -6.93634    2.00000
   39     -6.82167    2.00000
   40     -6.63144    2.00000
   41     -6.47066    2.00000
   42     -6.31780    2.00000
   43     -6.14525    2.00000
   44     -6.02285    2.00000
   45     -5.14006    1.99627
   46     -4.83794    1.92607
   47     -4.60815    1.44714
   48     -4.43345    0.62658
   49     -3.87831    0.00354
   50     -3.66020    0.00040
   51     -3.06384    0.00000
   52     -2.99509    0.00000
   53     -2.76794    0.00000
   54     -2.39478    0.00000
   55     -1.85058    0.00000
   56     -1.54733    0.00000
   57     -1.26717    0.00000
   58     -0.57215    0.00000
   59      0.22808    0.00000
   60      0.72464    0.00000
   61      1.70139    0.00000
   62      2.29256    0.00000
   63      2.74131    0.00000
   64      2.84180    0.00000
   65      3.12311    0.00000
   66      3.41604    0.00000
   67      4.07365    0.00000
   68      4.49916    0.00000
   69      4.72015    0.00000
   70      4.78232    0.00000
   71      5.31114    0.00000
   72      5.71062    0.00000
   73      5.91526    0.00000
   74      6.58066    0.00000
   75      6.88966    0.00000
   76      7.02752    0.00000
   77      7.31509    0.00000
   78      7.69285    0.00000
   79      7.93091    0.00000
   80      8.09456    0.00000
   81      8.54563    0.00000
   82      8.75582    0.00000
   83      8.88932    0.00000
   84      8.91388    0.00000
   85      9.10047    0.00000
   86      9.32365    0.00000
   87      9.47579    0.00000
   88      9.58510    0.00000
   89      9.65292    0.00000
   90      9.68838    0.00000
   91      9.83176    0.00000
   92      9.95169    0.00000
   93     10.06285    0.00000
   94     10.14800    0.00000
   95     10.28201    0.00000
   96     10.31670    0.00000
   97     10.43212    0.00000


Forces in eV/Ang:
  0 C     1.44018   -0.64367   -0.08813
  1 C     0.99031    0.73981   -0.35120
  2 C    -0.32421   -0.69437    0.13807
  3 C    -0.09432    1.63466    0.14469
  4 C     1.28373    2.42400   -1.89234
  5 C     2.80993    2.25844    0.44955
  6 C    -0.30241    0.18715    0.06297
  7 C    -0.08838    0.90246   -0.40706
  8 C     0.18527   -1.90933   -0.04095
  9 C    -0.16973   -2.16132    0.02442
 10 C     0.75972   -2.06780   -0.59618
 11 C     0.13714   -1.98614    0.13452
 12 C    -1.50919    0.30786    0.26567
 13 C    -0.37471   -0.80595    0.09657
 14 C    -0.90862   -1.15485    1.08377
 15 C    -0.75371    0.26534    0.04501
 16 C    -0.55250    0.68122    0.19519
 17 C    -0.73083   -0.64445   -0.24613
 18 C    -0.55162    0.83210    0.02722
 19 C    -0.64103   -1.55049    0.83364
 20 C    -0.38212   -0.35879   -0.07816
 21 C    -0.43488    0.60064    0.09142
 22 C     1.30717    3.69113   -0.29734
 23 C    -1.20713   -0.57139    0.39619

System changes: positions 

Initializing position-dependent things.

Density initialized from wave functions
           .--------------------------------------.  
          /|                                      |  
         / |                                      |  
        /  |                                      |  
       /   |                                      |  
      /    |                                      |  
     /     |                                      |  
    /      |                                      |  
   /       |                                      |  
  /        |           C                          |  
 *         |   C C  C     C  C                    |  
 |         | C       C  C  C    C                 |  
 |         .---C---C-C---C--C-CC-C----------------.  
 |        /    C    C     C                      /   
 |       /       C     C                        /    
 |      /                                      /     
 |     /                                      /      
 |    /                                      /       
 |   /                                      /        
 |  /                                      /         
 | /                                      /          
 |/                                      /           
 *--------------------------------------*            

Positions:
   0 C      7.631247    7.458761    5.481241
   1 C      8.779920    8.093978    5.135430
   2 C      6.561417   10.022453    5.228969
   3 C     10.365900    9.466082    4.403467
   4 C     10.858195    8.304769    4.201136
   5 C     10.037763    7.302599    4.782866
   6 C      7.798236   10.182041    4.987814
   7 C      9.010014    9.489245    4.832643
   8 C      5.530050    9.021201    5.462737
   9 C      3.610936    7.728235    5.598540
  10 C      6.188717    7.674156    5.560984
  11 C      4.060231    9.002043    5.534978
  12 C     10.715969    6.164054    5.213028
  13 C      9.347325    4.096333    5.114839
  14 C      9.476098    5.461675    5.266749
  15 C      5.688253    3.352506    5.327691
  16 C      5.778421    6.174525    5.466517
  17 C      8.317450    3.374276    5.160776
  18 C      4.462139    5.524941    5.524526
  19 C      8.108064    6.075990    5.343354
  20 C      7.009258    3.857888    5.241889
  21 C      4.672107    4.094826    5.437447
  22 C      3.296635    6.387496    5.650075
  23 C      6.965298    5.319928    5.315566

Unit cell:
           periodic     x           y           z      points  spacing
  1. axis:    yes   16.000000    0.000000    0.000000    80     0.2000
  2. axis:    yes    0.000000   16.000000    0.000000    80     0.2000
  3. axis:    yes    0.000000    0.000000   10.000000    48     0.2083

Effective grid spacing dv^(1/3) = 0.2027

                     log10-error:    total        iterations:
           time      wfs    density  energy       fermi  poisson
iter:   1  11:04:04          +inf  -181.394747    3      5      
iter:   2  11:04:05         -1.70  -181.187211    3      2      
iter:   3  11:04:05         -2.05  -181.167176    3      2      
iter:   4  11:04:06         -2.21  -181.153680    3      2      
iter:   5  11:04:07         -2.38  -181.147278    3      2      
iter:   6  11:04:07         -2.62  -181.142119    2      2      
iter:   7  11:04:08         -2.76  -181.143070    2      2      
iter:   8  11:04:08         -2.89  -181.144360    3      2      
iter:   9  11:04:09         -3.15  -181.142846    2      1      
iter:  10  11:04:10         -3.30  -181.142397    2      1      
iter:  11  11:04:10         -3.54  -181.143277    2      1      
iter:  12  11:04:11         -3.62  -181.143219    2      1      
iter:  13  11:04:11         -3.79  -181.144092    2      1      
iter:  14  11:04:12         -3.67  -181.143523    2      1      
iter:  15  11:04:12         -4.05  -181.143503    2      1      

Converged after 15 iterations.

Dipole moment: (-0.046966, 0.211917, -0.053596) |e|*Ang

Energy contributions relative to reference atoms: (reference = -24663.074771)

Kinetic:       +122.474437
Potential:     -127.148061
External:        +0.000000
XC:            -179.326383
Entropy (-ST):   -0.279753
Local:           +2.996380
--------------------------
Free energy:   -181.283380
Extrapolated:  -181.143503

Fermi level: -4.53006

 Band  Eigenvalues  Occupancy
    0    -23.32223    2.00000
    1    -22.44774    2.00000
    2    -21.62859    2.00000
    3    -21.16344    2.00000
    4    -20.58946    2.00000
    5    -20.47802    2.00000
    6    -19.57431    2.00000
    7    -19.30247    2.00000
    8    -18.81168    2.00000
    9    -18.07625    2.00000
   10    -17.58038    2.00000
   11    -17.21199    2.00000
   12    -16.59468    2.00000
   13    -16.14982    2.00000
   14    -14.97105    2.00000
   15    -14.88329    2.00000
   16    -14.19529    2.00000
   17    -13.95973    2.00000
   18    -13.51061    2.00000
   19    -12.94659    2.00000
   20    -12.38137    2.00000
   21    -12.33153    2.00000
   22    -11.59002    2.00000
   23    -11.56206    2.00000
   24    -11.19045    2.00000
   25    -10.98501    2.00000
   26    -10.70537    2.00000
   27    -10.13722    2.00000
   28     -9.98004    2.00000
   29     -9.87999    2.00000
   30     -9.51009    2.00000
   31     -9.10633    2.00000
   32     -8.67166    2.00000
   33     -8.49492    2.00000
   34     -8.21387    2.00000
   35     -8.10940    2.00000
   36     -7.07313    2.00000
   37     -7.01844    2.00000
   38     -6.97976    2.00000
   39     -6.86670    2.00000
   40     -6.63979    2.00000
   41     -6.45982    2.00000
   42     -6.30991    2.00000
   43     -6.14348    2.00000
   44     -6.03077    2.00000
   45     -5.09254    1.99281
   46     -4.83548    1.90993
   47     -4.63759    1.49121
   48     -4.44602    0.60293
   49     -3.87404    0.00283
   50     -3.64509    0.00029
   51     -3.05362    0.00000
   52     -2.94656    0.00000
   53     -2.74867    0.00000
   54     -2.39368    0.00000
   55     -1.69543    0.00000
   56     -1.56300    0.00000
   57     -1.22816    0.00000
   58     -0.56153    0.00000
   59      0.26696    0.00000
   60      0.82263    0.00000
   61      1.72605    0.00000
   62      2.38088    0.00000
   63      2.84481    0.00000
   64      2.88518    0.00000
   65      3.29257    0.00000
   66      3.58465    0.00000
   67      4.10612    0.00000
   68      4.62424    0.00000
   69      4.79284    0.00000
   70      5.02345    0.00000
   71      5.33111    0.00000
   72      5.70031    0.00000
   73      5.94548    0.00000
   74      6.64612    0.00000
   75      6.93664    0.00000
   76      7.11858    0.00000
   77      7.37602    0.00000
   78      7.75392    0.00000
   79      7.95636    0.00000
   80      8.18155    0.00000
   81      8.55511    0.00000
   82      8.79648    0.00000
   83      8.89511    0.00000
   84      8.92015    0.00000
   85      9.12363    0.00000
   86      9.30782    0.00000
   87      9.47384    0.00000
   88      9.59316    0.00000
   89      9.67025    0.00000
   90      9.70544    0.00000
   91      9.83959    0.00000
   92      9.98507    0.00000
   93     10.08002    0.00000
   94     10.17313    0.00000
   95     10.29366    0.00000
   96     10.31029    0.00000
   97     10.41328    0.00000


Forces in eV/Ang:
  0 C     1.32559   -0.73074   -0.13408
  1 C     1.00966    0.36967   -0.26636
  2 C    -0.20161   -0.75214    0.12298
  3 C    -0.12017    1.67802    0.02570
  4 C     1.19899    2.23124   -1.54550
  5 C     2.42646    1.93509    0.48337
  6 C    -0.53902    0.17002    0.10965
  7 C    -0.05942    0.89213   -0.41874
  8 C     0.17588   -1.79430   -0.04559
  9 C    -0.05989   -1.00631   -0.00040
 10 C     0.73262   -1.55855   -0.55734
 11 C     0.34665   -1.50601    0.09273
 12 C    -1.56381    0.31590    0.13187
 13 C    -0.48563   -0.90262    0.17701
 14 C    -0.80706   -0.79703    0.92943
 15 C    -0.70781    0.22494    0.05199
 16 C    -0.37520    0.34772    0.14785
 17 C    -0.58645   -0.57208   -0.25042
 18 C    -0.47325    0.65440    0.02345
 19 C    -0.23949   -1.13525    0.74357
 20 C    -0.47981   -0.35882   -0.06409
 21 C    -0.61977    0.70580    0.10271
 22 C     1.06642    2.19868   -0.24173
 23 C    -1.03930   -0.58899    0.41279

System changes: positions 

Initializing position-dependent things.

Density initialized from wave functions
           .--------------------------------------.  
          /|                                      |  
         / |                                      |  
        /  |                                      |  
       /   |                                      |  
      /    |                                      |  
     /     |                                      |  
    /      |                                      |  
   /       |                                      |  
  /        |           C                          |  
 *         |   C C  C     C  C                    |  
 |         | C       C  C  C    C                 |  
 |         .---C---C-C---C-C--CC-C----------------.  
 |        /    C    C     C                      /   
 |       /       C     C                        /    
 |      /                                      /     
 |     /                                      /      
 |    /                                      /       
 |   /                                      /        
 |  /                                      /         
 | /                                      /          
 |/                                      /           
 *--------------------------------------*            

Positions:
   0 C      7.648660    7.450666    5.479432
   1 C      8.792064    8.100202    5.132425
   2 C      6.558633   10.012483    5.230572
   3 C     10.364556    9.486658    4.403647
   4 C     10.873197    8.333536    4.182055
   5 C     10.068351    7.327788    4.788334
   6 C      7.791282   10.184121    4.989233
   7 C      9.008952    9.499855    4.827385
   8 C      5.532177    8.999179    5.461890
   9 C      3.610662    7.719173    5.598413
  10 C      6.198715    7.654231    5.554045
  11 C      4.064614    8.983397    5.536143
  12 C     10.697469    6.168178    5.214699
  13 C      9.341052    4.085060    5.117255
  14 C      9.466041    5.450815    5.278440
  15 C      5.678889    3.355487    5.328363
  16 C      5.773437    6.177784    5.468336
  17 C      8.309973    3.366934    5.157472
  18 C      4.456810    5.532951    5.524793
  19 C      8.102651    6.059669    5.353025
  20 C      7.002690    3.853107    5.241096
  21 C      4.663905    4.103699    5.438761
  22 C      3.309763    6.411635    5.647084
  23 C      6.954179    5.313429    5.320620

Unit cell:
           periodic     x           y           z      points  spacing
  1. axis:    yes   16.000000    0.000000    0.000000    80     0.2000
  2. axis:    yes    0.000000   16.000000    0.000000    80     0.2000
  3. axis:    yes    0.000000    0.000000   10.000000    48     0.2083

Effective grid spacing dv^(1/3) = 0.2027

                     log10-error:    total        iterations:
           time      wfs    density  energy       fermi  poisson
iter:   1  11:04:15          +inf  -181.904183    3      5      
iter:   2  11:04:15         -1.82  -181.797560    3      2      
iter:   3  11:04:16         -2.12  -181.785714    3      2      
iter:   4  11:04:16         -2.29  -181.780171    3      2      
iter:   5  11:04:17         -2.45  -181.776765    3      2      
iter:   6  11:04:18         -2.69  -181.771583    2      2      
iter:   7  11:04:18         -2.82  -181.772597    2      2      
iter:   8  11:04:19         -2.96  -181.773997    3      2      
iter:   9  11:04:20         -3.21  -181.772440    2      1      
iter:  10  11:04:20         -3.34  -181.772196    2      1      
iter:  11  11:04:21         -3.60  -181.773288    2      1      
iter:  12  11:04:21         -3.66  -181.773134    2      1      
iter:  13  11:04:22         -3.82  -181.773780    2      1      
iter:  14  11:04:22         -3.67  -181.773598    2      1      
iter:  15  11:04:23         -4.09  -181.773501    2      1      

Converged after 15 iterations.

Dipole moment: (-0.074694, 0.200465, -0.042834) |e|*Ang

Energy contributions relative to reference atoms: (reference = -24663.074771)

Kinetic:       +123.992349
Potential:     -128.690840
External:        +0.000000
XC:            -179.937549
Entropy (-ST):   -0.281736
Local:           +3.003407
--------------------------
Free energy:   -181.914369
Extrapolated:  -181.773501

Fermi level: -4.54354

 Band  Eigenvalues  Occupancy
    0    -23.25871    2.00000
    1    -22.44515    2.00000
    2    -21.61056    2.00000
    3    -21.15217    2.00000
    4    -20.56968    2.00000
    5    -20.47869    2.00000
    6    -19.55328    2.00000
    7    -19.32462    2.00000
    8    -18.80623    2.00000
    9    -18.08048    2.00000
   10    -17.59372    2.00000
   11    -17.18637    2.00000
   12    -16.63108    2.00000
   13    -16.15847    2.00000
   14    -14.97128    2.00000
   15    -14.88763    2.00000
   16    -14.18817    2.00000
   17    -13.93750    2.00000
   18    -13.50607    2.00000
   19    -12.94223    2.00000
   20    -12.39040    2.00000
   21    -12.32635    2.00000
   22    -11.60133    2.00000
   23    -11.54907    2.00000
   24    -11.12003    2.00000
   25    -10.97781    2.00000
   26    -10.71609    2.00000
   27    -10.18474    2.00000
   28     -9.97966    2.00000
   29     -9.90889    2.00000
   30     -9.50980    2.00000
   31     -9.20083    2.00000
   32     -8.68349    2.00000
   33     -8.50973    2.00000
   34     -8.23730    2.00000
   35     -8.20995    2.00000
   36     -7.09468    2.00000
   37     -7.06108    2.00000
   38     -6.97825    2.00000
   39     -6.89448    2.00000
   40     -6.64253    2.00000
   41     -6.44820    2.00000
   42     -6.30242    2.00000
   43     -6.14852    2.00000
   44     -6.03323    2.00000
   45     -5.05719    1.98831
   46     -4.83092    1.89307
   47     -4.66034    1.52559
   48     -4.45657    0.59066
   49     -3.86089    0.00217
   50     -3.62252    0.00020
   51     -3.04503    0.00000
   52     -2.92389    0.00000
   53     -2.73119    0.00000
   54     -2.36612    0.00000
   55     -1.61310    0.00000
   56     -1.51985    0.00000
   57     -1.19844    0.00000
   58     -0.54783    0.00000
   59      0.30728    0.00000
   60      0.88662    0.00000
   61      1.74023    0.00000
   62      2.44389    0.00000
   63      2.89810    0.00000
   64      2.99555    0.00000
   65      3.39911    0.00000
   66      3.75438    0.00000
   67      4.12851    0.00000
   68      4.69036    0.00000
   69      4.86155    0.00000
   70      5.21117    0.00000
   71      5.34923    0.00000
   72      5.69738    0.00000
   73      5.99760    0.00000
   74      6.69769    0.00000
   75      6.93896    0.00000
   76      7.20905    0.00000
   77      7.44651    0.00000
   78      7.82475    0.00000
   79      8.00217    0.00000
   80      8.27240    0.00000
   81      8.54578    0.00000
   82      8.82889    0.00000
   83      8.89547    0.00000
   84      8.92675    0.00000
   85      9.15080    0.00000
   86      9.29411    0.00000
   87      9.46852    0.00000
   88      9.59367    0.00000
   89      9.68496    0.00000
   90      9.72856    0.00000
   91      9.83387    0.00000
   92     10.00129    0.00000
   93     10.09375    0.00000
   94     10.22940    0.00000
   95     10.29557    0.00000
   96     10.32170    0.00000
   97     10.39221    0.00000


Forces in eV/Ang:
  0 C     1.15252   -0.82144   -0.13804
  1 C     1.07661    0.17695   -0.22081
  2 C    -0.37860   -0.82969    0.16489
  3 C    -0.10431    1.66837   -0.11408
  4 C     1.08267    2.05121   -1.21069
  5 C     2.00972    1.64487    0.46336
  6 C    -0.35432    0.13923    0.07070
  7 C    -0.14067    0.83129   -0.37392
  8 C     0.25338   -1.65410   -0.08975
  9 C    -0.00765   -0.17112   -0.02174
 10 C     0.69048   -1.11666   -0.48931
 11 C     0.57575   -0.96770    0.08167
 12 C    -1.48372    0.32807   -0.00502
 13 C    -0.33223   -0.74176    0.26774
 14 C    -0.71203   -0.59343    0.78689
 15 C    -0.89915    0.31261    0.07421
 16 C    -0.15836    0.08246    0.09581
 17 C    -0.75246   -0.64804   -0.22705
 18 C    -0.38922    0.50414    0.01529
 19 C     0.09243   -0.76255    0.66734
 20 C    -0.49632   -0.34754   -0.04494
 21 C    -0.50945    0.55598    0.08154
 22 C     0.69853    0.95669   -0.17768
 23 C    -0.86800   -0.58939    0.42144

System changes: positions 

Initializing position-dependent things.

Density initialized from wave functions
           .--------------------------------------.  
          /|                                      |  
         / |                                      |  
        /  |                                      |  
       /   |                                      |  
      /    |                                      |  
     /     |                                      |  
    /      |                                      |  
   /       |                                      |  
  /        |           C                          |  
 *         |   C C  C     C  C                    |  
 |         | C       C  C   C   C                 |  
 |         .---C---C-C---C-C--CC-C----------------.  
 |        /    C    C     C                      /   
 |       /       C     C                        /    
 |      /                                      /     
 |     /                                      /      
 |    /                                      /       
 |   /                                      /        
 |  /                                      /         
 | /                                      /          
 |/                                      /           
 *--------------------------------------*            

Positions:
   0 C      7.666714    7.441281    5.477449
   1 C      8.805934    8.106292    5.129483
   2 C      6.553431   10.000900    5.232826
   3 C     10.363466    9.508762    4.402525
   4 C     10.888569    8.363883    4.163910
   5 C     10.098449    7.353564    4.793780
   6 C      7.786362   10.185964    4.990184
   7 C      9.006660    9.510646    4.822194
   8 C      5.536037    8.976609    5.460485
   9 C      3.610699    7.716621    5.598085
  10 C      6.209487    7.635353    5.547074
  11 C      4.071681    8.968464    5.537366
  12 C     10.678399    6.172861    5.215426
  13 C      9.336125    4.074816    5.120790
  14 C      9.455894    5.439810    5.290024
  15 C      5.666458    3.359764    5.329350
  16 C      5.770068    6.179459    5.469845
  17 C      8.299451    3.357970    5.154185
  18 C      4.451964    5.540574    5.524976
  19 C      8.098357    6.044333    5.363247
  20 C      6.995483    3.847930    5.240471
  21 C      4.656534    4.111342    5.439948
  22 C      3.319500    6.426352    5.644514
  23 C      6.943628    5.306391    5.326319

Unit cell:
           periodic     x           y           z      points  spacing
  1. axis:    yes   16.000000    0.000000    0.000000    80     0.2000
  2. axis:    yes    0.000000   16.000000    0.000000    80     0.2000
  3. axis:    yes    0.000000    0.000000   10.000000    48     0.2083

Effective grid spacing dv^(1/3) = 0.2027

                     log10-error:    total        iterations:
           time      wfs    density  energy       fermi  poisson
iter:   1  11:04:25          +inf  -182.360250    3      5      
iter:   2  11:04:26         -1.92  -182.305207    3      2      
iter:   3  11:04:26         -2.21  -182.300160    3      2      
iter:   4  11:04:27         -2.40  -182.295425    3      1      
iter:   5  11:04:28         -2.53  -182.299251    3      2      
iter:   6  11:04:28         -2.72  -182.292426    3      2      
iter:   7  11:04:29         -2.76  -182.296029    3      2      
iter:   8  11:04:29         -3.00  -182.293212    3      1      
iter:   9  11:04:30         -3.22  -182.292705    2      1      
iter:  10  11:04:31         -3.38  -182.294091    2      1      
iter:  11  11:04:31         -3.47  -182.295223    2      1      
iter:  12  11:04:32         -3.74  -182.295500    2      1      
iter:  13  11:04:32         -3.79  -182.295256    2      1      
iter:  14  11:04:33         -3.94  -182.294947    2      1      
iter:  15  11:04:34         -4.08  -182.295132    2      1      

Converged after 15 iterations.

Dipole moment: (-0.094201, 0.189820, -0.030985) |e|*Ang

Energy contributions relative to reference atoms: (reference = -24663.074771)

Kinetic:       +124.694924
Potential:     -129.517187
External:        +0.000000
XC:            -180.329755
Entropy (-ST):   -0.284378
Local:           +2.999076
--------------------------
Free energy:   -182.437321
Extrapolated:  -182.295132

Fermi level: -4.55518

 Band  Eigenvalues  Occupancy
    0    -23.20497    2.00000
    1    -22.43695    2.00000
    2    -21.60506    2.00000
    3    -21.14447    2.00000
    4    -20.55460    2.00000
    5    -20.47485    2.00000
    6    -19.53425    2.00000
    7    -19.32530    2.00000
    8    -18.79427    2.00000
    9    -18.07290    2.00000
   10    -17.60556    2.00000
   11    -17.16879    2.00000
   12    -16.64494    2.00000
   13    -16.16503    2.00000
   14    -14.97838    2.00000
   15    -14.88676    2.00000
   16    -14.17779    2.00000
   17    -13.91745    2.00000
   18    -13.49909    2.00000
   19    -12.94786    2.00000
   20    -12.40549    2.00000
   21    -12.32565    2.00000
   22    -11.60851    2.00000
   23    -11.53022    2.00000
   24    -11.06558    2.00000
   25    -10.96741    2.00000
   26    -10.71589    2.00000
   27    -10.23385    2.00000
   28     -9.98123    2.00000
   29     -9.92478    2.00000
   30     -9.51351    2.00000
   31     -9.30349    2.00000
   32     -8.69601    2.00000
   33     -8.54042    2.00000
   34     -8.29018    2.00000
   35     -8.23566    2.00000
   36     -7.14912    2.00000
   37     -7.04441    2.00000
   38     -6.97129    2.00000
   39     -6.90287    2.00000
   40     -6.64151    2.00000
   41     -6.44065    2.00000
   42     -6.29468    2.00000
   43     -6.14238    2.00000
   44     -6.02354    2.00000
   45     -5.04172    1.98470
   46     -4.82741    1.87665
   47     -4.67888    1.55008
   48     -4.46731    0.58686
   49     -3.84009    0.00157
   50     -3.59657    0.00014
   51     -3.04797    0.00000
   52     -2.90385    0.00000
   53     -2.72379    0.00000
   54     -2.36318    0.00000
   55     -1.60564    0.00000
   56     -1.45184    0.00000
   57     -1.17539    0.00000
   58     -0.53526    0.00000
   59      0.33876    0.00000
   60      0.93435    0.00000
   61      1.74149    0.00000
   62      2.47518    0.00000
   63      2.94247    0.00000
   64      3.10540    0.00000
   65      3.46050    0.00000
   66      3.91118    0.00000
   67      4.16635    0.00000
   68      4.74111    0.00000
   69      4.93342    0.00000
   70      5.34657    0.00000
   71      5.37160    0.00000
   72      5.75580    0.00000
   73      6.05497    0.00000
   74      6.71490    0.00000
   75      6.94573    0.00000
   76      7.25559    0.00000
   77      7.51459    0.00000
   78      7.88887    0.00000
   79      8.06940    0.00000
   80      8.34002    0.00000
   81      8.53622    0.00000
   82      8.84803    0.00000
   83      8.90203    0.00000
   84      8.93571    0.00000
   85      9.17438    0.00000
   86      9.28683    0.00000
   87      9.46520    0.00000
   88      9.58822    0.00000
   89      9.68950    0.00000
   90      9.75325    0.00000
   91      9.83021    0.00000
   92     10.00229    0.00000
   93     10.10289    0.00000
   94     10.27530    0.00000
   95     10.30005    0.00000
   96     10.35167    0.00000
   97     10.37844    0.00000


Forces in eV/Ang:
  0 C     1.02063   -0.81689   -0.20258
  1 C     1.03856   -0.02621   -0.16226
  2 C    -0.17246   -0.83653    0.14214
  3 C    -0.10558    1.61757   -0.20512
  4 C     0.94112    1.86483   -0.85849
  5 C     1.64395    1.37335    0.41695
  6 C    -0.56500    0.09241    0.10554
  7 C    -0.09880    0.75420   -0.36096
  8 C     0.31801   -1.49145   -0.07870
  9 C    -0.02457    0.21459   -0.02758
 10 C     0.67507   -0.74357   -0.45663
 11 C     0.73486   -0.48325    0.05028
 12 C    -1.42328    0.37318   -0.09700
 13 C    -0.49559   -0.83703    0.30379
 14 C    -0.58084   -0.35412    0.65419
 15 C    -0.78914    0.22748    0.02964
 16 C    -0.00912   -0.14678    0.05614
 17 C    -0.51700   -0.51337   -0.21724
 18 C    -0.27202    0.33864    0.00438
 19 C     0.31439   -0.48627    0.60780
 20 C    -0.59375   -0.34570   -0.02998
 21 C    -0.64567    0.58591    0.07412
 22 C     0.36611    0.17455   -0.11918
 23 C    -0.67469   -0.55379    0.40034

System changes: positions 

Initializing position-dependent things.

Density initialized from wave functions
           .--------------------------------------.  
          /|                                      |  
         / |                                      |  
        /  |                                      |  
       /   |                                      |  
      /    |                                      |  
     /     |                                      |  
    /      |                                      |  
   /       |                                      |  
  /        |           C                          |  
 *         |   C C  C     C  C                    |  
 |         | C       C  C   C   C                 |  
 |         .---C---C-C--C--C--CC-C----------------.  
[...]

Fermi level: -4.52814

 Band  Eigenvalues  Occupancy
    0    -23.05023    2.00000
    1    -22.19586    2.00000
    2    -21.65379    2.00000
    3    -21.15361    2.00000
    4    -20.52875    2.00000
    5    -20.37880    2.00000
    6    -19.47890    2.00000
    7    -19.29095    2.00000
    8    -18.55446    2.00000
    9    -18.04043    2.00000
   10    -17.78746    2.00000
   11    -17.08093    2.00000
   12    -16.59555    2.00000
   13    -16.18080    2.00000
   14    -15.17793    2.00000
   15    -15.03135    2.00000
   16    -14.23560    2.00000
   17    -13.81495    2.00000
   18    -13.18442    2.00000
   19    -13.00123    2.00000
   20    -12.50130    2.00000
   21    -12.39913    2.00000
   22    -11.71176    2.00000
   23    -11.44411    2.00000
   24    -11.02551    2.00000
   25    -10.82087    2.00000
   26    -10.72465    2.00000
   27    -10.70771    2.00000
   28    -10.02628    2.00000
   29     -9.88250    2.00000
   30     -9.68883    2.00000
   31     -9.57155    2.00000
   32     -9.20120    2.00000
   33     -8.77683    2.00000
   34     -8.39555    2.00000
   35     -8.18592    2.00000
   36     -7.17322    2.00000
   37     -7.04474    2.00000
   38     -6.90905    2.00000
   39     -6.84116    2.00000
   40     -6.57528    2.00000
   41     -6.51673    2.00000
   42     -6.34789    2.00000
   43     -6.06065    2.00000
   44     -5.95634    2.00000
   45     -5.49798    1.99988
   46     -4.78256    1.85436
   47     -4.65521    1.56172
   48     -4.43940    0.58328
   49     -3.71945    0.00061
   50     -3.57364    0.00014
   51     -3.03863    0.00000
   52     -2.88400    0.00000
   53     -2.68915    0.00000
   54     -2.17624    0.00000
   55     -1.69075    0.00000
   56     -1.36149    0.00000
   57     -1.28426    0.00000
   58     -0.34097    0.00000
   59      0.46045    0.00000
   60      1.09120    0.00000
   61      2.00031    0.00000
   62      2.79657    0.00000
   63      3.46683    0.00000
   64      3.51346    0.00000
   65      3.62114    0.00000
   66      4.32837    0.00000
   67      4.51944    0.00000
   68      4.88895    0.00000
   69      4.90677    0.00000
   70      5.42719    0.00000
   71      5.72737    0.00000
   72      5.85157    0.00000
   73      6.26712    0.00000
   74      6.45663    0.00000
   75      6.76229    0.00000
   76      7.16840    0.00000
   77      7.38933    0.00000
   78      7.87521    0.00000
   79      8.11807    0.00000
   80      8.31263    0.00000
   81      8.53679    0.00000
   82      8.82913    0.00000
   83      8.97240    0.00000
   84      9.11529    0.00000
   85      9.20219    0.00000
   86      9.30051    0.00000
   87      9.50607    0.00000
   88      9.51960    0.00000
   89      9.58847    0.00000
   90      9.65343    0.00000
   91      9.73873    0.00000
   92     10.07468    0.00000
   93     10.25655    0.00000
   94     10.36317    0.00000
   95     10.38722    0.00000
   96     10.41217    0.00000
   97     10.58884    0.00000


Forces in eV/Ang:
  0 C    -0.03284   -0.00476   -0.01740
  1 C     0.10566   -0.18559    0.02455
  2 C    -0.00619   -0.08461    0.00119
  3 C    -0.09934    0.10642    0.02651
  4 C    -0.08074   -0.13560   -0.00940
  5 C     0.06386    0.01744    0.00737
  6 C     0.11437   -0.00003   -0.00766
  7 C    -0.00400    0.02025    0.03561
  8 C    -0.02361   -0.01611   -0.01459
  9 C     0.01374    0.03802   -0.01517
 10 C    -0.05196    0.08889   -0.04838
 11 C    -0.04249   -0.00988   -0.05345
 12 C     0.03325    0.05458   -0.01283
 13 C    -0.02954   -0.02179    0.02209
 14 C    -0.02531    0.02814   -0.08869
 15 C     0.06573    0.03120    0.10392
 16 C    -0.01454   -0.09910    0.04457
 17 C    -0.03474    0.01720   -0.01999
 18 C    -0.07886   -0.04150    0.01735
 19 C     0.10894    0.10673    0.00728
 20 C     0.00073    0.07768   -0.06995
 21 C     0.06383   -0.02244   -0.08805
 22 C    -0.03334    0.05164    0.09742
 23 C    -0.03916   -0.01380    0.04707

System changes: positions 

Initializing position-dependent things.

Density initialized from wave functions
           .--------------------------------------.  
          /|                                      |  
         / |                                      |  
        /  |                                      |  
       /   |                                      |  
      /    |                                      |  
     /     |                                      |  
    /      |                                      |  
   /       |                                      |  
  /        |                                      |  
 *         |   C C  C  C  C  C   C                |  
 |         | C       C   C  C  C C                |  
 |         .---C---C-C--C-----C-------------------.  
 |        /    CC   C     CC                     /   
 |       /             C                        /    
 |      /                                      /     
 |     /                                      /      
 |    /                                      /       
 |   /                                      /        
 |  /                                      /         
 | /                                      /          
 |/                                      /           
 *--------------------------------------*            

Positions:
   0 C      7.813404    7.305010    5.135029
   1 C      8.915954    8.155020    4.950626
   2 C      6.567194    9.812116    5.184477
   3 C     10.401215    9.946242    4.643404
   4 C     11.052202    8.828873    4.621884
   5 C     10.283732    7.576311    4.806338
   6 C      7.741736   10.210975    4.989667
   7 C      9.020847    9.649935    4.848933
   8 C      5.656344    8.734532    5.353900
   9 C      3.635414    7.685426    5.621351
  10 C      6.343977    7.455635    5.307761
  11 C      4.231652    8.845152    5.534246
  12 C     10.501417    6.228771    4.869830
  13 C      9.228217    3.906133    5.175457
  14 C      9.420124    5.313931    5.066263
  15 C      5.485478    3.333135    5.584109
  16 C      5.786369    6.083376    5.414259
  17 C      8.177174    3.208303    5.334394
  18 C      4.415322    5.559794    5.596568
  19 C      8.103572    5.891885    5.167438
  20 C      6.857317    3.717583    5.429084
  21 C      4.511025    4.129313    5.671101
  22 C      3.278676    6.416944    5.689034
  23 C      6.897146    5.165676    5.333343

Unit cell:
           periodic     x           y           z      points  spacing
  1. axis:    yes   16.000000    0.000000    0.000000    80     0.2000
  2. axis:    yes    0.000000   16.000000    0.000000    80     0.2000
  3. axis:    yes    0.000000    0.000000   10.000000    48     0.2083

Effective grid spacing dv^(1/3) = 0.2027

                     log10-error:    total        iterations:
           time      wfs    density  energy       fermi  poisson
iter:   1  11:10:53          +inf  -185.056542    3      5      
iter:   2  11:10:54         -2.80  -185.056428    3      1      
iter:   3  11:10:54         -2.89  -185.055786    2      1      
iter:   4  11:10:55         -2.97  -185.055489    2      1      
iter:   5  11:10:56         -3.11  -185.055526    3      2      
iter:   6  11:10:56         -3.22  -185.054496    3      1      
iter:   7  11:10:57         -3.08  -185.055089    3      1      
iter:   8  11:10:57         -3.43  -185.054930    2      1      
iter:   9  11:10:58         -3.70  -185.054371    2      1      
iter:  10  11:10:58         -3.62  -185.054882    2      1      
iter:  11  11:10:59         -4.00  -185.054760    2      1      
iter:  12  11:11:00         -3.84  -185.054461    2      1      
iter:  13  11:11:00         -4.01  -185.054751    2      1      

Converged after 13 iterations.

Dipole moment: (0.030059, -0.060058, 0.001779) |e|*Ang

Energy contributions relative to reference atoms: (reference = -24663.074771)

Kinetic:       +116.228413
Potential:     -124.446149
External:        +0.000000
XC:            -179.697012
Entropy (-ST):   -0.277574
Local:           +2.998784
--------------------------
Free energy:   -185.193538
Extrapolated:  -185.054751

Fermi level: -4.52791

 Band  Eigenvalues  Occupancy
    0    -23.04815    2.00000
    1    -22.19757    2.00000
    2    -21.65242    2.00000
    3    -21.15066    2.00000
    4    -20.52477    2.00000
    5    -20.37760    2.00000
    6    -19.47491    2.00000
    7    -19.29110    2.00000
    8    -18.55327    2.00000
    9    -18.04278    2.00000
   10    -17.78668    2.00000
   11    -17.07840    2.00000
   12    -16.59686    2.00000
   13    -16.18227    2.00000
   14    -15.17831    2.00000
   15    -15.02651    2.00000
   16    -14.23993    2.00000
   17    -13.81521    2.00000
   18    -13.18397    2.00000
   19    -12.99622    2.00000
   20    -12.50172    2.00000
   21    -12.39430    2.00000
   22    -11.70734    2.00000
   23    -11.44954    2.00000
   24    -11.02332    2.00000
   25    -10.82025    2.00000
   26    -10.72510    2.00000
   27    -10.70876    2.00000
   28    -10.02780    2.00000
   29     -9.88121    2.00000
   30     -9.69061    2.00000
   31     -9.57170    2.00000
   32     -9.19814    2.00000
   33     -8.77543    2.00000
   34     -8.39240    2.00000
   35     -8.18716    2.00000
   36     -7.17650    2.00000
   37     -7.04353    2.00000
   38     -6.91023    2.00000
   39     -6.83608    2.00000
   40     -6.57402    2.00000
   41     -6.51891    2.00000
   42     -6.35531    2.00000
   43     -6.06424    2.00000
   44     -5.94679    2.00000
   45     -5.49625    1.99988
   46     -4.78250    1.85459
   47     -4.65668    1.56749
   48     -4.43771    0.57729
   49     -3.71938    0.00062
   50     -3.57247    0.00014
   51     -3.04416    0.00000
   52     -2.88750    0.00000
   53     -2.69816    0.00000
   54     -2.16426    0.00000
   55     -1.69118    0.00000
   56     -1.36020    0.00000
   57     -1.29051    0.00000
   58     -0.34662    0.00000
   59      0.45584    0.00000
   60      1.08827    0.00000
   61      2.00255    0.00000
   62      2.79502    0.00000
   63      3.46378    0.00000
   64      3.51588    0.00000
   65      3.61571    0.00000
   66      4.33365    0.00000
   67      4.52350    0.00000
   68      4.87084    0.00000
   69      4.92128    0.00000
   70      5.43082    0.00000
   71      5.72677    0.00000
   72      5.85408    0.00000
   73      6.27003    0.00000
   74      6.43048    0.00000
   75      6.76186    0.00000
   76      7.15094    0.00000
   77      7.39772    0.00000
   78      7.86343    0.00000
   79      8.12434    0.00000
   80      8.29786    0.00000
   81      8.53252    0.00000
   82      8.83300    0.00000
   83      8.97449    0.00000
   84      9.11005    0.00000
   85      9.20799    0.00000
   86      9.29487    0.00000
   87      9.50387    0.00000
   88      9.51456    0.00000
   89      9.58694    0.00000
   90      9.65246    0.00000
   91      9.73768    0.00000
   92     10.07098    0.00000
   93     10.25892    0.00000
   94     10.36135    0.00000
   95     10.38625    0.00000
   96     10.41112    0.00000
   97     10.58929    0.00000


Forces in eV/Ang:
  0 C     0.00752   -0.01186   -0.00786
  1 C     0.03394   -0.17853    0.01652
  2 C     0.02221   -0.08269   -0.01593
  3 C    -0.08236    0.00717    0.03877
  4 C    -0.05979    0.00805   -0.01358
  5 C     0.04286    0.04388    0.02388
  6 C     0.07488    0.01066    0.01980
  7 C    -0.01502   -0.00137    0.00402
  8 C    -0.05752    0.04570   -0.02502
  9 C     0.02425    0.00511   -0.01381
 10 C    -0.03029    0.03473   -0.05580
 11 C    -0.01017    0.01347   -0.03193
 12 C     0.00012    0.05125   -0.02279
 13 C    -0.04034    0.02547    0.03556
 14 C     0.00756    0.04438   -0.06724
 15 C     0.08582    0.06354    0.08037
 16 C    -0.01643   -0.09259    0.06777
 17 C    -0.10750   -0.00179   -0.03241
 18 C    -0.06234   -0.02246    0.03762
 19 C     0.11478    0.02454    0.04151
 20 C    -0.01715    0.04645   -0.03768
 21 C     0.03300   -0.00153   -0.10289
 22 C    -0.00415   -0.00465    0.06304
 23 C    -0.04715    0.01028    0.06290

System changes: positions 

Initializing position-dependent things.

Density initialized from wave functions
           .--------------------------------------.  
          /|                                      |  
         / |                                      |  
        /  |                                      |  
       /   |                                      |  
      /    |                                      |  
     /     |                                      |  
    /      |                                      |  
   /       |                                      |  
  /        |                                      |  
 *         |   C C  C  C  C  C   C                |  
 |         | C       C   C  C    C                |  
 |         .---C---C-C--C-----CC------------------.  
 |        /    CC   C     CC                     /   
 |       /             C                        /    
 |      /                                      /     
 |     /                                      /      
 |    /                                      /       
 |   /                                      /        
 |  /                                      /         
 | /                                      /          
 |/                                      /           
 *--------------------------------------*            

Positions:
   0 C      7.813038    7.306786    5.140267
   1 C      8.917301    8.151583    4.950659
   2 C      6.569235    9.809763    5.185886
   3 C     10.399175    9.946771    4.636948
   4 C     11.048060    8.827978    4.617804
   5 C     10.284975    7.575192    4.804414
   6 C      7.743082   10.209563    4.987110
   7 C      9.020752    9.647616    4.845610
   8 C      5.655173    8.735896    5.357004
   9 C      3.635137    7.687604    5.621603
  10 C      6.342271    7.456986    5.312254
  11 C      4.231077    8.847378    5.537609
  12 C     10.502401    6.227793    4.872294
  13 C      9.227852    3.906791    5.175470
  14 C      9.419030    5.315235    5.066994
  15 C      5.487944    3.334285    5.580376
  16 C      5.784994    6.082988    5.421513
  17 C      8.176236    3.209649    5.332080
  18 C      4.412389    5.559654    5.592941
  19 C      8.104981    5.894490    5.177121
  20 C      6.857864    3.720848    5.428126
  21 C      4.511724    4.129408    5.656085
  22 C      3.277671    6.419539    5.686620
  23 C      6.897319    5.168096    5.343998

Unit cell:
           periodic     x           y           z      points  spacing
  1. axis:    yes   16.000000    0.000000    0.000000    80     0.2000
  2. axis:    yes    0.000000   16.000000    0.000000    80     0.2000
  3. axis:    yes    0.000000    0.000000   10.000000    48     0.2083

Effective grid spacing dv^(1/3) = 0.2027

                     log10-error:    total        iterations:
           time      wfs    density  energy       fermi  poisson
iter:   1  11:11:02          +inf  -185.058622    2      5      
iter:   2  11:11:03         -2.86  -185.058314    3      1      
iter:   3  11:11:04         -3.09  -185.057897    2      1      
iter:   4  11:11:04         -3.16  -185.056485    2      1      
iter:   5  11:11:05         -3.31  -185.057251    3      1      
iter:   6  11:11:05         -3.19  -185.056747    3      1      
iter:   7  11:11:06         -3.39  -185.057142    2      1      
iter:   8  11:11:06         -3.19  -185.057936    3      1      
iter:   9  11:11:07         -4.01  -185.058014    2      1      

Converged after 9 iterations.

Dipole moment: (0.030395, -0.062185, 0.000775) |e|*Ang

Energy contributions relative to reference atoms: (reference = -24663.074771)

Kinetic:       +116.757368
Potential:     -124.867513
External:        +0.000000
XC:            -179.822398
Entropy (-ST):   -0.276795
Local:           +3.012927
--------------------------
Free energy:   -185.196411
Extrapolated:  -185.058014

Fermi level: -4.52768

 Band  Eigenvalues  Occupancy
    0    -23.04998    2.00000
    1    -22.20570    2.00000
    2    -21.65635    2.00000
    3    -21.15685    2.00000
    4    -20.52635    2.00000
    5    -20.38031    2.00000
    6    -19.47886    2.00000
    7    -19.29529    2.00000
    8    -18.55914    2.00000
    9    -18.04293    2.00000
   10    -17.79053    2.00000
   11    -17.07730    2.00000
   12    -16.60085    2.00000
   13    -16.18203    2.00000
   14    -15.18299    2.00000
   15    -15.02464    2.00000
   16    -14.24773    2.00000
   17    -13.81769    2.00000
   18    -13.18544    2.00000
   19    -12.99454    2.00000
   20    -12.51030    2.00000
   21    -12.39040    2.00000
   22    -11.70286    2.00000
   23    -11.45331    2.00000
   24    -11.02687    2.00000
   25    -10.82186    2.00000
   26    -10.72959    2.00000
   27    -10.71055    2.00000
   28    -10.03789    2.00000
   29     -9.88564    2.00000
   30     -9.69761    2.00000
   31     -9.57492    2.00000
   32     -9.18812    2.00000
   33     -8.77904    2.00000
   34     -8.39432    2.00000
   35     -8.18802    2.00000
   36     -7.17716    2.00000
   37     -7.04728    2.00000
   38     -6.91154    2.00000
   39     -6.83346    2.00000
   40     -6.57676    2.00000
   41     -6.51701    2.00000
   42     -6.35580    2.00000
   43     -6.06294    2.00000
   44     -5.94510    2.00000
   45     -5.49761    1.99988
   46     -4.78292    1.85547
   47     -4.65709    1.56965
   48     -4.43675    0.57425
   49     -3.72033    0.00062
   50     -3.56773    0.00014
   51     -3.04018    0.00000
   52     -2.88598    0.00000
   53     -2.69785    0.00000
   54     -2.15705    0.00000
   55     -1.68980    0.00000
   56     -1.35832    0.00000
   57     -1.28604    0.00000
   58     -0.35077    0.00000
   59      0.45652    0.00000
   60      1.08917    0.00000
   61      2.00806    0.00000
   62      2.79659    0.00000
   63      3.45051    0.00000
   64      3.51564    0.00000
   65      3.62384    0.00000
   66      4.35065    0.00000
   67      4.52643    0.00000
   68      4.88838    0.00000
   69      4.91682    0.00000
   70      5.44778    0.00000
   71      5.75440    0.00000
   72      5.86094    0.00000
   73      6.28288    0.00000
   74      6.42278    0.00000
   75      6.76795    0.00000
   76      7.15290    0.00000
   77      7.40676    0.00000
   78      7.85705    0.00000
   79      8.13429    0.00000
   80      8.29178    0.00000
   81      8.52833    0.00000
   82      8.83720    0.00000
   83      8.97481    0.00000
   84      9.11078    0.00000
   85      9.21339    0.00000
   86      9.29110    0.00000
   87      9.50140    0.00000
   88      9.51072    0.00000
   89      9.59052    0.00000
   90      9.65123    0.00000
   91      9.73488    0.00000
   92     10.07308    0.00000
   93     10.25820    0.00000
   94     10.36549    0.00000
   95     10.38440    0.00000
   96     10.41242    0.00000
   97     10.58944    0.00000


Forces in eV/Ang:
  0 C    -0.00172   -0.06917    0.00542
  1 C    -0.00099   -0.05420    0.01312
  2 C     0.03265   -0.04384   -0.02202
  3 C    -0.04918   -0.03360    0.00834
  4 C     0.01254    0.02555    0.01025
  5 C     0.01556    0.02665    0.03383
  6 C     0.01731    0.01313    0.03829
  7 C    -0.02258   -0.01454   -0.01024
  8 C    -0.01998    0.02096   -0.03780
  9 C     0.01400   -0.01834   -0.00378
 10 C    -0.00329   -0.00106   -0.03489
 11 C    -0.02253    0.04992   -0.02231
 12 C     0.00029    0.05311   -0.02397
 13 C    -0.05053    0.03635    0.02540
 14 C     0.04575    0.02640   -0.02782
 15 C     0.01421    0.05651    0.05714
 16 C     0.01522   -0.00728    0.04775
 17 C    -0.07291   -0.00843   -0.03568
 18 C    -0.03562   -0.00453    0.03242
 19 C     0.01418   -0.01243    0.01922
 20 C    -0.00186   -0.00228    0.01228
 21 C    -0.01143   -0.01583   -0.07810
 22 C    -0.01658   -0.03701    0.04215
 23 C     0.01554    0.02536    0.02531

