
  ___ ___ ___ _ _ _  
 |   |   |_  | | | | 
 | | | | | . | | | | 
 |__ |  _|___|_____|  1.3.0b1
 |___|_|             

User:   esb@s65n82.grendel.cscaa.dk
Date:   Thu Nov  9 11:42:38 2017
Arch:   x86_64
Pid:    66698
Python: 2.7.13
gpaw:   /home/esb/DFT/gpaw_git/gpaw
_gpaw:  /home/esb/DFT/gpaw_git/build/bin.linux-x86_64-2.7/gpaw-python
ase:    /home/esb/DFT/ase_git/ase (version 3.15.0b1)
numpy:  /comm/swstack/core/python/2.7.13/lib/python2.7/site-packages/numpy (version 1.13.3)
scipy:  /comm/swstack/core/python/2.7.13/lib/python2.7/site-packages/scipy (version 0.19.1)
units:  Angstrom and eV
cores:  16
Extra parameters: {'blacs': True}

Input parameters:
  basis: dzp
  gpts: [80 80 48]
  kpts: [1 1 1]
  maxiter: 99
  mixer: {backend: pulay,
          beta: 0.05,
          method: separate,
          nmaxold: 5,
          weight: 75}
  mode: lcao
  nbands: -50
  occupations: {name: fermi-dirac,
                width: 0.1}
  poissonsolver: {eps: 1e-07,
                  name: fd,
                  nn: 3,
                  relax: GS}
  xc: PBE

System changes: positions, numbers, cell, pbc, initial_charges, initial_magmoms 

Initialize ...

C-setup:
  name: Carbon
  id: 4aa54d4b901d75f77cc0ea3eec22967b
  Z: 6
  valence: 4
  core: 2
  charge: 0.0
  file: /home/esb/DFT/gpaw-setups-0.8.7929/C.PBE.gz
  cutoffs: 0.64(comp), 1.14(filt), 1.14(core), lmax=2
  valence states:
                energy  radius
    2s(2.00)   -13.751   0.635
    2p(2.00)    -5.284   0.635
    *s          13.461   0.635
    *p          21.927   0.635
    *d           0.000   0.635

  LCAO basis set for C:
    Name: dzp
    File: /home/esb/DFT/gpaw-setups-0.8.7929/C.dzp.basis.gz
    Number of radial functions: 5
    Number of spherical harmonics: 13
      l=0, rc=5.5469 Bohr: 2s-sz confined orbital
      l=1, rc=6.6719 Bohr: 2p-sz confined orbital
      l=0, rc=3.0312 Bohr: 2s-dz split-valence wave
      l=1, rc=3.7500 Bohr: 2p-dz split-valence wave
      l=2, rc=6.6719 Bohr: d-type Gaussian polarization

Reference energy: -24663.074771

Spin-paired calculation

Occupation numbers:
  Fermi-Dirac: width=0.1000 eV

Convergence criteria:
  Maximum total energy change: 0.0005 eV / electron
  Maximum integral of absolute density change: 0.0001 electrons
  Maximum integral of absolute eigenstate change: 4e-08 eV^2
  Maximum number of iterations: 99

Symmetries present (total): 1

  ( 1  0  0)
  ( 0  1  0)
  ( 0  0  1)

1 k-point (Gamma)
1 k-point in the irreducible part of the Brillouin zone
       k-points in crystal coordinates                weights
   0:     0.00000000    0.00000000    0.00000000          1/1

Wave functions: LCAO
  Diagonalizer: Serial LAPACK
  Atomic Correction: dense with blas
  Datatype: float
  Eigensolver: None 

LCAO using direct dense diagonalizer 

Densities:
  Coarse grid: 80*80*48 grid
  Fine grid: 160*160*96 grid
  Total Charge: 0.000000 

Density mixing:
  Method: separate
  Backend: pulay
  Linear mixing parameter: 0.05
  Mixing with 5 old densities
  Damping of long wave oscillations: 75 

Hamiltonian:
  XC and Coulomb potentials evaluated on a 160*160*96 grid
  Using the PBE Exchange-Correlation functional
  Interpolation: tri-quintic (5. degree polynomial)
  Poisson solver: Gauss-Seidel solver with 6 multi-grid levels
    Coarsest grid: 5 x 5 x 3 points
    Stencil: 6*3+1=19 point O(h^6) finite-difference Laplacian
    Max iterations: 1000
    Tolerance: 1.000000e-07 

Memory estimate:
  Process memory now: 79.55 MiB
  Calculator: 15.59 MiB
    Density: 6.13 MiB
      Arrays: 3.81 MiB
      Localized functions: 0.86 MiB
      Mixer: 1.46 MiB
    Hamiltonian: 5.40 MiB
      Arrays: 2.49 MiB
      XC: 0.00 MiB
      Poisson: 2.85 MiB
      vbar: 0.07 MiB
    Wavefunctions: 4.05 MiB
      C [qnM]: 0.23 MiB
      S, T [2 x qmm]: 1.49 MiB
      P [aqMi]: 0.01 MiB
      TCI: 0.00 MiB
      BasisFunctions: 2.33 MiB
      Eigensolver: 0.00 MiB

Total number of cores used: 16
Domain decomposition: 2 x 4 x 2

Number of atoms: 24
Number of atomic orbitals: 312
Number of bands in calculation: 98
Bands to converge: occupied states only
Number of valence electrons: 96

... initialized

Initializing position-dependent things.

Density initialized from atomic densities
           .--------------------------------------.  
          /|                                      |  
         / |                                      |  
        /  |                                      |  
       /   |                                      |  
      /    |                                      |  
     /     |                                      |  
    /      |                                      |  
   /       |            C                         |  
  /        |     CC  C   C                        |  
 *         |              C                       |  
 |         |    C C   C  C         C              |  
 |         .-----C------C---C---------------------.  
 |        /    C   C   C C     C  C              /   
 |       /       C          C                   /    
 |      /              C                       /     
 |     /                                      /      
 |    /                                      /       
 |   /                                      /        
 |  /                                      /         
 | /                                      /          
 |/                                      /           
 *--------------------------------------*            

Positions:
   0 C      6.274730    4.533318    4.862656
   1 C      7.464840    5.396259    4.504911
   2 C     11.052407    5.231061    4.462846
   3 C      4.524184    4.643464    5.289402
   4 C      8.758769    3.857455    5.113789
   5 C      8.395153    2.669037    4.077578
   6 C     10.005737    4.489879    4.508034
   7 C      5.956540    2.843437    5.422196
   8 C     12.041217    6.180850    4.463145
   9 C      4.732581    6.472788    5.059918
  10 C      7.625917    6.738184    4.833321
  11 C      3.639594   11.249774    4.678408
  12 C      6.612039    7.816023    4.912455
  13 C     11.800828    7.855839    4.879560
  14 C      5.165539    7.814661    5.019131
  15 C     10.283089    7.240817    3.951605
  16 C      4.367648    9.571196    5.475612
  17 C      7.656935   10.241733    4.775335
  18 C      7.654213    8.858196    4.828001
  19 C      6.312542   12.498341    4.745992
  20 C      5.041381   12.134258    4.838565
  21 C      8.925513    7.896004    4.123298
  22 C      4.163042    8.539349    4.803917
  23 C      7.079111   11.370885    4.744714

Unit cell:
           periodic     x           y           z      points  spacing
  1. axis:    yes   16.000000    0.000000    0.000000    80     0.2000
  2. axis:    yes    0.000000   16.000000    0.000000    80     0.2000
  3. axis:    yes    0.000000    0.000000   10.000000    48     0.2083

Effective grid spacing dv^(1/3) = 0.2027

                     log10-error:    total        iterations:
           time      wfs    density  energy       fermi  poisson
iter:   1  11:42:39          +inf  -155.956244    4      6      
iter:   2  11:42:40         -0.92  -154.820787    3      3      
iter:   3  11:42:40         -0.96  -153.249421    4      3      
iter:   4  11:42:41         -1.05  -152.701553    3      3      
iter:   5  11:42:41         -1.18  -152.296279    3      3      
iter:   6  11:42:42         -1.39  -152.213757    3      3      
iter:   7  11:42:42         -1.71  -152.128638    3      2      
iter:   8  11:42:43         -1.83  -152.106314    2      2      
iter:   9  11:42:43         -1.96  -152.098766    3      2      
iter:  10  11:42:44         -2.09  -152.095724    3      2      
iter:  11  11:42:44         -2.18  -152.090828    3      2      
iter:  12  11:42:45         -2.42  -152.087534    3      2      
iter:  13  11:42:45         -2.67  -152.085573    3      2      
iter:  14  11:42:46         -2.87  -152.084300    3      2      
iter:  15  11:42:46         -3.05  -152.087651    2      1      
iter:  16  11:42:47         -3.14  -152.084015    2      1      
iter:  17  11:42:47         -3.28  -152.080843    2      1      
iter:  18  11:42:48         -3.42  -152.086168    2      1      
iter:  19  11:42:48         -3.72  -152.081713    2      1      
iter:  20  11:42:49         -3.82  -152.081362    2      1      
iter:  21  11:42:49         -3.93  -152.082730    2      1      
iter:  22  11:42:50         -4.05  -152.081602    2      1      

Converged after 22 iterations.

Dipole moment: (0.129722, 0.346901, 0.017438) |e|*Ang

Energy contributions relative to reference atoms: (reference = -24663.074771)

Kinetic:        +22.363801
Potential:      -48.043322
External:        +0.000000
XC:            -128.913265
Entropy (-ST):   -0.340941
Local:           +2.681653
--------------------------
Free energy:   -152.252072
Extrapolated:  -152.081602

Fermi level: -4.55488

 Band  Eigenvalues  Occupancy
    0    -22.96412    2.00000
    1    -21.35668    2.00000
    2    -20.82856    2.00000
    3    -20.31163    2.00000
    4    -19.54462    2.00000
    5    -18.82822    2.00000
    6    -18.67018    2.00000
    7    -18.27288    2.00000
    8    -17.35134    2.00000
    9    -17.10391    2.00000
   10    -16.63598    2.00000
   11    -16.05913    2.00000
   12    -15.66903    2.00000
   13    -15.12172    2.00000
   14    -14.39524    2.00000
   15    -13.99419    2.00000
   16    -13.58057    2.00000
   17    -13.10301    2.00000
   18    -12.88688    2.00000
   19    -12.54852    2.00000
   20    -11.64446    2.00000
   21    -11.01627    2.00000
   22    -10.50608    2.00000
   23     -9.92748    2.00000
   24     -9.44171    2.00000
   25     -9.40353    2.00000
   26     -9.12393    2.00000
   27     -8.95812    2.00000
   28     -8.86223    2.00000
   29     -8.56831    2.00000
   30     -8.48231    2.00000
   31     -8.36788    2.00000
   32     -8.14574    2.00000
   33     -7.97366    2.00000
   34     -7.54623    2.00000
   35     -7.39717    2.00000
   36     -7.09925    2.00000
   37     -6.98802    2.00000
   38     -6.84919    2.00000
   39     -6.59464    2.00000
   40     -6.54299    2.00000
   41     -6.46358    2.00000
   42     -6.08006    2.00000
   43     -5.79700    1.99999
   44     -5.76096    1.99999
   45     -5.33487    1.99918
   46     -4.83318    1.88349
   47     -4.66986    1.51894
   48     -4.39479    0.33569
   49     -4.34210    0.21285
   50     -4.15036    0.03441
   51     -4.05300    0.01314
   52     -3.87606    0.00225
   53     -3.51384    0.00006
   54     -3.34810    0.00001
   55     -3.20878    0.00000
   56     -3.01841    0.00000
   57     -2.69860    0.00000
   58     -2.42668    0.00000
   59     -2.40543    0.00000
   60     -1.89223    0.00000
   61     -1.36561    0.00000
   62     -1.30515    0.00000
   63     -0.70028    0.00000
   64     -0.38460    0.00000
   65     -0.10083    0.00000
   66     -0.02345    0.00000
   67      0.35352    0.00000
   68      0.41412    0.00000
   69      0.95647    0.00000
   70      1.36283    0.00000
   71      1.47976    0.00000
   72      1.58172    0.00000
   73      1.64959    0.00000
   74      1.92791    0.00000
   75      2.22448    0.00000
   76      2.60151    0.00000
   77      3.54372    0.00000
   78      4.08076    0.00000
   79      4.19896    0.00000
   80      4.87226    0.00000
   81      5.71501    0.00000
   82      5.85776    0.00000
   83      6.96758    0.00000
   84      7.43593    0.00000
   85      7.65574    0.00000
   86      7.79375    0.00000
   87      8.16589    0.00000
   88      8.43217    0.00000
   89      8.66843    0.00000
   90      8.78629    0.00000
   91      8.94907    0.00000
   92      9.13516    0.00000
   93      9.25423    0.00000
   94      9.38384    0.00000
   95      9.47298    0.00000
   96      9.51242    0.00000
   97      9.85287    0.00000


Forces in eV/Ang:
  0 C    -2.91050   -2.29041    1.98433
  1 C    -1.59378   -2.58276    2.96865
  2 C    -0.24140    0.12542    0.14946
  3 C     4.37452    4.35615   -1.32382
  4 C     1.38365   -0.22848   -6.97326
  5 C     0.31181    3.40342    3.94384
  6 C    -2.11453   -2.23295    2.53012
  7 C     1.33566    5.27148   -2.23463
  8 C    -2.13252    4.30225    0.47164
  9 C    -0.74806   -5.59008    0.27575
 10 C     0.15051   -0.45043   -2.82151
 11 C     5.42575    1.08809    2.09068
 12 C     4.01852    1.37243    0.32529
 13 C    -2.04559   -5.28813   -2.83867
 14 C     9.10134  -10.90243    0.09751
 15 C    -0.86767    4.64422    2.35035
 16 C    -2.83725    8.66666   -0.11712
 17 C    -0.36441   -1.05961    0.09046
 18 C     0.94770    0.69794   -2.29414
 19 C    -1.38252   -1.18093   -0.15670
 20 C    -3.68871   -2.55854   -0.38683
 21 C     0.46722   -3.96112    3.32353
 22 C    -7.27131    3.85043   -1.75010
 23 C     0.59682    0.53265    0.27015

System changes: positions 

Initializing position-dependent things.

Density initialized from wave functions
           .--------------------------------------.  
          /|                                      |  
         / |                                      |  
        /  |                                      |  
       /   |                                      |  
      /    |                                      |  
     /     |                                      |  
    /      |                                      |  
   /       |            C                         |  
  /        |     CC  C   C                        |  
 *         |              C                       |  
 |         |    C  C  C  C         C              |  
 |         .-----C------C---C---------------------.  
 |        /    C   C   C C     C  C              /   
 |       /       C          C                   /    
 |      /              C                       /     
 |     /                                      /      
 |    /                                      /       
 |   /                                      /        
 |  /                                      /         
 | /                                      /          
 |/                                      /           
 *--------------------------------------*            

Positions:
   0 C      6.266533    4.526867    4.868245
   1 C      7.460351    5.388985    4.513272
   2 C     11.051727    5.231414    4.463267
   3 C      4.536504    4.655733    5.285674
   4 C      8.762666    3.856811    5.094149
   5 C      8.396031    2.678623    4.088686
   6 C      9.999782    4.483590    4.515160
   7 C      5.960302    2.858284    5.415902
   8 C     12.035211    6.192967    4.464473
   9 C      4.730474    6.457044    5.060695
  10 C      7.626340    6.736915    4.825375
  11 C      3.654876   11.252838    4.684296
  12 C      6.623357    7.819889    4.913371
  13 C     11.795067    7.840946    4.871565
  14 C      5.191173    7.783955    5.019405
  15 C     10.280645    7.253897    3.958225
  16 C      4.359657    9.595605    5.475282
  17 C      7.655908   10.238749    4.775590
  18 C      7.656882    8.860162    4.821539
  19 C      6.308649   12.495015    4.745550
  20 C      5.030992   12.127052    4.837475
  21 C      8.926829    7.884848    4.132659
  22 C      4.142563    8.550193    4.798988
  23 C      7.080792   11.372385    4.745475

Unit cell:
           periodic     x           y           z      points  spacing
  1. axis:    yes   16.000000    0.000000    0.000000    80     0.2000
  2. axis:    yes    0.000000   16.000000    0.000000    80     0.2000
  3. axis:    yes    0.000000    0.000000   10.000000    48     0.2083

Effective grid spacing dv^(1/3) = 0.2027

                     log10-error:    total        iterations:
           time      wfs    density  energy       fermi  poisson
iter:   1  11:42:51          +inf  -154.308804    3      5      
iter:   2  11:42:52         -1.84  -154.225400    3      2      
iter:   3  11:42:52         -2.02  -154.188708    3      2      
iter:   4  11:42:53         -2.16  -154.165409    3      2      
iter:   5  11:42:53         -2.41  -154.163321    2      2      
iter:   6  11:42:54         -2.54  -154.162348    2      2      
iter:   7  11:42:54         -2.66  -154.161093    2      2      
iter:   8  11:42:54         -2.86  -154.160475    2      2      
iter:   9  11:42:55         -3.08  -154.160487    2      2      
iter:  10  11:42:55         -3.36  -154.160251    2      1      
iter:  11  11:42:56         -3.41  -154.159013    2      1      
iter:  12  11:42:56         -3.65  -154.159984    2      1      
iter:  13  11:42:57         -3.83  -154.160566    2      1      
iter:  14  11:42:57         -3.94  -154.160297    2      1      
iter:  15  11:42:58         -4.21  -154.160892    2      1      

Converged after 15 iterations.

Dipole moment: (0.194003, 0.341740, 0.021381) |e|*Ang

Energy contributions relative to reference atoms: (reference = -24663.074771)

Kinetic:        +16.001649
Potential:      -43.652175
External:        +0.000000
XC:            -129.013095
Entropy (-ST):   -0.327809
Local:           +2.666634
--------------------------
Free energy:   -154.324796
Extrapolated:  -154.160892

Fermi level: -4.57088

 Band  Eigenvalues  Occupancy
    0    -22.64375    2.00000
    1    -21.29160    2.00000
    2    -20.81003    2.00000
    3    -20.34247    2.00000
    4    -19.59471    2.00000
    5    -18.87263    2.00000
    6    -18.67112    2.00000
    7    -18.38470    2.00000
    8    -17.45701    2.00000
    9    -17.21481    2.00000
   10    -16.74204    2.00000
   11    -16.16325    2.00000
   12    -15.69014    2.00000
   13    -15.21303    2.00000
   14    -14.49884    2.00000
   15    -13.99188    2.00000
   16    -13.60089    2.00000
   17    -13.12390    2.00000
   18    -12.90699    2.00000
   19    -12.58777    2.00000
   20    -11.67075    2.00000
   21    -11.05025    2.00000
   22    -10.38029    2.00000
   23     -9.97048    2.00000
   24     -9.50702    2.00000
   25     -9.40542    2.00000
   26     -9.12473    2.00000
   27     -8.98802    2.00000
   28     -8.94078    2.00000
   29     -8.59695    2.00000
   30     -8.47559    2.00000
   31     -8.37546    2.00000
   32     -8.17789    2.00000
   33     -7.95966    2.00000
   34     -7.57396    2.00000
   35     -7.42459    2.00000
   36     -7.10916    2.00000
   37     -7.03107    2.00000
   38     -6.88361    2.00000
   39     -6.64743    2.00000
   40     -6.57784    2.00000
   41     -6.49411    2.00000
   42     -6.13540    2.00000
   43     -5.85866    1.99999
   44     -5.76469    1.99999
   45     -5.36492    1.99929
   46     -4.87527    1.90904
   47     -4.68528    1.51682
   48     -4.41213    0.33948
   49     -4.34309    0.18594
   50     -4.17195    0.03635
   51     -4.05470    0.01140
   52     -3.86043    0.00164
   53     -3.51515    0.00005
   54     -3.34740    0.00001
   55     -3.18805    0.00000
   56     -2.96528    0.00000
   57     -2.65549    0.00000
   58     -2.43103    0.00000
   59     -2.35264    0.00000
   60     -1.87608    0.00000
   61     -1.32283    0.00000
   62     -1.28491    0.00000
   63     -0.70891    0.00000
   64     -0.34371    0.00000
   65      0.02259    0.00000
   66      0.04007    0.00000
   67      0.44418    0.00000
   68      0.49307    0.00000
   69      1.12094    0.00000
   70      1.36920    0.00000
   71      1.64023    0.00000
   72      1.69452    0.00000
   73      1.81817    0.00000
   74      2.01402    0.00000
   75      2.40312    0.00000
   76      2.84023    0.00000
   77      3.59339    0.00000
   78      4.30457    0.00000
   79      4.37941    0.00000
   80      4.95666    0.00000
   81      5.76433    0.00000
   82      5.95417    0.00000
   83      6.97597    0.00000
   84      7.45147    0.00000
   85      7.67780    0.00000
   86      7.85579    0.00000
   87      8.11030    0.00000
   88      8.44397    0.00000
   89      8.67285    0.00000
   90      8.78874    0.00000
   91      8.92818    0.00000
   92      9.10821    0.00000
   93      9.29973    0.00000
   94      9.38847    0.00000
   95      9.48178    0.00000
   96      9.52330    0.00000
   97      9.85170    0.00000


Forces in eV/Ang:
  0 C    -2.86826   -2.31782    1.98754
  1 C    -1.53251   -2.36994    2.91144
  2 C    -0.61536   -0.13536    0.20360
  3 C     4.32264    4.45658   -1.32969
  4 C     1.10741   -0.28957   -6.73594
  5 C     0.29024    3.29438    3.82821
  6 C    -1.30189   -1.67141    2.35122
  7 C     1.33174    5.29347   -2.21974
  8 C    -2.38667    4.11399    0.43868
  9 C    -0.61333   -5.44972    0.29651
 10 C     0.37158   -0.57351   -2.79297
 11 C     5.42154    0.98124    2.16887
 12 C     3.97420    1.06449    0.24045
 13 C    -2.07758   -5.21478   -2.85413
 14 C     5.00412   -7.72567   -0.41794
 15 C    -0.69244    4.53686    2.41470
 16 C    -2.85769    7.51903   -0.88469
 17 C    -0.39851   -0.78396    0.06079
 18 C     1.01420    0.62239   -2.19025
 19 C    -1.61910   -1.24671   -0.16783
 20 C    -3.27191   -2.55111   -0.30922
 21 C     0.35140   -3.91998    3.29145
 22 C    -3.56971    1.90778   -0.48415
 23 C     0.57511    0.43946    0.28603

System changes: positions 

Initializing position-dependent things.

Density initialized from wave functions
           .--------------------------------------.  
          /|                                      |  
         / |                                      |  
        /  |                                      |  
       /   |                                      |  
      /    |                                      |  
     /     |                                      |  
    /      |                                      |  
   /       |                                      |  
  /        |     CC  C  CC                        |  
 *         |              C                       |  
 |         |    C  C  C  C         C              |  
 |         .-----C------C---C---------------------.  
 |        /    C   C   C       C  C              /   
 |       /       C       C  C                   /    
 |      /              C                       /     
 |     /                                      /      
 |    /                                      /       
 |   /                                      /        
 |  /                                      /         
 | /                                      /          
 |/                                      /           
 *--------------------------------------*            

Positions:
   0 C      6.251103    4.514127    4.879080
   1 C      7.452277    5.377018    4.528872
   2 C     11.046731    5.229529    4.464614
   3 C      4.559811    4.680440    5.278408
   4 C      8.767480    3.854966    5.058519
   5 C      8.397516    2.696079    4.109020
   6 C      9.996270    4.476961    4.527175
   7 C      5.967536    2.887201    5.403882
   8 C     12.021098    6.214538    4.466717
   9 C      4.727728    6.427990    5.062400
  10 C      7.629336    6.733251    4.810294
  11 C      3.684375   11.257710    4.696449
  12 C      6.644800    7.824329    4.914307
  13 C     11.783615    7.812876    4.855957
  14 C      5.200389    7.755871    5.014862
  15 C     10.277646    7.278126    3.971655
  16 C      4.344008    9.631493    5.467088
  17 C      7.653588   10.235694    4.775791
  18 C      7.662697    8.863218    4.810071
  19 C      6.298792   12.487937    4.744588
  20 C      5.015012   12.113195    4.836133
  21 C      8.928233    7.863686    4.150438
  22 C      4.139416    8.552032    4.801923
  23 C      7.083828   11.374368    4.747102

Unit cell:
           periodic     x           y           z      points  spacing
  1. axis:    yes   16.000000    0.000000    0.000000    80     0.2000
  2. axis:    yes    0.000000   16.000000    0.000000    80     0.2000
  3. axis:    yes    0.000000    0.000000   10.000000    48     0.2083

Effective grid spacing dv^(1/3) = 0.2027

                     log10-error:    total        iterations:
           time      wfs    density  energy       fermi  poisson
iter:   1  11:42:59          +inf  -157.336681    3      5      
iter:   2  11:43:00         -1.64  -157.127127    3      2      
iter:   3  11:43:00         -1.81  -157.027213    3      2      
iter:   4  11:43:01         -1.99  -156.983216    3      2      
iter:   5  11:43:01         -2.24  -156.980287    2      2      
iter:   6  11:43:02         -2.35  -156.976767    2      2      
iter:   7  11:43:02         -2.47  -156.973061    2      2      
iter:   8  11:43:03         -2.69  -156.972967    2      2      
iter:   9  11:43:03         -2.91  -156.973830    2      2      
iter:  10  11:43:04         -3.10  -156.969737    2      1      
iter:  11  11:43:04         -3.22  -156.971326    2      1      
iter:  12  11:43:05         -3.39  -156.975256    2      1      
iter:  13  11:43:05         -3.45  -156.973570    2      1      
iter:  14  11:43:06         -3.57  -156.974266    2      1      
iter:  15  11:43:06         -3.65  -156.974271    2      1      
iter:  16  11:43:06         -3.72  -156.973213    2      1      
iter:  17  11:43:07         -3.91  -156.973781    2      1      
iter:  18  11:43:07         -4.01  -156.974196    2      1      

Converged after 18 iterations.

Dipole moment: (0.278652, 0.340505, 0.023969) |e|*Ang

Energy contributions relative to reference atoms: (reference = -24663.074771)

Kinetic:        +12.585071
Potential:      -41.426894
External:        +0.000000
XC:            -130.670121
Entropy (-ST):   -0.305642
Local:           +2.690570
--------------------------
Free energy:   -157.127017
Extrapolated:  -156.974196

Fermi level: -4.59209

 Band  Eigenvalues  Occupancy
    0    -22.43255    2.00000
    1    -21.23692    2.00000
    2    -20.78856    2.00000
    3    -20.42509    2.00000
    4    -19.69628    2.00000
    5    -19.02445    2.00000
    6    -18.65983    2.00000
    7    -18.51326    2.00000
    8    -17.63883    2.00000
    9    -17.41956    2.00000
   10    -16.94536    2.00000
   11    -16.35076    2.00000
   12    -15.74611    2.00000
   13    -15.30834    2.00000
   14    -14.70417    2.00000
   15    -14.11121    2.00000
   16    -13.63475    2.00000
   17    -13.17308    2.00000
   18    -13.02905    2.00000
   19    -12.65746    2.00000
   20    -11.70658    2.00000
   21    -11.13915    2.00000
   22    -10.30843    2.00000
   23    -10.06070    2.00000
   24     -9.66531    2.00000
   25     -9.47097    2.00000
   26     -9.21091    2.00000
   27     -9.06719    2.00000
   28     -8.99622    2.00000
   29     -8.66868    2.00000
   30     -8.50731    2.00000
   31     -8.42920    2.00000
   32     -8.23822    2.00000
   33     -7.97277    2.00000
   34     -7.59142    2.00000
   35     -7.48517    2.00000
   36     -7.12066    2.00000
   37     -7.05938    2.00000
   38     -6.91762    2.00000
   39     -6.74241    2.00000
   40     -6.57762    2.00000
   41     -6.47972    2.00000
   42     -6.22886    2.00000
   43     -5.96099    2.00000
   44     -5.74117    1.99998
   45     -5.41030    1.99944
   46     -4.97266    1.95648
   47     -4.70147    1.49820
   48     -4.43883    0.35522
   49     -4.32898    0.13433
   50     -4.21796    0.04635
   51     -4.05245    0.00902
   52     -3.82684    0.00095
   53     -3.48189    0.00003
   54     -3.35722    0.00001
   55     -3.08738    0.00000
   56     -2.85333    0.00000
   57     -2.57588    0.00000
   58     -2.39932    0.00000
   59     -2.23614    0.00000
   60     -1.81808    0.00000
   61     -1.26007    0.00000
   62     -1.23591    0.00000
   63     -0.72697    0.00000
   64     -0.23647    0.00000
   65      0.13274    0.00000
   66      0.24782    0.00000
   67      0.58489    0.00000
   68      0.76452    0.00000
   69      1.35053    0.00000
   70      1.46631    0.00000
   71      1.87113    0.00000
   72      1.98046    0.00000
   73      2.17854    0.00000
   74      2.29664    0.00000
   75      2.74223    0.00000
   76      3.33687    0.00000
   77      3.77987    0.00000
   78      4.59754    0.00000
   79      4.82825    0.00000
   80      5.14286    0.00000
   81      5.72910    0.00000
   82      6.34193    0.00000
   83      6.94961    0.00000
   84      7.47864    0.00000
   85      7.71894    0.00000
   86      7.92795    0.00000
   87      8.08927    0.00000
   88      8.47203    0.00000
   89      8.65997    0.00000
   90      8.79567    0.00000
   91      8.92344    0.00000
   92      9.08083    0.00000
   93      9.32592    0.00000
   94      9.40466    0.00000
   95      9.46801    0.00000
   96      9.55399    0.00000
   97      9.82479    0.00000


Forces in eV/Ang:
  0 C    -2.68821   -2.26005    1.92555
  1 C    -1.40946   -2.18346    2.79966
  2 C    -0.62004   -0.19372    0.26353
  3 C     4.16558    4.87941   -1.29800
  4 C     0.67735   -0.24879   -6.21463
  5 C     0.22523    3.04814    3.51849
  6 C    -0.53061   -1.12704    2.08706
  7 C     1.25922    5.33172   -2.16852
  8 C    -2.82120    3.83650    0.33112
  9 C    -0.22657   -5.60724    0.28634
 10 C     0.65238   -0.73451   -2.70371
 11 C     5.32938    0.65429    2.27745
 12 C     2.98752    0.68648    0.17195
 13 C    -2.14191   -5.02650   -2.81639
 14 C     3.68911   -6.41579   -0.56050
 15 C    -0.33992    4.26116    2.50778
 16 C    -3.05291    6.40932   -1.87416
 17 C    -0.37874   -0.48863    0.01574
 18 C     1.07011    0.47374   -2.06457
 19 C    -1.76938   -1.30412   -0.18657
 20 C    -2.80106   -2.60516   -0.25127
 21 C     0.18015   -3.80463    3.14885
 22 C    -1.90798    1.97803    0.49349
 23 C     0.45509    0.42294    0.29012

System changes: positions 

Initializing position-dependent things.

Density initialized from wave functions
           .--------------------------------------.  
          /|                                      |  
         / |                                      |  
        /  |                                      |  
       /   |                                      |  
      /    |                                      |  
     /     |                                      |  
    /      |                                      |  
   /       |                                      |  
  /        |     CC  C  CC                        |  
 *         |              C                       |  
 |         |    C  C  C  C         C              |  
 |         .-----C------C---C---------------------.  
 |        /    C   C  C        C  C              /   
 |       /       C       C  C                   /    
 |      /              C                       /     
 |     /                                      /      
 |    /                                      /       
 |   /                                      /        
 |  /                                      /         
 | /                                      /          
 |/                                      /           
 *--------------------------------------*            

Positions:
   0 C      6.235962    4.500920    4.890241
   1 C      7.444529    5.365267    4.544883
   2 C     11.042211    5.227589    4.466508
   3 C      4.583741    4.711013    5.270840
   4 C      8.769315    3.853505    5.024208
   5 C      8.398565    2.712958    4.128435
   6 C      9.997732    4.473520    4.538154
   7 C      5.974706    2.918889    5.391288
   8 C     12.002297    6.235784    4.468213
   9 C      4.728082    6.394611    5.064102
  10 C      7.634697    6.728056    4.794705
  11 C      3.715521   11.260161    4.710470
  12 C      6.658806    7.826335    4.914886
  13 C     11.770657    7.784020    4.839419
  14 C      5.208251    7.729812    5.009879
  15 C     10.277299    7.302070    3.986950
  16 C      4.325224    9.662793    5.450734
  17 C      7.651345   10.234488    4.775655
  18 C      7.669370    8.865313    4.798559
  19 C      6.287267   12.479878    4.743393
  20 C      5.001091   12.097626    4.835031
  21 C      8.928422    7.841715    4.168458
  22 C      4.142434    8.559605    4.811197
  23 C      7.086036   11.376598    4.748866

Unit cell:
           periodic     x           y           z      points  spacing
  1. axis:    yes   16.000000    0.000000    0.000000    80     0.2000
  2. axis:    yes    0.000000   16.000000    0.000000    80     0.2000
  3. axis:    yes    0.000000    0.000000   10.000000    48     0.2083

Effective grid spacing dv^(1/3) = 0.2027

                     log10-error:    total        iterations:
           time      wfs    density  energy       fermi  poisson
iter:   1  11:43:09          +inf  -160.050095    3      5      
iter:   2  11:43:09         -1.65  -159.858316    3      2      
iter:   3  11:43:10         -1.79  -159.731899    3      2      
iter:   4  11:43:10         -2.04  -159.704729    3      2      
iter:   5  11:43:11         -2.22  -159.698420    2      2      
iter:   6  11:43:11         -2.37  -159.696114    2      2      
iter:   7  11:43:12         -2.50  -159.691525    3      2      
iter:   8  11:43:12         -2.78  -159.693817    2      2      
iter:   9  11:43:13         -2.94  -159.688522    2      1      
iter:  10  11:43:13         -3.11  -159.688926    2      1      
iter:  11  11:43:14         -3.25  -159.690550    2      1      
iter:  12  11:43:14         -3.46  -159.693091    2      1      
iter:  13  11:43:15         -3.56  -159.696012    2      1      
iter:  14  11:43:15         -3.66  -159.694761    2      1      
iter:  15  11:43:16         -3.78  -159.693369    2      1      
iter:  16  11:43:16         -3.94  -159.694304    2      1      
iter:  17  11:43:17         -4.12  -159.694658    2      1      

Converged after 17 iterations.

Dipole moment: (0.366934, 0.325733, 0.023078) |e|*Ang

Energy contributions relative to reference atoms: (reference = -24663.074771)

Kinetic:        +11.891111
Potential:      -41.147384
External:        +0.000000
XC:            -133.011942
Entropy (-ST):   -0.286301
Local:           +2.716707
--------------------------
Free energy:   -159.837809
Extrapolated:  -159.694658

Fermi level: -4.61790

 Band  Eigenvalues  Occupancy
    0    -22.29534    2.00000
    1    -21.13798    2.00000
    2    -20.77464    2.00000
    3    -20.54951    2.00000
    4    -19.83774    2.00000
    5    -19.19878    2.00000
    6    -18.80075    2.00000
    7    -18.52835    2.00000
    8    -17.81313    2.00000
    9    -17.61173    2.00000
   10    -17.17337    2.00000
   11    -16.52737    2.00000
   12    -15.78206    2.00000
   13    -15.47095    2.00000
   14    -14.92405    2.00000
   15    -14.24050    2.00000
   16    -13.66347    2.00000
   17    -13.23372    2.00000
   18    -13.16078    2.00000
   19    -12.71222    2.00000
   20    -11.74854    2.00000
   21    -11.20202    2.00000
   22    -10.27616    2.00000
   23    -10.18132    2.00000
   24     -9.83506    2.00000
   25     -9.57366    2.00000
   26     -9.36312    2.00000
   27     -9.07128    2.00000
   28     -9.05083    2.00000
   29     -8.76493    2.00000
   30     -8.53236    2.00000
   31     -8.50487    2.00000
   32     -8.31370    2.00000
   33     -8.04795    2.00000
   34     -7.61157    2.00000
   35     -7.53784    2.00000
   36     -7.14567    2.00000
   37     -7.07433    2.00000
   38     -6.93795    2.00000
   39     -6.84378    2.00000
   40     -6.56400    2.00000
   41     -6.44708    2.00000
   42     -6.30438    2.00000
   43     -6.06043    2.00000
   44     -5.71115    1.99996
   45     -5.41906    1.99934
   46     -5.09685    1.98350
   47     -4.72664    1.49578
   48     -4.46794    0.36497
   49     -4.31371    0.09113
   50     -4.26805    0.05871
   51     -4.04062    0.00620
   52     -3.76190    0.00038
   53     -3.43815    0.00002
   54     -3.35612    0.00001
   55     -2.95498    0.00000
   56     -2.73993    0.00000
   57     -2.50400    0.00000
   58     -2.31682    0.00000
   59     -2.09309    0.00000
   60     -1.74959    0.00000
   61     -1.19101    0.00000
   62     -1.15135    0.00000
   63     -0.71087    0.00000
   64     -0.11364    0.00000
   65      0.26231    0.00000
   66      0.41396    0.00000
   67      0.76199    0.00000
   68      1.09009    0.00000
   69      1.44054    0.00000
   70      1.77964    0.00000
   71      2.06071    0.00000
   72      2.34026    0.00000
   73      2.50824    0.00000
   74      2.80498    0.00000
   75      3.10429    0.00000
   76      3.73328    0.00000
   77      4.19619    0.00000
   78      4.76577    0.00000
   79      5.22693    0.00000
   80      5.44661    0.00000
   81      5.69784    0.00000
   82      6.75543    0.00000
   83      6.96020    0.00000
   84      7.53669    0.00000
   85      7.74818    0.00000
   86      7.98301    0.00000
   87      8.11616    0.00000
   88      8.53398    0.00000
   89      8.64285    0.00000
   90      8.79063    0.00000
   91      8.95080    0.00000
   92      9.08447    0.00000
   93      9.31963    0.00000
   94      9.43154    0.00000
   95      9.47944    0.00000
   96      9.59120    0.00000
   97      9.84562    0.00000


Forces in eV/Ang:
  0 C    -2.35446   -2.18889    1.80695
  1 C    -1.27888   -2.07076    2.67967
  2 C    -0.47069   -0.21041    0.31294
  3 C     3.94999    5.38538   -1.24562
  4 C     0.38361   -0.02397   -5.65350
  5 C     0.11773    2.64461    3.09216
  6 C    -0.13646   -0.82848    1.88376
  7 C     1.13942    5.30358   -2.06410
  8 C    -3.13786    3.50850    0.20582
  9 C     0.18857   -5.86193    0.35205
 10 C     0.86311   -0.76865   -2.56963
 11 C     5.10849    0.20750    2.33557
 12 C     2.31384    0.35231    0.06633
 13 C    -2.25074   -4.70909   -2.75421
 14 C     2.49390   -5.34748   -0.58139
 15 C     0.04227    4.01141    2.59339
 16 C    -3.04731    6.30937   -2.23010
 17 C    -0.31577   -0.38667   -0.02997
 18 C     1.00417    0.33978   -1.86910
 19 C    -1.75890   -1.28284   -0.23578
 20 C    -2.36811   -2.61770   -0.14852
 21 C    -0.02556   -3.67401    3.02141
 22 C    -0.72365    1.35130    0.76102
 23 C     0.31966    0.45733    0.30094

System changes: positions 

Initializing position-dependent things.

Density initialized from wave functions
           .--------------------------------------.  
          /|                                      |  
         / |                                      |  
        /  |                                      |  
       /   |                                      |  
      /    |                                      |  
     /     |                                      |  
    /      |                                      |  
   /       |                                      |  
  /        |     CC  C  CC                        |  
 *         |              C                       |  
 |         |    C  C  C  C         C              |  
 |         .-----C------C---C---------------------.  
 |        /    C   C  C        C  C              /   
 |       /       C       C  C                   /    
 |      /              C                       /     
 |     /                                      /      
 |    /                                      /       
 |   /                                      /        
 |  /                                      /         
 | /                                      /          
 |/                                      /           
 *--------------------------------------*            

Positions:
   0 C      6.224368    4.489033    4.899791
   1 C      7.438099    5.354548    4.559186
   2 C     11.039859    5.226073    4.468561
   3 C      4.604711    4.743610    5.264127
   4 C      8.769571    3.854239    4.995664
   5 C      8.398710    2.725767    4.143569
   6 C     10.000090    4.471168    4.547411
   7 C      5.980508    2.948434    5.380250
   8 C     11.982831    6.253601    4.468719
   9 C      4.731319    6.360842    5.066322
  10 C      7.640847    6.723339    4.781019
  11 C      3.743053   11.259108    4.723920
  12 C      6.667857    7.826301    4.914698
  13 C     11.757576    7.759262    4.824327
  14 C      5.212700    7.708224    5.005972
  15 C     10.279582    7.323060    4.001915
  16 C      4.307985    9.695319    5.435084
  17 C      7.649823   10.233308    4.775233
  18 C      7.674841    8.866448    4.789122
  19 C      6.277120   12.472680    4.741856
  20 C      4.990461   12.082912    4.834731
  21 C      8.927183    7.821896    4.184621
  22 C      4.147940    8.563292    4.818689
  23 C      7.087132   11.379187    4.750604

Unit cell:
           periodic     x           y           z      points  spacing
  1. axis:    yes   16.000000    0.000000    0.000000    80     0.2000
  2. axis:    yes    0.000000   16.000000    0.000000    80     0.2000
  3. axis:    yes    0.000000    0.000000   10.000000    48     0.2083

Effective grid spacing dv^(1/3) = 0.2027

                     log10-error:    total        iterations:
           time      wfs    density  energy       fermi  poisson
iter:   1  11:43:18          +inf  -162.393317    3      5      
iter:   2  11:43:19         -1.68  -162.219752    3      2      
iter:   3  11:43:19         -1.82  -162.083133    3      2      
iter:   4  11:43:20         -2.13  -162.070784    2      2      
iter:   5  11:43:20         -2.26  -162.064689    2      2      
iter:   6  11:43:21         -2.41  -162.062300    2      2      
iter:   7  11:43:21         -2.56  -162.058639    3      2      
iter:   8  11:43:22         -2.88  -162.055883    2      1      
iter:   9  11:43:22         -2.97  -162.061585    2      2      
iter:  10  11:43:23         -3.29  -162.061706    2      1      
iter:  11  11:43:23         -3.39  -162.059577    2      1      
iter:  12  11:43:23         -3.55  -162.062250    2      1      
iter:  13  11:43:24         -3.65  -162.062808    2      1      
iter:  14  11:43:24         -3.81  -162.061200    2      1      
iter:  15  11:43:25         -3.95  -162.062094    2      1      
iter:  16  11:43:25         -4.02  -162.061871    2      1      

Converged after 16 iterations.

Dipole moment: (0.442525, 0.299496, 0.018136) |e|*Ang

Energy contributions relative to reference atoms: (reference = -24663.074771)

Kinetic:        +11.621215
Potential:      -41.082630
External:        +0.000000
XC:            -135.204271
Entropy (-ST):   -0.268529
Local:           +2.738081
--------------------------
Free energy:   -162.196135
Extrapolated:  -162.061871

Fermi level: -4.64602

 Band  Eigenvalues  Occupancy
    0    -22.20319    2.00000
    1    -21.03093    2.00000
    2    -20.78673    2.00000
    3    -20.65072    2.00000
    4    -19.99667    2.00000
    5    -19.36396    2.00000
    6    -18.92867    2.00000
    7    -18.50482    2.00000
    8    -17.94904    2.00000
    9    -17.75534    2.00000
   10    -17.36177    2.00000
   11    -16.66376    2.00000
   12    -15.80591    2.00000
   13    -15.66762    2.00000
   14    -15.11147    2.00000
   15    -14.33495    2.00000
   16    -13.68303    2.00000
   17    -13.35314    2.00000
   18    -13.21811    2.00000
   19    -12.73656    2.00000
   20    -11.78604    2.00000
   21    -11.25987    2.00000
   22    -10.31314    2.00000
   23    -10.27086    2.00000
   24     -9.96668    2.00000
   25     -9.68248    2.00000
   26     -9.50496    2.00000
   27     -9.12419    2.00000
   28     -9.04344    2.00000
   29     -8.85002    2.00000
   30     -8.57981    2.00000
   31     -8.54531    2.00000
   32     -8.38321    2.00000
   33     -8.15108    2.00000
   34     -7.68498    2.00000
   35     -7.52517    2.00000
   36     -7.16200    2.00000
   37     -7.11358    2.00000
   38     -6.93463    2.00000
   39     -6.92004    2.00000
   40     -6.53608    2.00000
   41     -6.40530    2.00000
   42     -6.34464    2.00000
   43     -6.13699    2.00000
   44     -5.70090    1.99995
   45     -5.38061    1.99871
   46     -5.20598    1.99263
   47     -4.76177    1.52174
   48     -4.49172    0.35220
   49     -4.34193    0.09122
   50     -4.25618    0.03974
   51     -4.01545    0.00365
   52     -3.70041    0.00016
   53     -3.39081    0.00001
   54     -3.31240    0.00000
   55     -2.82764    0.00000
   56     -2.63467    0.00000
   57     -2.44151    0.00000
   58     -2.23409    0.00000
   59     -1.95482    0.00000
   60     -1.67923    0.00000
   61     -1.13156    0.00000
   62     -1.09501    0.00000
   63     -0.68545    0.00000
   64      0.00788    0.00000
   65      0.37445    0.00000
   66      0.53686    0.00000
   67      0.94030    0.00000
   68      1.31923    0.00000
   69      1.52869    0.00000
   70      2.17637    0.00000
   71      2.21623    0.00000
   72      2.67755    0.00000
   73      2.81651    0.00000
   74      3.36017    0.00000
   75      3.37146    0.00000
   76      4.09960    0.00000
   77      4.61673    0.00000
   78      4.90556    0.00000
   79      5.40327    0.00000
   80      5.66432    0.00000
   81      5.92715    0.00000
   82      7.00301    0.00000
   83      7.02191    0.00000
   84      7.62001    0.00000
   85      7.79720    0.00000
   86      8.06120    0.00000
   87      8.16158    0.00000
   88      8.57416    0.00000
   89      8.65957    0.00000
   90      8.78035    0.00000
   91      8.98247    0.00000
   92      9.10965    0.00000
   93      9.28784    0.00000
   94      9.45733    0.00000
   95      9.50883    0.00000
   96      9.61308    0.00000
   97      9.86119    0.00000


Forces in eV/Ang:
  0 C    -1.97356   -2.05936    1.62944
  1 C    -1.15344   -1.99502    2.55179
  2 C    -0.41455   -0.30377    0.35312
  3 C     3.69488    5.89090   -1.21180
  4 C     0.16869    0.33247   -5.08655
  5 C    -0.00210    2.22753    2.63803
  6 C     0.14603   -0.60464    1.71696
  7 C     0.97564    5.23006   -1.96575
  8 C    -3.28189    3.15787    0.04637
  9 C     0.52523   -6.15544    0.39917
 10 C     1.02168   -0.78500   -2.48192
 11 C     4.91090   -0.30015    2.43620
 12 C     1.83312    0.08822   -0.01682
 13 C    -2.39809   -4.28658   -2.69051
 14 C     1.74566   -4.57297   -0.54371
 15 C     0.37897    3.79507    2.68333
 16 C    -3.12297    5.85910   -2.77998
 17 C    -0.28702   -0.28083   -0.06457
 18 C     0.89480    0.23309   -1.69658
 19 C    -1.69060   -1.22743   -0.26811
 20 C    -2.02642   -2.56137   -0.04725
 21 C    -0.23021   -3.56477    2.90375
 22 C     0.01637    1.39492    1.15896
 23 C     0.24063    0.38619    0.30865

System changes: positions 

Initializing position-dependent things.

Density initialized from wave functions
           .--------------------------------------.  
          /|                                      |  
         / |                                      |  
        /  |                                      |  
       /   |                                      |  
      /    |                                      |  
     /     |                                      |  
    /      |                                      |  
   /       |                                      |  
  /        |     CC  C  CC                        |  
 *         |              C                       |  
 |         |    C  C  C  C        C               |  
 |         .----C-------C---C---------------------.  
 |        /    C   C  C        C  C              /   
 |       /       C       C  C                   /    
 |      /              C                       /     
 |     /                                      /      
 |    /                                      /       
 |   /                                      /        
 |  /                                      /         
 | /                                      /          
 |/                                      /           
 *--------------------------------------*            

Positions:
   0 C      6.215719    4.478472    4.907730
   1 C      7.432531    5.344191    4.572352
   2 C     11.037932    5.223923    4.470717
   3 C      4.623419    4.778385    5.257750
   4 C      8.769232    3.857882    4.971147
   5 C      8.398044    2.735544    4.155411
   6 C     10.002612    4.469235    4.555780
   7 C      5.984956    2.976478    5.370131
   8 C     11.964028    6.268819    4.468135
   9 C      4.736105    6.325880    5.068806
  10 C      7.647340    6.718987    4.768079
  11 C      3.768595   11.254736    4.737655
  12 C      6.675214    7.825212    4.914091
  13 C     11.743766    7.738209    4.810053
  14 C      5.216272    7.688869    5.003026
  15 C     10.283558    7.342469    4.016989
  16 C      4.290788    9.725177    5.417275
  17 C      7.648459   10.232348    4.774675
  18 C      7.679126    8.867099    4.780918
  19 C      6.268233   12.466287    4.740191
  20 C      4.981496   12.069252    4.835067
  21 C      8.924781    7.803153    4.199758
  22 C      4.153564    8.569355    4.827095
  23 C      7.087948   11.381001    4.752335

Unit cell:
           periodic     x           y           z      points  spacing
  1. axis:    yes   16.000000    0.000000    0.000000    80     0.2000
  2. axis:    yes    0.000000   16.000000    0.000000    80     0.2000
  3. axis:    yes    0.000000    0.000000   10.000000    48     0.2083

Effective grid spacing dv^(1/3) = 0.2027

                     log10-error:    total        iterations:
           time      wfs    density  energy       fermi  poisson
iter:   1  11:43:27          +inf  -164.524668    3      5      
iter:   2  11:43:27         -1.70  -164.369164    3      2      
iter:   3  11:43:28         -1.84  -164.229417    3      2      
iter:   4  11:43:28         -2.19  -164.224223    3      2      
iter:   5  11:43:29         -2.31  -164.219380    2      2      
iter:   6  11:43:29         -2.45  -164.215259    2      2      
iter:   7  11:43:30         -2.64  -164.214351    3      2      
iter:   8  11:43:30         -2.93  -164.213268    2      1      
iter:   9  11:43:31         -3.07  -164.216236    2      2      
iter:  10  11:43:31         -3.35  -164.216980    2      1      
iter:  11  11:43:32         -3.41  -164.215922    2      1      
iter:  12  11:43:32         -3.71  -164.217641    2      1      
iter:  13  11:43:33         -3.77  -164.217866    2      1      
iter:  14  11:43:33         -3.89  -164.215961    2      1      
iter:  15  11:43:34         -4.07  -164.216758    2      1      

Converged after 15 iterations.

Dipole moment: (0.505842, 0.265129, 0.011418) |e|*Ang

Energy contributions relative to reference atoms: (reference = -24663.074771)

Kinetic:        +12.513053
Potential:      -41.898203
External:        +0.000000
XC:            -137.468587
Entropy (-ST):   -0.250284
Local:           +2.762120
--------------------------
Free energy:   -164.341900
Extrapolated:  -164.216758

Fermi level: -4.67652

 Band  Eigenvalues  Occupancy
    0    -22.13167    2.00000
    1    -20.98617    2.00000
    2    -20.80917    2.00000
    3    -20.66205    2.00000
    4    -20.15777    2.00000
    5    -19.53232    2.00000
    6    -19.02067    2.00000
    7    -18.50023    2.00000
    8    -18.06108    2.00000
    9    -17.86324    2.00000
   10    -17.50755    2.00000
   11    -16.77480    2.00000
   12    -15.94099    2.00000
   13    -15.76247    2.00000
   14    -15.26851    2.00000
   15    -14.38441    2.00000
   16    -13.69470    2.00000
   17    -13.48194    2.00000
   18    -13.24358    2.00000
   19    -12.73568    2.00000
   20    -11.82076    2.00000
   21    -11.32336    2.00000
   22    -10.42381    2.00000
   23    -10.33173    2.00000
   24    -10.03204    2.00000
   25     -9.78315    2.00000
   26     -9.64517    2.00000
   27     -9.19982    2.00000
   28     -9.02091    2.00000
   29     -8.91865    2.00000
   30     -8.64797    2.00000
   31     -8.55577    2.00000
   32     -8.43379    2.00000
   33     -8.25843    2.00000
   34     -7.77274    2.00000
   35     -7.50551    2.00000
   36     -7.18654    2.00000
   37     -7.15061    2.00000
   38     -7.00113    2.00000
   39     -6.90116    2.00000
   40     -6.51330    2.00000
   41     -6.39312    2.00000
   42     -6.34024    2.00000
   43     -6.19232    2.00000
   44     -5.70823    1.99993
   45     -5.31788    1.99673
   46     -5.28917    1.99564
   47     -4.80475    1.56568
   48     -4.51063    0.31982
   49     -4.38463    0.10245
   50     -4.20680    0.01808
   51     -3.96468    0.00162
   52     -3.62662    0.00006
   53     -3.34348    0.00000
   54     -3.23113    0.00000
   55     -2.70102    0.00000
   56     -2.52992    0.00000
   57     -2.37654    0.00000
   58     -2.13836    0.00000
   59     -1.82791    0.00000
   60     -1.59813    0.00000
   61     -1.07269    0.00000
   62     -1.03963    0.00000
   63     -0.64113    0.00000
   64      0.13675    0.00000
   65      0.49295    0.00000
   66      0.65270    0.00000
   67      1.12709    0.00000
   68      1.46235    0.00000
   69      1.64443    0.00000
   70      2.34704    0.00000
   71      2.58594    0.00000
   72      2.97813    0.00000
   73      3.15423    0.00000
   74      3.54904    0.00000
   75      3.97743    0.00000
   76      4.49646    0.00000
   77      4.89588    0.00000
   78      5.10984    0.00000
   79      5.55568    0.00000
   80      5.76789    0.00000
   81      6.28200    0.00000
   82      7.07763    0.00000
   83      7.18528    0.00000
   84      7.67063    0.00000
   85      7.90713    0.00000
   86      8.15410    0.00000
   87      8.21721    0.00000
   88      8.59853    0.00000
   89      8.71553    0.00000
   90      8.78339    0.00000
   91      9.02211    0.00000
   92      9.15563    0.00000
   93      9.25337    0.00000
   94      9.48060    0.00000
   95      9.54386    0.00000
   96      9.63315    0.00000
   97      9.89452    0.00000


Forces in eV/Ang:
  0 C    -1.58450   -1.95164    1.48684
  1 C    -0.99799   -1.89776    2.43670
  2 C    -0.31223   -0.34880    0.37959
  3 C     3.48257    6.18737   -1.18509
  4 C     0.02074    0.64324   -4.56358
  5 C    -0.10294    1.84022    2.26309
  6 C     0.34793   -0.43901    1.55697
  7 C     0.81487    5.04454   -1.84349
  8 C    -3.37460    2.72465   -0.05847
  9 C     0.81274   -6.12230    0.45760
 10 C     1.16405   -0.78413   -2.37217
 11 C     4.63905   -0.77751    2.48891
 12 C     1.35297   -0.14150   -0.08320
 13 C    -2.50564   -3.80942   -2.64370
 14 C     1.07463   -3.78639   -0.50645
 15 C     0.61337    3.60137    2.73631
 16 C    -3.10450    5.56452   -3.12665
 17 C    -0.24218   -0.26023   -0.09057
 18 C     0.81344    0.14461   -1.53896
 19 C    -1.54863   -1.14614   -0.28817
 20 C    -1.68224   -2.45335    0.04423
 21 C    -0.34505   -3.46306    2.77319
 22 C     0.62569    1.20246    1.37922
 23 C     0.13093    0.36748    0.31083

System changes: positions 

Initializing position-dependent things.

Density initialized from wave functions
           .--------------------------------------.  
          /|                                      |  
         / |                                      |  
        /  |                                      |  
       /   |                                      |  
      /    |                                      |  
     /     |                                      |  
    /      |                                      |  
   /       |                                      |  
  /        |     CC  C  CC                        |  
 *         |              C                       |  
 |         |    C  C  C  C        C               |  
 |         .----C-------C---C---------------------.  
 |        /    C   C  C        C  C              /   
 |       /       C       C  C                   /    
 |      /              C                       /     
 |     /                                      /      
 |    /                                      /       
 |   /                                      /        
 |  /                                      /         
 | /                                      /          
 |/                                      /           
 *--------------------------------------*            

Positions:
   0 C      6.209707    4.468622    4.914791
   1 C      7.428035    5.334293    4.584887
   2 C     11.036898    5.221696    4.472900
   3 C      4.640942    4.813790    5.251465
   4 C      8.768827    3.863686    4.949493
   5 C      8.396815    2.743020    4.165303
   6 C     10.004936    4.467330    4.563447
   7 C      5.988292    3.002576    5.360910
   8 C     11.945645    6.280933    4.467130
   9 C      4.742097    6.292712    5.071714
  10 C      7.654303    6.714951    4.755829
  11 C      3.792028   11.247436    4.751472
  12 C      6.680538    7.823288    4.913240
  13 C     11.729405    7.720713    4.796003
  14 C      5.219084    7.672114    5.000765
  15 C     10.288201    7.360991    4.032148
  16 C      4.274208    9.754519    5.398870
  17 C      7.647412   10.230765    4.774052
  18 C      7.682822    8.867439    4.773543
  19 C      6.261008   12.460720    4.738498
  20 C      4.974172   12.056760    4.835905
  21 C      8.922209    7.784926    4.214087
  22 C      4.159091    8.574845    4.835061
  23 C      7.088084   11.382785    4.754038

Unit cell:
           periodic     x           y           z      points  spacing
  1. axis:    yes   16.000000    0.000000    0.000000    80     0.2000
  2. axis:    yes    0.000000   16.000000    0.000000    80     0.2000
  3. axis:    yes    0.000000    0.000000   10.000000    48     0.2083

Effective grid spacing dv^(1/3) = 0.2027

                     log10-error:    total        iterations:
           time      wfs    density  energy       fermi  poisson
iter:   1  11:43:35          +inf  -166.458376    3      5      
iter:   2  11:43:36         -1.72  -166.310554    3      2      
iter:   3  11:43:36         -1.85  -166.170621    3      2      
iter:   4  11:43:37         -2.22  -166.165370    3      2      
iter:   5  11:43:37         -2.40  -166.163380    2      2      
iter:   6  11:43:38         -2.50  -166.155770    2      2      
iter:   7  11:43:38         -2.75  -166.159271    3      2      
iter:   8  11:43:39         -2.97  -166.155769    2      1      
iter:   9  11:43:39         -3.11  -166.156018    2      1      
iter:  10  11:43:40         -3.23  -166.157029    2      1      
iter:  11  11:43:40         -3.45  -166.158806    2      1      
iter:  12  11:43:40         -3.53  -166.160881    2      1      
iter:  13  11:43:41         -3.63  -166.159777    2      1      
iter:  14  11:43:41         -3.73  -166.160430    1      1      
iter:  15  11:43:42         -3.78  -166.162585    2      1      
iter:  16  11:43:42         -3.91  -166.161729    2      1      
iter:  17  11:43:43         -4.42  -166.161023    2      1      

Converged after 17 iterations.

Dipole moment: (0.561182, 0.237719, 0.003824) |e|*Ang

Energy contributions relative to reference atoms: (reference = -24663.074771)

Kinetic:        +14.500226
Potential:      -43.565895
External:        +0.000000
XC:            -139.758671
Entropy (-ST):   -0.234876
Local:           +2.780755
--------------------------
Free energy:   -166.278460
Extrapolated:  -166.161023

Fermi level: -4.70611

 Band  Eigenvalues  Occupancy
    0    -22.07530    2.00000
    1    -21.09126    2.00000
    2    -20.75129    2.00000
    3    -20.62022    2.00000
    4    -20.30113    2.00000
    5    -19.69769    2.00000
    6    -19.08245    2.00000
    7    -18.51269    2.00000
    8    -18.16032    2.00000
    9    -17.94144    2.00000
   10    -17.61221    2.00000
   11    -16.87898    2.00000
   12    -16.14645    2.00000
   13    -15.75456    2.00000
   14    -15.41022    2.00000
   15    -14.40313    2.00000
   16    -13.70476    2.00000
   17    -13.59531    2.00000
   18    -13.26612    2.00000
   19    -12.71593    2.00000
   20    -11.85625    2.00000
   21    -11.39607    2.00000
   22    -10.52790    2.00000
   23    -10.42077    2.00000
   24    -10.05013    2.00000
   25     -9.86858    2.00000
   26     -9.77980    2.00000
   27     -9.27622    2.00000
   28     -9.04215    2.00000
   29     -8.94825    2.00000
   30     -8.70865    2.00000
   31     -8.58206    2.00000
   32     -8.44858    2.00000
   33     -8.36132    2.00000
   34     -7.85745    2.00000
   35     -7.49892    2.00000
   36     -7.22989    2.00000
   37     -7.18018    2.00000
   38     -7.02296    2.00000
   39     -6.88135    2.00000
   40     -6.50897    2.00000
   41     -6.40511    2.00000
   42     -6.29906    2.00000
   43     -6.22793    2.00000
   44     -5.72853    1.99993
   45     -5.35468    1.99695
   46     -5.23599    1.99005
   47     -4.84983    1.61605
   48     -4.52527    0.28166
   49     -4.41965    0.10786
   50     -4.13974    0.00692
   51     -3.88888    0.00056
   52     -3.53942    0.00002
   53     -3.28533    0.00000
   54     -3.13296    0.00000
   55     -2.58322    0.00000
   56     -2.42216    0.00000
   57     -2.30713    0.00000
   58     -2.04305    0.00000
   59     -1.71694    0.00000
   60     -1.49986    0.00000
   61     -1.03448    0.00000
   62     -0.96878    0.00000
   63     -0.59491    0.00000
   64      0.27233    0.00000
   65      0.60102    0.00000
   66      0.78221    0.00000
   67      1.30740    0.00000
   68      1.56880    0.00000
   69      1.78032    0.00000
   70      2.47859    0.00000
   71      2.88260    0.00000
   72      3.24501    0.00000
   73      3.52612    0.00000
   74      3.70190    0.00000
   75      4.56808    0.00000
   76      4.86258    0.00000
   77      5.08776    0.00000
   78      5.35484    0.00000
   79      5.68452    0.00000
   80      5.97876    0.00000
   81      6.53969    0.00000
   82      7.16453    0.00000
   83      7.31669    0.00000
   84      7.70241    0.00000
   85      8.05759    0.00000
   86      8.21987    0.00000
   87      8.30283    0.00000
   88      8.62744    0.00000
   89      8.76854    0.00000
   90      8.81118    0.00000
   91      9.06213    0.00000
   92      9.20777    0.00000
   93      9.22172    0.00000
   94      9.49985    0.00000
   95      9.57847    0.00000
   96      9.66147    0.00000
   97      9.93799    0.00000


Forces in eV/Ang:
  0 C    -1.21200   -1.78481    1.34759
  1 C    -0.80067   -1.82493    2.30839
  2 C    -0.24419   -0.40899    0.40457
  3 C     3.24068    6.08441   -1.15519
  4 C    -0.15855    0.98219   -4.10183
  5 C    -0.17141    1.50931    1.92013
  6 C     0.55600   -0.28702    1.40449
  7 C     0.67561    4.79886   -1.70297
  8 C    -3.36581    2.31707   -0.17475
  9 C     0.97033   -5.67922    0.48343
 10 C     1.23826   -0.79940   -2.27219
 11 C     4.31511   -1.23869    2.54383
 12 C     0.96917   -0.33184   -0.16356
 13 C    -2.62206   -3.33626   -2.54775
 14 C     0.58502   -3.11422   -0.45852
 15 C     0.74730    3.41891    2.77290
 16 C    -3.07549    5.13512   -3.44742
 17 C    -0.22351   -0.17698   -0.11417
 18 C     0.71715    0.03923   -1.38631
 19 C    -1.46030   -1.09090   -0.30590
 20 C    -1.28759   -2.24957    0.08279
 21 C    -0.43082   -3.33049    2.65644
 22 C     1.09095    1.13757    1.60145
 23 C     0.07530    0.26973    0.30861

System changes: positions 

Initializing position-dependent things.

Density initialized from wave functions
           .--------------------------------------.  
          /|                                      |  
         / |                                      |  
        /  |                                      |  
       /   |                                      |  
      /    |                                      |  
     /     |                                      |  
    /      |                                      |  
   /       |                                      |  
  /        |     C   C  CC                        |  
 *         |              C                       |  
 |         |     C C  C  C        C               |  
 |         .----C-------C---C---------------------.  
 |        /    C   C  C        C  C              /   
 |       /       C       C  C                   /    
 |      /              C                       /     
 |     /                                      /      
 |    /                                      /       
 |   /                                      /        
 |  /                                      /         
 | /                                      /          
 |/                                      /           
 *--------------------------------------*            

Positions:
   0 C      6.205804    4.459422    4.921554
   1 C      7.424839    5.323755    4.597643
   2 C     11.036238    5.218908    4.475350
   3 C      4.658286    4.848410    5.244790
   4 C      8.767537    3.872708    4.928449
   5 C      8.395237    2.749273    4.174157
   6 C     10.007941    4.465525    4.570998
   7 C      5.991016    3.028414    5.352045
   8 C     11.926948    6.291171    4.465319
   9 C      4.748546    6.263239    5.074921
  10 C      7.661715    6.710567    4.743120
  11 C      3.814705   11.236381    4.766761
  12 C      6.684926    7.820503    4.911773
  13 C     11.712955    7.705309    4.781600
  14 C      5.222092    7.656308    4.999005
  15 C     10.293045    7.380213    4.048669
  16 C      4.256769    9.783767    5.377883
  17 C      7.646276   10.229462    4.773285
  18 C      7.686030    8.867134    4.766437
  19 C      6.253960   12.455098    4.736603
  20 C      4.968911   12.045480    4.836723
  21 C      8.919357    7.766077    4.228992
  22 C      4.164863    8.581378    4.843981
  23 C      7.088167   11.383647    4.755828

Unit cell:
           periodic     x           y           z      points  spacing
  1. axis:    yes   16.000000    0.000000    0.000000    80     0.2000
  2. axis:    yes    0.000000   16.000000    0.000000    80     0.2000
  3. axis:    yes    0.000000    0.000000   10.000000    48     0.2083

Effective grid spacing dv^(1/3) = 0.2027

                     log10-error:    total        iterations:
           time      wfs    density  energy       fermi  poisson
iter:   1  11:43:44          +inf  -168.247006    3      5      
iter:   2  11:43:45         -1.72  -168.105080    3      2      
iter:   3  11:43:45         -1.86  -167.968701    3      2      
iter:   4  11:43:46         -2.24  -167.964934    2      2      
iter:   5  11:43:46         -2.37  -167.961661    2      2      
iter:   6  11:43:47         -2.50  -167.958200    3      2      
iter:   7  11:43:47         -2.65  -167.955284    3      2      
iter:   8  11:43:48         -3.02  -167.953358    2      1      
iter:   9  11:43:48         -3.13  -167.955169    2      1      
iter:  10  11:43:49         -3.22  -167.956322    2      1      
iter:  11  11:43:49         -3.51  -167.959113    2      1      
iter:  12  11:43:50         -3.56  -167.960579    2      1      
iter:  13  11:43:50         -3.61  -167.960024    2      1      
iter:  14  11:43:51         -3.76  -167.958003    2      1      
iter:  15  11:43:51         -3.95  -167.958478    2      1      
iter:  16  11:43:52         -4.08  -167.958621    2      1      

Converged after 16 iterations.

Dipole moment: (0.608250, 0.230333, -0.004095) |e|*Ang

Energy contributions relative to reference atoms: (reference = -24663.074771)

Kinetic:        +18.387369
Potential:      -46.744069
External:        +0.000000
XC:            -142.300906
Entropy (-ST):   -0.225163
Local:           +2.811567
--------------------------
Free energy:   -168.071202
Extrapolated:  -167.958621

Fermi level: -4.72692

 Band  Eigenvalues  Occupancy
    0    -22.02842    2.00000
    1    -21.23927    2.00000
    2    -20.72692    2.00000
    3    -20.56833    2.00000
    4    -20.39661    2.00000
    5    -19.84271    2.00000
    6    -19.13278    2.00000
    7    -18.55010    2.00000
    8    -18.25848    2.00000
    9    -18.00324    2.00000
   10    -17.68149    2.00000
   11    -16.99630    2.00000
   12    -16.29993    2.00000
   13    -15.73879    2.00000
   14    -15.54178    2.00000
   15    -14.40493    2.00000
   16    -13.74703    2.00000
   17    -13.65585    2.00000
   18    -13.29436    2.00000
   19    -12.68795    2.00000
   20    -11.89738    2.00000
   21    -11.47810    2.00000
   22    -10.63704    2.00000
   23    -10.50936    2.00000
   24    -10.07029    2.00000
   25     -9.94251    2.00000
   26     -9.89160    2.00000
   27     -9.34841    2.00000
   28     -9.11384    2.00000
   29     -8.94667    2.00000
   30     -8.77237    2.00000
   31     -8.62169    2.00000
   32     -8.47307    2.00000
   33     -8.42493    2.00000
   34     -7.93292    2.00000
   35     -7.50980    2.00000
   36     -7.29144    2.00000
   37     -7.19210    2.00000
   38     -7.01906    2.00000
   39     -6.85101    2.00000
   40     -6.53670    2.00000
   41     -6.39956    2.00000
   42     -6.29048    2.00000
   43     -6.21523    2.00000
   44     -5.75881    1.99993
   45     -5.38356    1.99719
   46     -5.16247    1.97465
   47     -4.88821    1.66761
   48     -4.53240    0.25014
   49     -4.44051    0.10792
   50     -4.05267    0.00236
   51     -3.80075    0.00019
   52     -3.42443    0.00000
   53     -3.21459    0.00000
   54     -3.02760    0.00000
   55     -2.46594    0.00000
   56     -2.31793    0.00000
   57     -2.21543    0.00000
   58     -1.94540    0.00000
   59     -1.61662    0.00000
   60     -1.37449    0.00000
   61     -0.98381    0.00000
   62     -0.88139    0.00000
   63     -0.54527    0.00000
   64      0.41958    0.00000
   65      0.70922    0.00000
   66      0.94916    0.00000
   67      1.48195    0.00000
   68      1.68298    0.00000
   69      1.93932    0.00000
   70      2.62760    0.00000
   71      3.08757    0.00000
   72      3.50363    0.00000
   73      3.85160    0.00000
   74      3.87996    0.00000
   75      4.98301    0.00000
   76      5.24846    0.00000
   77      5.34940    0.00000
   78      5.63096    0.00000
   79      5.89887    0.00000
   80      6.21608    0.00000
   81      6.73804    0.00000
   82      7.26471    0.00000
   83      7.42272    0.00000
   84      7.73827    0.00000
   85      8.19540    0.00000
   86      8.28847    0.00000
   87      8.41330    0.00000
   88      8.67250    0.00000
   89      8.81443    0.00000
   90      8.86783    0.00000
   91      9.09594    0.00000
   92      9.20259    0.00000
   93      9.27182    0.00000
   94      9.51695    0.00000
   95      9.61465    0.00000
   96      9.70446    0.00000
   97      9.99733    0.00000


Forces in eV/Ang:
  0 C    -0.90142   -1.49946    1.20405
  1 C    -0.56973   -1.72550    2.18027
  2 C    -0.12241   -0.44148    0.42730
  3 C     2.98946    5.33540   -1.08206
  4 C    -0.39343    1.23004   -3.69255
  5 C    -0.23326    1.20941    1.61916
  6 C     0.67956   -0.18758    1.26362
  7 C     0.55433    4.37903   -1.52465
  8 C    -3.27905    1.86579   -0.23747
  9 C     1.06935   -4.65373    0.42879
 10 C     1.25639   -0.83315   -2.12889
 11 C     3.95320   -1.58231    2.52186
 12 C     0.67949   -0.49754   -0.25621
 13 C    -2.70660   -2.83471   -2.44544
 14 C     0.17765   -2.40239   -0.41074
 15 C     0.75512    3.24713    2.77759
 16 C    -2.98498    4.61657   -3.64485
 17 C    -0.18484   -0.16711   -0.13410
 18 C     0.64297   -0.06951   -1.24639
 19 C    -1.34931   -1.05580   -0.33029
 20 C    -0.95513   -2.03067    0.11333
 21 C    -0.46480   -3.14974    2.50576
 22 C     1.46162    1.00043    1.76550
 23 C     0.01273    0.22342    0.30231

System changes: positions 

Initializing position-dependent things.

Density initialized from wave functions
           .--------------------------------------.  
          /|                                      |  
         / |                                      |  
        /  |                                      |  
       /   |                                      |  
      /    |                                      |  
     /     |                                      |  
    /      |                                      |  
   /       |                                      |  
  /        |     C   C  CC                        |  
 *         |              C                       |  
 |         |     C C  C  C        C               |  
 |         .----C-------C---C--C------------------.  
 |        /    C   C  C        C  C              /   
 |       /        C      C  C                   /    
 |      /              C                       /     
 |     /                                      /      
 |    /                                      /       
 |   /                                      /        
 |  /                                      /         
 | /                                      /          
 |/                                      /           
 *--------------------------------------*            

Positions:
   0 C      6.203414    4.452325    4.927849
   1 C      7.423329    5.313053    4.610531
   2 C     11.036748    5.215896    4.478099
   3 C      4.675179    4.875497    5.238327
   4 C      8.764341    3.883840    4.907955
   5 C      8.393247    2.754311    4.182055
   6 C     10.011079    4.463576    4.578365
   7 C      5.993251    3.052069    5.344009
   8 C     11.908345    6.298852    4.463247
   9 C      4.755353    6.243369    5.077473
  10 C      7.669198    6.705540    4.730601
  11 C      3.836211   11.222750    4.782634
  12 C      6.688655    7.816781    4.909479
  13 C     11.694762    7.692435    4.766917
  14 C      5.225185    7.642847    4.997694
  15 C     10.297124    7.399977    4.066269
  16 C      4.239061    9.811514    5.355156
  17 C      7.645377   10.227653    4.772372
  18 C      7.689020    8.866039    4.759599
  19 C      6.247319   12.449163    4.734373
  20 C      4.965162   12.035293    4.837590
  21 C      8.916558    7.747295    4.243909
  22 C      4.171022    8.587946    4.853698
  23 C      7.087935   11.384364    4.757671

Unit cell:
           periodic     x           y           z      points  spacing
  1. axis:    yes   16.000000    0.000000    0.000000    80     0.2000
  2. axis:    yes    0.000000   16.000000    0.000000    80     0.2000
  3. axis:    yes    0.000000    0.000000   10.000000    48     0.2083

Effective grid spacing dv^(1/3) = 0.2027

                     log10-error:    total        iterations:
           time      wfs    density  energy       fermi  poisson
iter:   1  11:43:53          +inf  -169.727108    3      5      
iter:   2  11:43:54         -1.75  -169.604317    2      2      
iter:   3  11:43:54         -1.90  -169.493217    3      2      
iter:   4  11:43:55         -2.26  -169.489471    2      2      
iter:   5  11:43:55         -2.40  -169.487479    2      2      
iter:   6  11:43:56         -2.49  -169.482907    2      2      
iter:   7  11:43:56         -2.70  -169.480140    2      2      
iter:   8  11:43:57         -3.07  -169.480520    2      1      
iter:   9  11:43:57         -3.16  -169.479371    2      1      
iter:  10  11:43:58         -3.34  -169.481127    2      1      
iter:  11  11:43:58         -3.53  -169.484221    2      1      
iter:  12  11:43:59         -3.65  -169.485040    2      1      
iter:  13  11:43:59         -3.71  -169.485647    2      1      
iter:  14  11:43:59         -3.96  -169.484644    2      1      
iter:  15  11:44:00         -4.11  -169.484493    2      1      

Converged after 15 iterations.

Dipole moment: (0.640312, 0.246799, -0.010887) |e|*Ang

Energy contributions relative to reference atoms: (reference = -24663.074771)

Kinetic:        +23.482917
Potential:      -50.826911
External:        +0.000000
XC:            -144.868628
Entropy (-ST):   -0.222699
Local:           +2.839479
--------------------------
Free energy:   -169.595842
Extrapolated:  -169.484493

Fermi level: -4.73097

 Band  Eigenvalues  Occupancy
    0    -21.99832    2.00000
    1    -21.38831    2.00000
    2    -20.75368    2.00000
    3    -20.58942    2.00000
    4    -20.41014    2.00000
    5    -19.93768    2.00000
    6    -19.18268    2.00000
    7    -18.59977    2.00000
    8    -18.35942    2.00000
    9    -18.05208    2.00000
   10    -17.71777    2.00000
   11    -17.11453    2.00000
   12    -16.38272    2.00000
   13    -15.72892    2.00000
   14    -15.66016    2.00000
   15    -14.41018    2.00000
   16    -13.81788    2.00000
   17    -13.66972    2.00000
   18    -13.33887    2.00000
   19    -12.66917    2.00000
   20    -11.94331    2.00000
   21    -11.56109    2.00000
   22    -10.77367    2.00000
   23    -10.57529    2.00000
   24    -10.14056    2.00000
   25     -9.98132    2.00000
   26     -9.95640    2.00000
   27     -9.40967    2.00000
   28     -9.19428    2.00000
   29     -8.95380    2.00000
   30     -8.84013    2.00000
   31     -8.66395    2.00000
   32     -8.55855    2.00000
   33     -8.42148    2.00000
   34     -7.98961    2.00000
   35     -7.53397    2.00000
   36     -7.34254    2.00000
   37     -7.20093    2.00000
   38     -7.01560    2.00000
   39     -6.80937    2.00000
   40     -6.57339    2.00000
   41     -6.39440    2.00000
   42     -6.30273    2.00000
   43     -6.16848    2.00000
   44     -5.79116    1.99995
   45     -5.38752    1.99719
   46     -5.09582    1.94926
   47     -4.90908    1.71166
   48     -4.53094    0.23834
   49     -4.43932    0.10269
   50     -3.95151    0.00082
   51     -3.72634    0.00009
   52     -3.30862    0.00000
   53     -3.14337    0.00000
   54     -2.93097    0.00000
   55     -2.35386    0.00000
   56     -2.23352    0.00000
   57     -2.10971    0.00000
   58     -1.84985    0.00000
   59     -1.52642    0.00000
   60     -1.24936    0.00000
   61     -0.91148    0.00000
   62     -0.79519    0.00000
   63     -0.51149    0.00000
   64      0.56371    0.00000
   65      0.81748    0.00000
   66      1.13478    0.00000
   67      1.63079    0.00000
   68      1.81324    0.00000
   69      2.10535    0.00000
   70      2.79384    0.00000
   71      3.23368    0.00000
   72      3.72722    0.00000
   73      4.00413    0.00000
   74      4.16067    0.00000
   75      5.21318    0.00000
   76      5.43267    0.00000
   77      5.70816    0.00000
   78      5.87304    0.00000
   79      6.36762    0.00000
   80      6.42646    0.00000
   81      6.91829    0.00000
   82      7.37235    0.00000
   83      7.49364    0.00000
   84      7.78489    0.00000
   85      8.27292    0.00000
   86      8.37004    0.00000
   87      8.52648    0.00000
   88      8.73523    0.00000
   89      8.86190    0.00000
   90      8.93184    0.00000
   91      9.11690    0.00000
   92      9.21252    0.00000
   93      9.33573    0.00000
   94      9.53591    0.00000
   95      9.65126    0.00000
   96      9.74718    0.00000
   97     10.06271    0.00000


Forces in eV/Ang:
  0 C    -0.65643   -1.12941    1.05099
  1 C    -0.28878   -1.62190    2.02217
  2 C    -0.05479   -0.51905    0.45204
  3 C     2.80902    4.26654   -0.96262
  4 C    -0.60227    1.47704   -3.34985
  5 C    -0.30615    0.95877    1.39549
  6 C     0.75717   -0.09844    1.11327
  7 C     0.41871    3.83998   -1.31420
  8 C    -3.11439    1.45100   -0.28751
  9 C     1.06284   -3.42770    0.31547
 10 C     1.20551   -0.87593   -1.95506
 11 C     3.54675   -1.70394    2.39627
 12 C     0.51792   -0.62045   -0.34230
 13 C    -2.70405   -2.32545   -2.31917
 14 C    -0.09538   -1.76970   -0.36188
 15 C     0.66797    3.08482    2.76244
 16 C    -2.78111    3.95085   -3.67989
 17 C    -0.17051   -0.10046   -0.15207
 18 C     0.58386   -0.20606   -1.12808
 19 C    -1.21236   -0.95329   -0.33794
 20 C    -0.67686   -1.78900    0.15526
 21 C    -0.49817   -2.91527    2.38305
 22 C     1.69624    0.93216    1.86581
 23 C     0.01381    0.09341    0.29029

System changes: positions 

Initializing position-dependent things.

Density initialized from wave functions
           .--------------------------------------.  
          /|                                      |  
         / |                                      |  
        /  |                                      |  
       /   |                                      |  
[...]

Kinetic:       +106.589863
Potential:     -115.588245
External:        +0.000000
XC:            -174.962956
Entropy (-ST):   -0.266208
Local:           +3.013406
--------------------------
Free energy:   -181.214141
Extrapolated:  -181.081036

Fermi level: -4.60670

 Band  Eigenvalues  Occupancy
    0    -23.10873    2.00000
    1    -22.65786    2.00000
    2    -22.54811    2.00000
    3    -21.17388    2.00000
    4    -20.70662    2.00000
    5    -20.53520    2.00000
    6    -20.00398    2.00000
    7    -19.56867    2.00000
    8    -18.85736    2.00000
    9    -18.73540    2.00000
   10    -17.90656    2.00000
   11    -17.41249    2.00000
   12    -16.76100    2.00000
   13    -16.40932    2.00000
   14    -15.62190    2.00000
   15    -14.93422    2.00000
   16    -14.38855    2.00000
   17    -14.04386    2.00000
   18    -13.84691    2.00000
   19    -13.35163    2.00000
   20    -12.86928    2.00000
   21    -12.27559    2.00000
   22    -11.03939    2.00000
   23    -10.74245    2.00000
   24    -10.63286    2.00000
   25    -10.55402    2.00000
   26    -10.06473    2.00000
   27    -10.01645    2.00000
   28     -9.87526    2.00000
   29     -9.60572    2.00000
   30     -9.32578    2.00000
   31     -9.31129    2.00000
   32     -9.24472    2.00000
   33     -8.74076    2.00000
   34     -8.71618    2.00000
   35     -8.47853    2.00000
   36     -8.11680    2.00000
   37     -7.96951    2.00000
   38     -7.55481    2.00000
   39     -6.62457    2.00000
   40     -6.44485    2.00000
   41     -6.35779    2.00000
   42     -6.18885    2.00000
   43     -5.94868    2.00000
   44     -5.69984    1.99996
   45     -4.93874    1.93024
   46     -4.87714    1.87457
   47     -4.79052    1.72546
   48     -4.48861    0.46977
   49     -3.23357    0.00000
   50     -3.14569    0.00000
   51     -2.81505    0.00000
   52     -2.39322    0.00000
   53     -2.05412    0.00000
   54     -1.76538    0.00000
   55     -1.24198    0.00000
   56     -1.03043    0.00000
   57     -0.94756    0.00000
   58     -0.55156    0.00000
   59     -0.08952    0.00000
   60      0.52087    0.00000
   61      1.01998    0.00000
   62      1.69746    0.00000
   63      2.16763    0.00000
   64      2.51878    0.00000
   65      2.79809    0.00000
   66      3.11307    0.00000
   67      3.34314    0.00000
   68      3.85591    0.00000
   69      3.94647    0.00000
   70      4.52651    0.00000
   71      4.82316    0.00000
   72      4.96274    0.00000
   73      5.40508    0.00000
   74      5.77549    0.00000
   75      6.36564    0.00000
   76      6.53542    0.00000
   77      6.95486    0.00000
   78      7.05579    0.00000
   79      7.51784    0.00000
   80      8.17397    0.00000
   81      8.30803    0.00000
   82      8.50238    0.00000
   83      8.60413    0.00000
   84      8.64861    0.00000
   85      8.70887    0.00000
   86      8.90171    0.00000
   87      9.03787    0.00000
   88      9.08442    0.00000
   89      9.19385    0.00000
   90      9.31278    0.00000
   91      9.42767    0.00000
   92      9.49533    0.00000
   93      9.58691    0.00000
   94      9.84132    0.00000
   95     10.02144    0.00000
   96     10.06296    0.00000
   97     10.21984    0.00000


Forces in eV/Ang:
  0 C    -0.04756    0.09705   -0.02508
  1 C     0.02056   -0.06092    0.02981
  2 C    -0.00337    0.01053    0.02996
  3 C     0.01056    0.00571   -0.02538
  4 C    -0.00455    0.00797    0.04467
  5 C     0.05503    0.06392    0.05473
  6 C     0.04168   -0.03231   -0.00897
  7 C     0.02898   -0.04171   -0.02681
  8 C    -0.05080   -0.00189   -0.04814
  9 C    -0.03427    0.02915   -0.04390
 10 C     0.07104   -0.03954   -0.00295
 11 C     0.05110   -0.01789   -0.02136
 12 C     0.00228   -0.09214    0.04075
 13 C     0.00228   -0.00905   -0.02784
 14 C    -0.07808    0.07162   -0.01846
 15 C    -0.02995    0.03807   -0.02786
 16 C     0.00268    0.02149    0.02196
 17 C     0.03688    0.02911    0.01627
 18 C     0.02160    0.00039    0.03546
 19 C     0.04539    0.05211    0.00386
 20 C    -0.03642    0.00245    0.02084
 21 C    -0.03900    0.01075    0.00567
 22 C    -0.02805   -0.05989    0.05030
 23 C    -0.01206   -0.00910   -0.00637

System changes: positions 

Initializing position-dependent things.

Density initialized from wave functions
           .--------------------------------------.  
          /|                                      |  
         / |                                      |  
        /  |                                      |  
       /   |                                      |  
      /    |                                      |  
     /     |                                      |  
    /      |                                      |  
   /       |                                      |  
  /        |     C  C  C C                        |  
 *         |     C       C                        |  
 |         |      C   C  C C  C                   |  
 |         .-----C------C-------C-----------------.  
 |        /      C  C  C        C C              /   
 |       /               C   C                  /    
 |      /                 C                    /     
 |     /                                      /      
 |    /                                      /       
 |   /                                      /        
 |  /                                      /         
 | /                                      /          
 |/                                      /           
 *--------------------------------------*            

Positions:
   0 C      6.547124    4.565116    5.115288
   1 C      7.752577    5.307878    4.840173
   2 C     11.314936    4.961712    4.509111
   3 C      5.095880    5.076515    5.366217
   4 C      8.847511    4.393914    4.650849
   5 C      9.283019    3.050479    4.524066
   6 C     10.248713    4.135258    4.509882
   7 C      5.576226    3.696563    5.446074
   8 C     11.901184    6.110064    4.642409
   9 C      4.749314    6.297381    5.249918
  10 C      7.717783    6.728714    4.825101
  11 C      3.599034   11.259456    5.042845
  12 C      6.586767    7.739845    4.841488
  13 C     11.075756    7.183880    4.737896
  14 C      5.182766    7.643025    5.066411
  15 C     10.043435    7.917819    4.772706
  16 C      3.843788    9.924910    5.190572
  17 C      7.349719   10.174263    4.512657
  18 C      7.529795    8.823032    4.657317
  19 C      5.880237   12.309626    4.515972
  20 C      4.677604   12.010459    4.972207
  21 C      8.663057    7.842330    4.724200
  22 C      4.361924    8.777472    5.117402
  23 C      6.793826   11.318603    4.566220

Unit cell:
           periodic     x           y           z      points  spacing
  1. axis:    yes   16.000000    0.000000    0.000000    80     0.2000
  2. axis:    yes    0.000000   16.000000    0.000000    80     0.2000
  3. axis:    yes    0.000000    0.000000   10.000000    48     0.2083

Effective grid spacing dv^(1/3) = 0.2027

                     log10-error:    total        iterations:
           time      wfs    density  energy       fermi  poisson
iter:   1  11:54:30          +inf  -181.079461    3      5      
iter:   2  11:54:31         -3.02  -181.079641    2      1      
iter:   3  11:54:31         -3.16  -181.080123    2      1      
iter:   4  11:54:31         -3.33  -181.079523    2      1      
iter:   5  11:54:32         -3.47  -181.079966    2      1      
iter:   6  11:54:32         -3.64  -181.080209    2      1      
iter:   7  11:54:33         -3.88  -181.079866    2      1      
iter:   8  11:54:33         -3.88  -181.080126    2      1      
iter:   9  11:54:34         -4.27  -181.080336    2      1      

Converged after 9 iterations.

Dipole moment: (-0.031681, 0.666342, 0.054608) |e|*Ang

Energy contributions relative to reference atoms: (reference = -24663.074771)

Kinetic:       +106.920338
Potential:     -115.844547
External:        +0.000000
XC:            -175.030539
Entropy (-ST):   -0.270756
Local:           +3.009789
--------------------------
Free energy:   -181.215714
Extrapolated:  -181.080336

Fermi level: -4.60936

 Band  Eigenvalues  Occupancy
    0    -23.11311    2.00000
    1    -22.66530    2.00000
    2    -22.55104    2.00000
    3    -21.17325    2.00000
    4    -20.71082    2.00000
    5    -20.54089    2.00000
    6    -20.00640    2.00000
    7    -19.57350    2.00000
    8    -18.85623    2.00000
    9    -18.74041    2.00000
   10    -17.90867    2.00000
   11    -17.41321    2.00000
   12    -16.76830    2.00000
   13    -16.41227    2.00000
   14    -15.62156    2.00000
   15    -14.93551    2.00000
   16    -14.39654    2.00000
   17    -14.04678    2.00000
   18    -13.84594    2.00000
   19    -13.35210    2.00000
   20    -12.87673    2.00000
   21    -12.27196    2.00000
   22    -11.04254    2.00000
   23    -10.74342    2.00000
   24    -10.63759    2.00000
   25    -10.54602    2.00000
   26    -10.07235    2.00000
   27    -10.01974    2.00000
   28     -9.87963    2.00000
   29     -9.60810    2.00000
   30     -9.32697    2.00000
   31     -9.31033    2.00000
   32     -9.24438    2.00000
   33     -8.74776    2.00000
   34     -8.72056    2.00000
   35     -8.48544    2.00000
   36     -8.12399    2.00000
   37     -7.96899    2.00000
   38     -7.55210    2.00000
   39     -6.62235    2.00000
   40     -6.44722    2.00000
   41     -6.35862    2.00000
   42     -6.18674    2.00000
   43     -5.95023    2.00000
   44     -5.70357    1.99996
   45     -4.93865    1.92837
   46     -4.87555    1.86948
   47     -4.79072    1.71959
   48     -4.49480    0.48260
   49     -3.23977    0.00000
   50     -3.14348    0.00000
   51     -2.81449    0.00000
   52     -2.39020    0.00000
   53     -2.03777    0.00000
   54     -1.76398    0.00000
   55     -1.23690    0.00000
   56     -1.03101    0.00000
   57     -0.95436    0.00000
   58     -0.54744    0.00000
   59     -0.09275    0.00000
   60      0.52292    0.00000
   61      1.02122    0.00000
   62      1.70548    0.00000
   63      2.17050    0.00000
   64      2.52514    0.00000
   65      2.80313    0.00000
   66      3.10937    0.00000
   67      3.33656    0.00000
   68      3.85319    0.00000
   69      3.95617    0.00000
   70      4.53418    0.00000
   71      4.83805    0.00000
   72      4.96677    0.00000
   73      5.40025    0.00000
   74      5.77948    0.00000
   75      6.36481    0.00000
   76      6.53160    0.00000
   77      6.94556    0.00000
   78      7.05128    0.00000
   79      7.51190    0.00000
   80      8.17599    0.00000
   81      8.30496    0.00000
   82      8.49482    0.00000
   83      8.59521    0.00000
   84      8.64172    0.00000
   85      8.70385    0.00000
   86      8.90345    0.00000
   87      9.03586    0.00000
   88      9.08056    0.00000
   89      9.19088    0.00000
   90      9.31328    0.00000
   91      9.42647    0.00000
   92      9.49435    0.00000
   93      9.58817    0.00000
   94      9.84482    0.00000
   95     10.01949    0.00000
   96     10.06253    0.00000
   97     10.22099    0.00000


Forces in eV/Ang:
  0 C    -0.05890    0.08938   -0.03210
  1 C     0.01773   -0.01995    0.03745
  2 C    -0.00540    0.02699    0.03617
  3 C     0.01552   -0.00711   -0.02304
  4 C     0.01057    0.00336    0.04397
  5 C     0.07523    0.03436    0.04149
  6 C     0.02597   -0.00306   -0.00459
  7 C     0.03476   -0.02295   -0.02575
  8 C    -0.03548   -0.04871   -0.05090
  9 C    -0.04291    0.02563   -0.03131
 10 C     0.06524   -0.00720   -0.00081
 11 C     0.04120   -0.02147   -0.04068
 12 C    -0.02384   -0.03163    0.02501
 13 C     0.01821   -0.00301   -0.02270
 14 C    -0.08254    0.02050   -0.02398
 15 C    -0.05999    0.05263   -0.01714
 16 C     0.01400    0.01362    0.04931
 17 C     0.03708    0.00870    0.01927
 18 C     0.01884   -0.00858    0.04843
 19 C     0.02776    0.07301    0.01656
 20 C    -0.03004    0.03256    0.01407
 21 C    -0.00777   -0.01566   -0.02261
 22 C    -0.05218   -0.02859    0.02824
 23 C     0.00244   -0.03915   -0.01820

System changes: positions 

Initializing position-dependent things.

Density initialized from wave functions
           .--------------------------------------.  
          /|                                      |  
         / |                                      |  
        /  |                                      |  
       /   |                                      |  
      /    |                                      |  
     /     |                                      |  
    /      |                                      |  
   /       |                                      |  
  /        |     C  C  C C                        |  
 *         |     C       C                        |  
 |         |      C   C  C C  C                   |  
 |         .-----C------C-------C-----------------.  
 |        /      C  C  C        C C              /   
 |       /               C   C                  /    
 |      /                 C                    /     
 |     /                                      /      
 |    /                                      /       
 |   /                                      /        
 |  /                                      /         
 | /                                      /          
 |/                                      /           
 *--------------------------------------*            

Positions:
   0 C      6.544081    4.567020    5.115644
   1 C      7.752877    5.306644    4.843746
   2 C     11.313838    4.965917    4.512785
   3 C      5.094103    5.076044    5.363549
   4 C      8.848231    4.393991    4.655537
   5 C      9.285691    3.052330    4.529872
   6 C     10.250637    4.136480    4.515967
   7 C      5.574477    3.695361    5.443501
   8 C     11.900053    6.115323    4.639704
   9 C      4.747999    6.297154    5.244612
  10 C      7.721194    6.727762    4.828822
  11 C      3.598632   11.256729    5.046275
  12 C      6.588742    7.737004    4.848027
  13 C     11.075110    7.189323    4.734606
  14 C      5.183298    7.642892    5.069504
  15 C     10.043559    7.924917    4.766666
  16 C      3.844029    9.922607    5.192201
  17 C      7.348074   10.175934    4.515173
  18 C      7.528740    8.824107    4.661166
  19 C      5.878875   12.313696    4.514629
  20 C      4.677815   12.005683    4.969979
  21 C      8.663307    7.845201    4.725460
  22 C      4.360941    8.775027    5.121766
  23 C      6.791298   11.320197    4.566541

Unit cell:
           periodic     x           y           z      points  spacing
  1. axis:    yes   16.000000    0.000000    0.000000    80     0.2000
  2. axis:    yes    0.000000   16.000000    0.000000    80     0.2000
  3. axis:    yes    0.000000    0.000000   10.000000    48     0.2083

Effective grid spacing dv^(1/3) = 0.2027

                     log10-error:    total        iterations:
           time      wfs    density  energy       fermi  poisson
iter:   1  11:54:35          +inf  -181.077011    3      5      
iter:   2  11:54:36         -2.86  -181.078163    3      1      
iter:   3  11:54:36         -3.06  -181.079941    3      1      
iter:   4  11:54:37         -3.28  -181.079940    2      1      
iter:   5  11:54:37         -3.41  -181.080825    2      1      
iter:   6  11:54:38         -3.53  -181.080488    2      1      
iter:   7  11:54:38         -3.75  -181.079369    2      1      
iter:   8  11:54:39         -3.67  -181.079843    2      1      
iter:   9  11:54:39         -4.20  -181.079815    2      1      

Converged after 9 iterations.

Dipole moment: (-0.028772, 0.650999, 0.056514) |e|*Ang

Energy contributions relative to reference atoms: (reference = -24663.074771)

Kinetic:       +106.975199
Potential:     -115.891003
External:        +0.000000
XC:            -175.029603
Entropy (-ST):   -0.275253
Local:           +3.003219
--------------------------
Free energy:   -181.217442
Extrapolated:  -181.079815

Fermi level: -4.61302

 Band  Eigenvalues  Occupancy
    0    -23.12102    2.00000
    1    -22.67668    2.00000
    2    -22.55393    2.00000
    3    -21.17303    2.00000
    4    -20.71528    2.00000
    5    -20.54540    2.00000
    6    -20.00658    2.00000
    7    -19.57706    2.00000
    8    -18.85583    2.00000
    9    -18.74344    2.00000
   10    -17.91218    2.00000
   11    -17.41273    2.00000
   12    -16.77574    2.00000
   13    -16.41112    2.00000
   14    -15.62355    2.00000
   15    -14.93026    2.00000
   16    -14.40777    2.00000
   17    -14.04839    2.00000
   18    -13.84422    2.00000
   19    -13.34548    2.00000
   20    -12.88054    2.00000
   21    -12.26044    2.00000
   22    -11.04547    2.00000
   23    -10.74597    2.00000
   24    -10.64299    2.00000
   25    -10.53615    2.00000
   26    -10.08270    2.00000
   27    -10.01909    2.00000
   28     -9.88311    2.00000
   29     -9.61602    2.00000
   30     -9.33469    2.00000
   31     -9.30775    2.00000
   32     -9.24351    2.00000
   33     -8.75686    2.00000
   34     -8.72362    2.00000
   35     -8.49171    2.00000
   36     -8.12996    2.00000
   37     -7.96954    2.00000
   38     -7.54658    2.00000
   39     -6.62091    2.00000
   40     -6.44976    2.00000
   41     -6.35961    2.00000
   42     -6.18515    2.00000
   43     -5.95611    2.00000
   44     -5.70661    1.99996
   45     -4.93771    1.92513
   46     -4.87677    1.86647
   47     -4.79166    1.71298
   48     -4.50194    0.49546
   49     -3.24584    0.00000
   50     -3.14948    0.00000
   51     -2.81445    0.00000
   52     -2.38897    0.00000
   53     -2.01754    0.00000
   54     -1.76483    0.00000
   55     -1.23263    0.00000
   56     -1.03512    0.00000
   57     -0.96459    0.00000
   58     -0.53569    0.00000
   59     -0.09396    0.00000
   60      0.52069    0.00000
   61      1.02042    0.00000
   62      1.70908    0.00000
   63      2.16783    0.00000
   64      2.52830    0.00000
   65      2.80251    0.00000
   66      3.10844    0.00000
   67      3.33431    0.00000
   68      3.84710    0.00000
   69      3.95979    0.00000
   70      4.53139    0.00000
   71      4.84336    0.00000
   72      4.96444    0.00000
   73      5.39782    0.00000
   74      5.78003    0.00000
   75      6.36788    0.00000
   76      6.51504    0.00000
   77      6.92971    0.00000
   78      7.04448    0.00000
   79      7.49689    0.00000
   80      8.16213    0.00000
   81      8.29836    0.00000
   82      8.48423    0.00000
   83      8.58314    0.00000
   84      8.63337    0.00000
   85      8.69803    0.00000
   86      8.90301    0.00000
   87      9.03299    0.00000
   88      9.07517    0.00000
   89      9.18690    0.00000
   90      9.31225    0.00000
   91      9.42339    0.00000
   92      9.48624    0.00000
   93      9.58518    0.00000
   94      9.84611    0.00000
   95     10.01649    0.00000
   96     10.05962    0.00000
   97     10.21960    0.00000


Forces in eV/Ang:
  0 C    -0.01595    0.06282   -0.03042
  1 C     0.02221    0.01874    0.03535
  2 C     0.00958    0.04300    0.03765
  3 C     0.00561   -0.00268   -0.02613
  4 C     0.01118   -0.00289    0.04263
  5 C     0.06527   -0.01674    0.03036
  6 C     0.00574    0.03083   -0.02285
  7 C     0.03179   -0.02027   -0.02076
  8 C    -0.03913   -0.05932   -0.05524
  9 C    -0.04084   -0.00363   -0.00247
 10 C     0.02589    0.03313    0.01510
 11 C     0.02346   -0.00539   -0.03933
 12 C    -0.03964    0.04596    0.00593
 13 C     0.01551    0.01148   -0.03122
 14 C    -0.05792   -0.02744   -0.02155
 15 C    -0.03826    0.03749    0.00306
 16 C    -0.00163    0.03484    0.05432
 17 C     0.03172   -0.01867    0.02638
 18 C     0.00957   -0.03611    0.05174
 19 C     0.05449    0.05433    0.01602
 20 C    -0.04467    0.05822    0.01134
 21 C    -0.00441   -0.02466   -0.03679
 22 C    -0.03976   -0.03352    0.00663
 23 C     0.00313   -0.04278   -0.03018

