
  ___ ___ ___ _ _ _  
 |   |   |_  | | | | 
 | | | | | . | | | | 
 |__ |  _|___|_____|  1.3.0b1
 |___|_|             

User:   esb@s65n32.grendel.cscaa.dk
Date:   Thu Nov  9 12:24:54 2017
Arch:   x86_64
Pid:    25205
Python: 2.7.13
gpaw:   /home/esb/DFT/gpaw_git/gpaw
_gpaw:  /home/esb/DFT/gpaw_git/build/bin.linux-x86_64-2.7/gpaw-python
ase:    /home/esb/DFT/ase_git/ase (version 3.15.0b1)
numpy:  /comm/swstack/core/python/2.7.13/lib/python2.7/site-packages/numpy (version 1.13.3)
scipy:  /comm/swstack/core/python/2.7.13/lib/python2.7/site-packages/scipy (version 0.19.1)
units:  Angstrom and eV
cores:  16
Extra parameters: {'blacs': True}

Input parameters:
  basis: dzp
  gpts: [80 80 48]
  kpts: [1 1 1]
  maxiter: 99
  mixer: {backend: pulay,
          beta: 0.05,
          method: separate,
          nmaxold: 5,
          weight: 75}
  mode: lcao
  nbands: -50
  occupations: {name: fermi-dirac,
                width: 0.1}
  poissonsolver: {eps: 1e-07,
                  name: fd,
                  nn: 3,
                  relax: GS}
  xc: PBE

System changes: positions, numbers, cell, pbc, initial_charges, initial_magmoms 

Initialize ...

C-setup:
  name: Carbon
  id: 4aa54d4b901d75f77cc0ea3eec22967b
  Z: 6
  valence: 4
  core: 2
  charge: 0.0
  file: /home/esb/DFT/gpaw-setups-0.8.7929/C.PBE.gz
  cutoffs: 0.64(comp), 1.14(filt), 1.14(core), lmax=2
  valence states:
                energy  radius
    2s(2.00)   -13.751   0.635
    2p(2.00)    -5.284   0.635
    *s          13.461   0.635
    *p          21.927   0.635
    *d           0.000   0.635

  LCAO basis set for C:
    Name: dzp
    File: /home/esb/DFT/gpaw-setups-0.8.7929/C.dzp.basis.gz
    Number of radial functions: 5
    Number of spherical harmonics: 13
      l=0, rc=5.5469 Bohr: 2s-sz confined orbital
      l=1, rc=6.6719 Bohr: 2p-sz confined orbital
      l=0, rc=3.0312 Bohr: 2s-dz split-valence wave
      l=1, rc=3.7500 Bohr: 2p-dz split-valence wave
      l=2, rc=6.6719 Bohr: d-type Gaussian polarization

Reference energy: -24663.074771

Spin-paired calculation

Occupation numbers:
  Fermi-Dirac: width=0.1000 eV

Convergence criteria:
  Maximum total energy change: 0.0005 eV / electron
  Maximum integral of absolute density change: 0.0001 electrons
  Maximum integral of absolute eigenstate change: 4e-08 eV^2
  Maximum number of iterations: 99

Symmetries present (total): 1

  ( 1  0  0)
  ( 0  1  0)
  ( 0  0  1)

1 k-point (Gamma)
1 k-point in the irreducible part of the Brillouin zone
       k-points in crystal coordinates                weights
   0:     0.00000000    0.00000000    0.00000000          1/1

Wave functions: LCAO
  Diagonalizer: Serial LAPACK
  Atomic Correction: dense with blas
  Datatype: float
  Eigensolver: None 

LCAO using direct dense diagonalizer 

Densities:
  Coarse grid: 80*80*48 grid
  Fine grid: 160*160*96 grid
  Total Charge: 0.000000 

Density mixing:
  Method: separate
  Backend: pulay
  Linear mixing parameter: 0.05
  Mixing with 5 old densities
  Damping of long wave oscillations: 75 

Hamiltonian:
  XC and Coulomb potentials evaluated on a 160*160*96 grid
  Using the PBE Exchange-Correlation functional
  Interpolation: tri-quintic (5. degree polynomial)
  Poisson solver: Gauss-Seidel solver with 6 multi-grid levels
    Coarsest grid: 5 x 5 x 3 points
    Stencil: 6*3+1=19 point O(h^6) finite-difference Laplacian
    Max iterations: 1000
    Tolerance: 1.000000e-07 

Memory estimate:
  Process memory now: 77.56 MiB
  Calculator: 15.59 MiB
    Density: 6.13 MiB
      Arrays: 3.81 MiB
      Localized functions: 0.86 MiB
      Mixer: 1.46 MiB
    Hamiltonian: 5.40 MiB
      Arrays: 2.49 MiB
      XC: 0.00 MiB
      Poisson: 2.85 MiB
      vbar: 0.07 MiB
    Wavefunctions: 4.05 MiB
      C [qnM]: 0.23 MiB
      S, T [2 x qmm]: 1.49 MiB
      P [aqMi]: 0.01 MiB
      TCI: 0.00 MiB
      BasisFunctions: 2.33 MiB
      Eigensolver: 0.00 MiB

Total number of cores used: 16
Domain decomposition: 2 x 4 x 2

Number of atoms: 24
Number of atomic orbitals: 312
Number of bands in calculation: 98
Bands to converge: occupied states only
Number of valence electrons: 96

... initialized

Initializing position-dependent things.

Density initialized from atomic densities
           .--------------------------------------.  
          /|                                      |  
         / |                                      |  
        /  |                                      |  
       /   |                                      |  
      /    |                                      |  
     /     |                                      |  
    /      |                                      |  
   /       |      C  C  C   C C                   |  
  /        |     C                                |  
 *         |  C     C   C C   C  C                |  
 |         | C                                    |  
 |         .---C---C-C---C--C----C----------------.  
 |        /    C     C    C                      /   
 |       /       C     C                        /    
 |      /                                      /     
 |     /                                      /      
 |    /                                      /       
 |   /                                      /        
 |  /                                      /         
 | /                                      /          
 |/                                      /           
 *--------------------------------------*            

Positions:
   0 C      9.367469    4.132462    5.116581
   1 C      9.519101    5.543678    5.209460
   2 C      5.713535    3.344428    5.326439
   3 C      3.478645    7.461403    5.782887
   4 C      5.816388    6.119330    5.454633
   5 C      8.349364    3.398632    5.171257
   6 C      4.483426    5.475644    5.523497
   7 C      8.198879    6.195252    5.294327
   8 C      7.023028    3.875364    5.245263
   9 C      4.691322    4.070902    5.432875
  10 C      3.243281    6.174632    5.664165
  11 C      7.020796    5.340016    5.298345
  12 C      9.481827    9.403401    6.522056
  13 C      8.410012    9.993560    6.792643
  14 C      5.824545    9.712832    6.983621
  15 C      7.153387    9.355574    6.731828
  16 C      4.832140    8.913923    6.970784
  17 C      7.313184    7.915624    6.285417
  18 C      4.757819    7.557674    6.648607
  19 C      6.126032    7.167583    6.259298
  20 C      8.579121    7.253736    5.900614
  21 C     11.258656    6.607516    5.106323
  22 C     11.143262    7.795300    5.627136
  23 C      9.826746    8.133424    6.012067

Unit cell:
           periodic     x           y           z      points  spacing
  1. axis:    yes   16.000000    0.000000    0.000000    80     0.2000
  2. axis:    yes    0.000000   16.000000    0.000000    80     0.2000
  3. axis:    yes    0.000000    0.000000   10.000000    48     0.2083

Effective grid spacing dv^(1/3) = 0.2027

                     log10-error:    total        iterations:
           time      wfs    density  energy       fermi  poisson
iter:   1  12:24:56          +inf  -182.438546    2      6      
iter:   2  12:24:57         -0.91  -181.553747    3      3      
iter:   3  12:24:58         -0.94  -178.249447    34     4      
iter:   4  12:24:58         -1.23  -177.840308    33     3      
iter:   5  12:24:59         -1.45  -177.868003    4      3      
iter:   6  12:25:00         -1.56  -177.794393    3      3      
iter:   7  12:25:00         -1.73  -177.772900    3      3      
iter:   8  12:25:01         -1.86  -177.727935    3      3      
iter:   9  12:25:02         -2.14  -177.721349    3      2      
iter:  10  12:25:03         -2.25  -177.714506    3      2      
iter:  11  12:25:03         -2.61  -177.708909    2      2      
iter:  12  12:25:04         -2.71  -177.708960    2      2      
iter:  13  12:25:05         -2.86  -177.720356    2      1      
iter:  14  12:25:05         -3.00  -177.715460    2      1      
iter:  15  12:25:06         -3.11  -177.709087    2      1      
iter:  16  12:25:07         -3.22  -177.713148    2      1      
iter:  17  12:25:07         -3.31  -177.718243    2      1      
iter:  18  12:25:08         -3.60  -177.711070    2      1      
iter:  19  12:25:09         -3.70  -177.709048    2      1      
iter:  20  12:25:09         -3.88  -177.711253    2      1      
iter:  21  12:25:10         -4.03  -177.708526    2      1      

Converged after 21 iterations.

Dipole moment: (-0.292845, -0.242940, 0.017974) |e|*Ang

Energy contributions relative to reference atoms: (reference = -24663.074771)

Kinetic:       +132.632725
Potential:     -133.199739
External:        +0.000000
XC:            -180.120138
Entropy (-ST):   -0.161476
Local:           +3.059364
--------------------------
Free energy:   -177.789264
Extrapolated:  -177.708526

Fermi level: -4.51366

 Band  Eigenvalues  Occupancy
    0    -23.47814    2.00000
    1    -22.28852    2.00000
    2    -21.88183    2.00000
    3    -20.77651    2.00000
    4    -20.64974    2.00000
    5    -20.38217    2.00000
    6    -19.39921    2.00000
    7    -19.32098    2.00000
    8    -18.39459    2.00000
    9    -18.15953    2.00000
   10    -17.86506    2.00000
   11    -17.05586    2.00000
   12    -15.99883    2.00000
   13    -15.74173    2.00000
   14    -15.30949    2.00000
   15    -15.09543    2.00000
   16    -14.59366    2.00000
   17    -13.02129    2.00000
   18    -12.80431    2.00000
   19    -12.60233    2.00000
   20    -12.41756    2.00000
   21    -12.11384    2.00000
   22    -11.95157    2.00000
   23    -11.21480    2.00000
   24    -10.98609    2.00000
   25    -10.85903    2.00000
   26    -10.81281    2.00000
   27    -10.46271    2.00000
   28     -9.81844    2.00000
   29     -9.62381    2.00000
   30     -9.49863    2.00000
   31     -8.93500    2.00000
   32     -8.50348    2.00000
   33     -8.34331    2.00000
   34     -8.19722    2.00000
   35     -7.92340    2.00000
   36     -7.15840    2.00000
   37     -6.86099    2.00000
   38     -6.81519    2.00000
   39     -6.73478    2.00000
   40     -6.43620    2.00000
   41     -6.33356    2.00000
   42     -6.30622    2.00000
   43     -5.90860    2.00000
   44     -5.78610    1.99999
   45     -5.55328    1.99994
   46     -5.06564    1.99202
   47     -4.70821    1.74991
   48     -4.31886    0.24953
   49     -3.96928    0.00861
   50     -3.18181    0.00000
   51     -2.91665    0.00000
   52     -2.88879    0.00000
   53     -2.78822    0.00000
   54     -2.48332    0.00000
   55     -2.01035    0.00000
   56     -1.87274    0.00000
   57     -1.68676    0.00000
   58     -0.94341    0.00000
   59      0.19837    0.00000
   60      0.32975    0.00000
   61      0.86889    0.00000
   62      1.16345    0.00000
   63      1.78842    0.00000
   64      2.68701    0.00000
   65      3.24873    0.00000
   66      3.65837    0.00000
   67      4.01921    0.00000
   68      4.54377    0.00000
   69      5.26162    0.00000
   70      5.78835    0.00000
   71      5.95077    0.00000
   72      6.22429    0.00000
   73      6.61654    0.00000
   74      6.79850    0.00000
   75      6.99586    0.00000
   76      7.45011    0.00000
   77      7.71386    0.00000
   78      7.84831    0.00000
   79      8.28884    0.00000
   80      8.40250    0.00000
   81      8.69303    0.00000
   82      8.83366    0.00000
   83      8.90334    0.00000
   84      9.06603    0.00000
   85      9.13257    0.00000
   86      9.28636    0.00000
   87      9.37642    0.00000
   88      9.49054    0.00000
   89      9.58622    0.00000
   90      9.65799    0.00000
   91      9.80087    0.00000
   92      9.99084    0.00000
   93     10.03813    0.00000
   94     10.11712    0.00000
   95     10.16496    0.00000
   96     10.33884    0.00000
   97     10.36716    0.00000


Forces in eV/Ang:
  0 C     2.00441    2.75965   -0.11896
  1 C     3.08690   -3.58638   -1.76122
  2 C     0.34258    0.00614   -0.19699
  3 C     0.70626   -2.46666    1.32950
  4 C     1.37377   -5.29699   -0.38280
  5 C    -1.10176   -0.69470   -0.10168
  6 C    -1.14597   -2.76847   -1.97574
  7 C     3.30194   -8.99714   -2.86763
  8 C     0.44784   -0.31584   -0.14318
  9 C    -0.07324    0.54575   -0.09485
 10 C     1.69115    0.71818    0.06192
 11 C    -0.69999    0.72730   -0.83182
 12 C     0.03619   -0.66624   -0.31028
 13 C    -0.50449    0.04045    0.06604
 14 C    -0.66987    0.02146    0.73821
 15 C     0.30653   -0.33590    0.03399
 16 C     2.21753    1.33925    1.07799
 17 C     0.30171    2.21255    1.86389
 18 C    -2.32420    6.08495   -0.07315
 19 C    -3.70377    1.98221   -0.17958
 20 C    -1.84340   11.53229    3.86499
 21 C    -2.89140   -1.05844    0.45463
 22 C    -0.48449   -3.06604   -0.98644
 23 C    -0.43401    1.23565    0.50973

System changes: positions 

Initializing position-dependent things.

Density initialized from wave functions
           .--------------------------------------.  
          /|                                      |  
         / |                                      |  
        /  |                                      |  
       /   |                                      |  
      /    |                                      |  
     /     |                                      |  
    /      |                                      |  
   /       |      C  C  C   C C                   |  
  /        |     C      C                         |  
 *         |  C     C     C   C  C                |  
 |         | C                                    |  
 |         .---C---C-C---C--C----C----------------.  
 |        /    C     C    C                      /   
 |       /       C     C                        /    
 |      /                                      /     
 |     /                                      /      
 |    /                                      /       
 |   /                                      /        
 |  /                                      /         
 | /                                      /          
 |/                                      /           
 *--------------------------------------*            

Positions:
   0 C      9.373987    4.141435    5.116194
   1 C      9.529139    5.532017    5.203733
   2 C      5.714649    3.344448    5.325799
   3 C      3.480941    7.453383    5.787210
   4 C      5.820855    6.102106    5.453389
   5 C      8.345781    3.396373    5.170927
   6 C      4.479699    5.466642    5.517072
   7 C      8.209616    6.165997    5.285003
   8 C      7.024484    3.874337    5.244798
   9 C      4.691084    4.072676    5.432567
  10 C      3.248780    6.176967    5.664367
  11 C      7.018520    5.342381    5.295640
  12 C      9.481945    9.401235    6.521047
  13 C      8.408371    9.993692    6.792857
  14 C      5.822367    9.712902    6.986021
  15 C      7.154384    9.354481    6.731938
  16 C      4.839351    8.918278    6.974289
  17 C      7.314166    7.922819    6.291477
  18 C      4.750261    7.577460    6.648369
  19 C      6.113988    7.174028    6.258714
  20 C      8.573127    7.291234    5.913181
  21 C     11.249255    6.604075    5.107801
  22 C     11.141687    7.785330    5.623929
  23 C      9.825335    8.137441    6.013724

Unit cell:
           periodic     x           y           z      points  spacing
  1. axis:    yes   16.000000    0.000000    0.000000    80     0.2000
  2. axis:    yes    0.000000   16.000000    0.000000    80     0.2000
  3. axis:    yes    0.000000    0.000000   10.000000    48     0.2083

Effective grid spacing dv^(1/3) = 0.2027

                     log10-error:    total        iterations:
           time      wfs    density  energy       fermi  poisson
iter:   1  12:25:12          +inf  -179.032888    3      5      
iter:   2  12:25:13         -2.04  -179.001525    2      2      
iter:   3  12:25:14         -2.16  -178.969315    2      2      
iter:   4  12:25:15         -2.46  -178.965095    2      2      
iter:   5  12:25:15         -2.69  -178.964154    2      2      
iter:   6  12:25:16         -2.85  -178.963627    1      2      
iter:   7  12:25:17         -3.06  -178.964064    2      2      
iter:   8  12:25:17         -3.38  -178.963956    2      1      
iter:   9  12:25:18         -3.50  -178.963122    2      1      
iter:  10  12:25:19         -3.70  -178.963270    1      1      
iter:  11  12:25:19         -3.78  -178.963721    2      1      
iter:  12  12:25:20         -3.94  -178.963885    2      1      
iter:  13  12:25:21         -3.95  -178.963884    2      1      
iter:  14  12:25:21         -4.29  -178.963781    2      1      

Converged after 14 iterations.

Dipole moment: (-0.283280, -0.245780, 0.012844) |e|*Ang

Energy contributions relative to reference atoms: (reference = -24663.074771)

Kinetic:       +130.110912
Potential:     -131.736885
External:        +0.000000
XC:            -180.278508
Entropy (-ST):   -0.138978
Local:           +3.010189
--------------------------
Free energy:   -179.033270
Extrapolated:  -178.963781

Fermi level: -4.51395

 Band  Eigenvalues  Occupancy
    0    -23.35263    2.00000
    1    -22.17245    2.00000
    2    -21.90340    2.00000
    3    -20.71333    2.00000
    4    -20.65410    2.00000
    5    -20.39155    2.00000
    6    -19.34716    2.00000
    7    -19.25351    2.00000
    8    -18.44515    2.00000
    9    -18.16027    2.00000
   10    -17.88327    2.00000
   11    -17.10471    2.00000
   12    -15.91007    2.00000
   13    -15.72566    2.00000
   14    -15.26074    2.00000
   15    -15.11758    2.00000
   16    -14.66473    2.00000
   17    -12.98979    2.00000
   18    -12.78711    2.00000
   19    -12.61311    2.00000
   20    -12.38850    2.00000
   21    -12.10046    2.00000
   22    -11.95662    2.00000
   23    -11.20602    2.00000
   24    -11.00232    2.00000
   25    -10.86917    2.00000
   26    -10.74434    2.00000
   27    -10.40640    2.00000
   28     -9.82577    2.00000
   29     -9.68928    2.00000
   30     -9.50728    2.00000
   31     -9.03802    2.00000
   32     -8.55775    2.00000
   33     -8.36146    2.00000
   34     -8.20860    2.00000
   35     -7.94020    2.00000
   36     -7.09024    2.00000
   37     -6.85191    2.00000
   38     -6.79197    2.00000
   39     -6.69672    2.00000
   40     -6.41123    2.00000
   41     -6.33133    2.00000
   42     -6.30489    2.00000
   43     -5.94666    2.00000
   44     -5.84304    2.00000
   45     -5.60247    1.99996
   46     -5.11627    1.99517
   47     -4.73141    1.79590
   48     -4.29607    0.20335
   49     -3.92687    0.00563
   50     -3.15113    0.00000
   51     -2.89882    0.00000
   52     -2.85207    0.00000
   53     -2.76201    0.00000
   54     -2.42688    0.00000
   55     -1.96644    0.00000
   56     -1.78318    0.00000
   57     -1.59393    0.00000
   58     -1.01481    0.00000
   59      0.21219    0.00000
   60      0.38563    0.00000
   61      0.91084    0.00000
   62      1.21657    0.00000
   63      1.80451    0.00000
   64      2.73596    0.00000
   65      3.36518    0.00000
   66      3.86017    0.00000
   67      4.12521    0.00000
   68      4.65365    0.00000
   69      5.20624    0.00000
   70      5.83021    0.00000
   71      6.05648    0.00000
   72      6.38946    0.00000
   73      6.64753    0.00000
   74      6.93265    0.00000
   75      7.01853    0.00000
   76      7.52263    0.00000
   77      7.79904    0.00000
   78      7.97879    0.00000
   79      8.34818    0.00000
   80      8.44416    0.00000
   81      8.77275    0.00000
   82      8.87426    0.00000
   83      8.98908    0.00000
   84      9.09979    0.00000
   85      9.16183    0.00000
   86      9.32980    0.00000
   87      9.39603    0.00000
   88      9.52734    0.00000
   89      9.61467    0.00000
   90      9.67721    0.00000
   91      9.86120    0.00000
   92      9.99352    0.00000
   93     10.07475    0.00000
   94     10.13650    0.00000
   95     10.18070    0.00000
   96     10.37018    0.00000
   97     10.38582    0.00000


Forces in eV/Ang:
  0 C     1.08919    1.42507   -0.08735
  1 C     2.89355   -2.75930   -1.63091
  2 C     0.20501    0.06797   -0.18055
  3 C     0.82398   -2.02675    1.44644
  4 C     0.92423   -3.99194    0.19624
  5 C    -0.13416   -0.13087   -0.18819
  6 C    -0.98712   -2.39014   -1.86394
  7 C     4.10891   -4.98936   -0.86760
  8 C     0.33343   -0.40262   -0.13568
  9 C     0.07638    0.06680   -0.13601
 10 C     1.56222    0.32315   -0.03954
 11 C    -0.13665    0.25114   -0.82077
 12 C    -0.11511   -0.26543   -0.16764
 13 C    -0.32554   -0.00157    0.05650
 14 C    -0.11884    0.40992    0.76530
 15 C     0.22093   -0.07465    0.12380
 16 C     1.69540    1.49255    1.15015
 17 C    -0.16567    1.94508    1.70395
 18 C    -2.18167    5.25800   -0.46023
 19 C    -3.46993    1.40799   -0.60144
 20 C    -2.41131    7.28487    1.70138
 21 C    -2.91125   -1.35389    0.36488
 22 C    -0.60515   -2.80880   -0.86393
 23 C    -0.40268    1.22428    0.47101

System changes: positions 

Initializing position-dependent things.

Density initialized from wave functions
           .--------------------------------------.  
          /|                                      |  
         / |                                      |  
        /  |                                      |  
       /   |                                      |  
      /    |                                      |  
     /     |                                      |  
    /      |                                      |  
   /       |      C  C  C   C C                   |  
  /        |     C      C                         |  
 *         |  C     C     C   C  C                |  
 |         | C                                    |  
 |         .---C---C-C---C--C---C-----------------.  
 |        /    C     C    C                      /   
 |       /       C     C                        /    
 |      /                                      /     
 |     /                                      /      
 |    /                                      /       
 |   /                                      /        
 |  /                                      /         
 | /                                      /          
 |/                                      /           
 *--------------------------------------*            

Positions:
   0 C      9.377498    4.145298    5.115690
   1 C      9.550399    5.515170    5.191864
   2 C      5.715495    3.345301    5.324496
   3 C      3.487917    7.440115    5.798976
   4 C      5.825578    6.078312    5.457988
   5 C      8.349907    3.398371    5.169015
   6 C      4.472942    5.450246    5.503309
   7 C      8.245572    6.148930    5.288983
   8 C      7.026443    3.870772    5.243792
   9 C      4.692470    4.070637    5.431300
  10 C      3.260128    6.177350    5.663521
  11 C      7.020471    5.341777    5.289376
  12 C      9.480251    9.401327    6.520517
  13 C      8.406818    9.993455    6.793242
  14 C      5.824389    9.718131    6.992061
  15 C      7.155629    9.355299    6.733371
  16 C      4.849628    8.930593    6.983534
  17 C      7.310397    7.936377    6.303751
  18 C      4.734215    7.613557    6.642760
  19 C      6.088504    7.181813    6.251831
  20 C      8.551523    7.324708    5.914752
  21 C     11.226722    6.592070    5.110134
  22 C     11.136382    7.765064    5.617927
  23 C      9.822400    8.146812    6.017146

Unit cell:
           periodic     x           y           z      points  spacing
  1. axis:    yes   16.000000    0.000000    0.000000    80     0.2000
  2. axis:    yes    0.000000   16.000000    0.000000    80     0.2000
  3. axis:    yes    0.000000    0.000000   10.000000    48     0.2083

Effective grid spacing dv^(1/3) = 0.2027

                     log10-error:    total        iterations:
           time      wfs    density  energy       fermi  poisson
iter:   1  12:25:24          +inf  -180.517069    3      5      
iter:   2  12:25:25         -1.87  -180.438451    2      2      
iter:   3  12:25:25         -2.01  -180.357059    3      2      
iter:   4  12:25:26         -2.35  -180.348131    2      2      
iter:   5  12:25:27         -2.58  -180.346856    2      2      
iter:   6  12:25:27         -2.68  -180.344532    2      2      
iter:   7  12:25:28         -2.94  -180.345542    2      2      
iter:   8  12:25:29         -3.26  -180.346295    2      1      
iter:   9  12:25:29         -3.34  -180.345489    2      1      
iter:  10  12:25:30         -3.48  -180.344874    2      1      
iter:  11  12:25:31         -3.58  -180.346345    2      1      
iter:  12  12:25:31         -3.84  -180.345724    2      1      
iter:  13  12:25:32         -3.91  -180.346521    2      1      
iter:  14  12:25:33         -4.10  -180.346026    2      1      

Converged after 14 iterations.

Dipole moment: (-0.244099, -0.235172, 0.005615) |e|*Ang

Energy contributions relative to reference atoms: (reference = -24663.074771)

Kinetic:       +131.385326
Potential:     -133.379536
External:        +0.000000
XC:            -181.333809
Entropy (-ST):   -0.102455
Local:           +3.033221
--------------------------
Free energy:   -180.397253
Extrapolated:  -180.346026

Fermi level: -4.48701

 Band  Eigenvalues  Occupancy
    0    -23.20890    2.00000
    1    -22.09438    2.00000
    2    -21.91435    2.00000
    3    -20.74227    2.00000
    4    -20.59472    2.00000
    5    -20.37069    2.00000
    6    -19.37906    2.00000
    7    -19.14700    2.00000
    8    -18.49701    2.00000
    9    -18.09931    2.00000
   10    -17.92409    2.00000
   11    -17.15986    2.00000
   12    -15.90485    2.00000
   13    -15.63256    2.00000
   14    -15.22037    2.00000
   15    -15.13086    2.00000
   16    -14.70420    2.00000
   17    -12.91369    2.00000
   18    -12.78529    2.00000
   19    -12.63582    2.00000
   20    -12.32338    2.00000
   21    -12.11601    2.00000
   22    -11.96805    2.00000
   23    -11.20967    2.00000
   24    -11.04485    2.00000
   25    -10.86232    2.00000
   26    -10.68491    2.00000
   27    -10.31942    2.00000
   28     -9.90837    2.00000
   29     -9.72161    2.00000
   30     -9.51102    2.00000
   31     -9.19997    2.00000
   32     -8.77138    2.00000
   33     -8.34058    2.00000
   34     -8.20148    2.00000
   35     -7.95916    2.00000
   36     -7.06749    2.00000
   37     -6.84328    2.00000
   38     -6.76543    2.00000
   39     -6.67184    2.00000
   40     -6.39282    2.00000
   41     -6.33530    2.00000
   42     -6.28913    2.00000
   43     -5.99521    2.00000
   44     -5.88030    2.00000
   45     -5.69634    1.99999
   46     -5.19025    1.99824
   47     -4.74913    1.86444
   48     -4.22403    0.13449
   49     -3.83184    0.00285
   50     -3.07399    0.00000
   51     -2.82855    0.00000
   52     -2.77765    0.00000
   53     -2.68191    0.00000
   54     -2.35233    0.00000
   55     -1.90836    0.00000
   56     -1.64596    0.00000
   57     -1.44474    0.00000
   58     -1.05337    0.00000
   59      0.28067    0.00000
   60      0.53167    0.00000
   61      1.02275    0.00000
   62      1.35341    0.00000
   63      1.87536    0.00000
   64      2.85764    0.00000
   65      3.57346    0.00000
   66      4.00150    0.00000
   67      4.29131    0.00000
   68      4.74717    0.00000
   69      5.23107    0.00000
   70      5.91988    0.00000
   71      6.16040    0.00000
   72      6.55924    0.00000
   73      6.67177    0.00000
   74      7.09702    0.00000
   75      7.10895    0.00000
   76      7.63350    0.00000
   77      7.85636    0.00000
   78      8.12303    0.00000
   79      8.41208    0.00000
   80      8.52014    0.00000
   81      8.82792    0.00000
   82      8.91630    0.00000
   83      9.11217    0.00000
   84      9.13808    0.00000
   85      9.20871    0.00000
   86      9.40893    0.00000
   87      9.44010    0.00000
   88      9.56583    0.00000
   89      9.67347    0.00000
   90      9.69789    0.00000
   91      9.96066    0.00000
   92     10.03006    0.00000
   93     10.12359    0.00000
   94     10.15114    0.00000
   95     10.22391    0.00000
   96     10.38455    0.00000
   97     10.41273    0.00000


Forces in eV/Ang:
  0 C     0.99539    0.48151   -0.14733
  1 C     2.98531   -1.59358   -1.40291
  2 C     0.37146   -0.09352   -0.18867
  3 C     0.88418   -1.44617    1.58190
  4 C     0.46369   -2.69989    0.60052
  5 C    -0.06703   -0.07739   -0.21992
  6 C    -0.71342   -1.83762   -1.61391
  7 C     3.23365   -3.38144   -0.08441
  8 C     0.33323   -0.38657   -0.14340
  9 C    -0.02422   -0.37560   -0.18213
 10 C     1.29778   -0.16813   -0.19999
 11 C     0.75346    0.09136   -0.64318
 12 C    -0.00704    0.03623   -0.07673
 13 C    -0.30702    0.09234    0.09422
 14 C     0.34876    0.83468    0.82917
 15 C     0.20004    0.21745    0.24104
 16 C     1.11666    1.91061    1.28780
 17 C    -1.04049    1.33552    1.30426
 18 C    -1.95404    3.99677   -0.92363
 19 C    -2.78172    1.16440   -0.80726
 20 C    -1.70050    5.19697    0.81602
 21 C    -3.06754   -1.97763    0.20027
 22 C    -0.90661   -2.26075   -0.56868
 23 C    -0.38952    0.98247    0.32053

System changes: positions 

Initializing position-dependent things.

Density initialized from wave functions
           .--------------------------------------.  
          /|                                      |  
         / |                                      |  
        /  |                                      |  
       /   |                                      |  
      /    |                                      |  
     /     |                                      |  
    /      |                                      |  
   /       |      C  C  C   C C                   |  
  /        |     C      C                         |  
 *         |  C     C     C   C  C                |  
 |         | C                                    |  
 |         .---C---C-C---C--C---C-----------------.  
 |        /    C     C    C                      /   
 |       /       C     C                        /    
 |      /                                      /     
 |     /                                      /      
 |    /                                      /       
 |   /                                      /        
 |  /                                      /         
 | /                                      /          
 |/                                      /           
 *--------------------------------------*            

Positions:
   0 C      9.384078    4.143436    5.114200
   1 C      9.579396    5.504929    5.179005
   2 C      5.719095    3.344203    5.322671
   3 C      3.497158    7.428676    5.815267
   4 C      5.827586    6.059037    5.466759
   5 C      8.352584    3.399587    5.166489
   6 C      4.467078    5.434682    5.488362
   7 C      8.278028    6.132565    5.296567
   8 C      7.029350    3.866716    5.242386
   9 C      4.692487    4.064321    5.429261
  10 C      3.271870    6.173239    5.660840
  11 C      7.031841    5.340737    5.283492
  12 C      9.479939    9.403711    6.520443
  13 C      8.404424    9.994448    6.794228
  14 C      5.830737    9.728632    7.000471
  15 C      7.157270    9.358988    6.736317
  16 C      4.857553    8.950907    6.996785
  17 C      7.296550    7.947223    6.315137
  18 C      4.715964    7.647254    6.631296
  19 C      6.063482    7.190826    6.242006
  20 C      8.534574    7.357046    5.913599
  21 C     11.196062    6.570144    5.111425
  22 C     11.126342    7.744922    5.613420
  23 C      9.818695    8.155887    6.019824

Unit cell:
           periodic     x           y           z      points  spacing
  1. axis:    yes   16.000000    0.000000    0.000000    80     0.2000
  2. axis:    yes    0.000000   16.000000    0.000000    80     0.2000
  3. axis:    yes    0.000000    0.000000   10.000000    48     0.2083

Effective grid spacing dv^(1/3) = 0.2027

                     log10-error:    total        iterations:
           time      wfs    density  energy       fermi  poisson
iter:   1  12:25:35          +inf  -181.713612    3      5      
iter:   2  12:25:36         -1.92  -181.645006    2      2      
iter:   3  12:25:37         -2.06  -181.572170    3      2      
iter:   4  12:25:37         -2.38  -181.562857    2      2      
iter:   5  12:25:38         -2.63  -181.561642    2      2      
iter:   6  12:25:39         -2.74  -181.560423    2      2      
iter:   7  12:25:39         -2.99  -181.560588    2      2      
iter:   8  12:25:40         -3.34  -181.561081    2      1      
iter:   9  12:25:41         -3.45  -181.560696    2      1      
iter:  10  12:25:41         -3.53  -181.560184    2      1      
iter:  11  12:25:42         -3.67  -181.561650    2      1      
iter:  12  12:25:43         -3.81  -181.560560    1      1      
iter:  13  12:25:43         -3.94  -181.560452    1      1      
iter:  14  12:25:44         -4.04  -181.561034    2      1      

Converged after 14 iterations.

Dipole moment: (-0.200854, -0.207493, -0.000908) |e|*Ang

Energy contributions relative to reference atoms: (reference = -24663.074771)

Kinetic:       +130.304409
Potential:     -133.060122
External:        +0.000000
XC:            -181.801834
Entropy (-ST):   -0.072462
Local:           +3.032745
--------------------------
Free energy:   -181.597265
Extrapolated:  -181.561034

Fermi level: -4.46888

 Band  Eigenvalues  Occupancy
    0    -23.08347    2.00000
    1    -22.03062    2.00000
    2    -21.90629    2.00000
    3    -20.75529    2.00000
    4    -20.54818    2.00000
    5    -20.30369    2.00000
    6    -19.39564    2.00000
    7    -19.05521    2.00000
    8    -18.50142    2.00000
    9    -18.03814    2.00000
   10    -17.93912    2.00000
   11    -17.20644    2.00000
   12    -15.90265    2.00000
   13    -15.52952    2.00000
   14    -15.16791    2.00000
   15    -15.14061    2.00000
   16    -14.72553    2.00000
   17    -12.86062    2.00000
   18    -12.80147    2.00000
   19    -12.62905    2.00000
   20    -12.28877    2.00000
   21    -12.14172    2.00000
   22    -11.97828    2.00000
   23    -11.21414    2.00000
   24    -11.09132    2.00000
   25    -10.85285    2.00000
   26    -10.64327    2.00000
   27    -10.31302    2.00000
   28     -9.97304    2.00000
   29     -9.71749    2.00000
   30     -9.52608    2.00000
   31     -9.33198    2.00000
   32     -8.88714    2.00000
   33     -8.34066    2.00000
   34     -8.16664    2.00000
   35     -7.95564    2.00000
   36     -7.03863    2.00000
   37     -6.81686    2.00000
   38     -6.71322    2.00000
   39     -6.62537    2.00000
   40     -6.37409    2.00000
   41     -6.32707    2.00000
   42     -6.27302    2.00000
   43     -6.03411    2.00000
   44     -5.91159    2.00000
   45     -5.77574    2.00000
   46     -5.24223    1.99912
   47     -4.77986    1.91459
   48     -4.15692    0.08461
   49     -3.76072    0.00168
   50     -3.01636    0.00000
   51     -2.76016    0.00000
   52     -2.70351    0.00000
   53     -2.61612    0.00000
   54     -2.29502    0.00000
   55     -1.89678    0.00000
   56     -1.51341    0.00000
   57     -1.34702    0.00000
   58     -1.06121    0.00000
   59      0.32727    0.00000
   60      0.71434    0.00000
   61      1.14376    0.00000
   62      1.46818    0.00000
   63      1.93803    0.00000
   64      2.95439    0.00000
   65      3.73387    0.00000
   66      4.12233    0.00000
   67      4.40365    0.00000
   68      4.77922    0.00000
   69      5.28211    0.00000
   70      6.01997    0.00000
   71      6.15389    0.00000
   72      6.65218    0.00000
   73      6.78831    0.00000
   74      7.13560    0.00000
   75      7.24160    0.00000
   76      7.72092    0.00000
   77      7.90111    0.00000
   78      8.19154    0.00000
   79      8.49203    0.00000
   80      8.57491    0.00000
   81      8.85327    0.00000
   82      8.92366    0.00000
   83      9.14605    0.00000
   84      9.21205    0.00000
   85      9.25008    0.00000
   86      9.47898    0.00000
   87      9.51160    0.00000
   88      9.59852    0.00000
   89      9.71059    0.00000
   90      9.76200    0.00000
   91     10.00391    0.00000
   92     10.04353    0.00000
   93     10.12349    0.00000
   94     10.21945    0.00000
   95     10.25121    0.00000
   96     10.38324    0.00000
   97     10.46020    0.00000


Forces in eV/Ang:
  0 C     0.85005   -0.11628   -0.19944
  1 C     3.03310   -0.80346   -1.17184
  2 C     0.33356   -0.14010   -0.17742
  3 C     0.70845   -1.34391    1.50679
  4 C     0.37613   -1.85493    0.71482
  5 C     0.18474    0.00221   -0.24777
  6 C    -0.42938   -1.41857   -1.39423
  7 C     2.63105   -1.90044    0.45363
  8 C     0.36623   -0.30866   -0.14801
  9 C     0.04594   -0.79206   -0.25155
 10 C     1.05221   -0.20835   -0.30511
 11 C     0.93530    0.04159   -0.40550
 12 C    -0.03796    0.36383    0.04103
 13 C    -0.10379    0.13166    0.09525
 14 C     0.52094    1.05889    0.84607
 15 C     0.15035    0.39761    0.33007
 16 C     0.60159    1.88228    1.25340
 17 C    -1.18547    0.91708    0.87776
 18 C    -1.57071    3.38400   -1.05276
 19 C    -2.35646    0.94768   -0.84972
 20 C    -1.27189    3.29434    0.15237
 21 C    -3.36979   -2.07958    0.27397
 22 C    -1.03813   -2.27601   -0.57612
 23 C    -0.42468    0.80414    0.19158

System changes: positions 

Initializing position-dependent things.

Density initialized from wave functions
           .--------------------------------------.  
          /|                                      |  
         / |                                      |  
        /  |                                      |  
       /   |                                      |  
      /    |                                      |  
     /     |                                      |  
    /      |                                      |  
   /       |      C  C  C   C C                   |  
  /        |     C      C                         |  
 *         |  C     C     C   C  C                |  
 |         | C                                    |  
 |         .---C---C--C--C--C---C-----------------.  
 |        /    C     C    C                      /   
 |       /       C     C                        /    
 |      /                                      /     
 |     /                                      /      
 |    /                                      /       
 |   /                                      /        
 |  /                                      /         
 | /                                      /          
 |/                                      /           
 *--------------------------------------*            

Positions:
   0 C      9.391024    4.139327    5.112179
   1 C      9.609172    5.499647    5.168021
   2 C      5.722224    3.342771    5.320954
   3 C      3.504092    7.416378    5.830245
   4 C      5.830393    6.044137    5.474900
   5 C      8.356050    3.400481    5.163880
   6 C      4.463549    5.421981    5.475154
   7 C      8.303871    6.121767    5.304734
   8 C      7.032857    3.863667    5.240926
   9 C      4.693189    4.055127    5.426612
  10 C      3.281640    6.170401    5.657486
  11 C      7.042434    5.340385    5.279901
  12 C      9.479369    9.408398    6.521233
  13 C      8.403917    9.995785    6.795172
  14 C      5.837033    9.740073    7.008904
  15 C      7.158565    9.363621    6.739862
  16 C      4.861863    8.969821    7.009259
  17 C      7.283672    7.955099    6.322844
  18 C      4.701266    7.678198    6.620029
  19 C      6.041401    7.199026    6.232921
  20 C      8.522152    7.380511    5.910984
  21 C     11.162312    6.548834    5.114039
  22 C     11.115635    7.723014    5.608012
  23 C      9.814504    8.163464    6.021426

Unit cell:
           periodic     x           y           z      points  spacing
  1. axis:    yes   16.000000    0.000000    0.000000    80     0.2000
  2. axis:    yes    0.000000   16.000000    0.000000    80     0.2000
  3. axis:    yes    0.000000    0.000000   10.000000    48     0.2083

Effective grid spacing dv^(1/3) = 0.2027

                     log10-error:    total        iterations:
           time      wfs    density  energy       fermi  poisson
iter:   1  12:25:47          +inf  -182.667200    3      5      
iter:   2  12:25:47         -1.96  -182.605422    3      2      
iter:   3  12:25:48         -2.11  -182.537277    3      2      
iter:   4  12:25:49         -2.43  -182.528353    2      2      
iter:   5  12:25:49         -2.69  -182.527216    2      2      
iter:   6  12:25:50         -2.79  -182.526544    2      2      
iter:   7  12:25:51         -3.06  -182.526299    2      2      
iter:   8  12:25:51         -3.37  -182.528082    2      1      
iter:   9  12:25:52         -3.50  -182.525994    2      1      
iter:  10  12:25:53         -3.63  -182.526263    2      1      
iter:  11  12:25:53         -3.71  -182.527608    1      1      
iter:  12  12:25:54         -3.90  -182.526072    2      1      
iter:  13  12:25:55         -4.03  -182.526790    1      1      

Converged after 13 iterations.

Dipole moment: (-0.158063, -0.171244, -0.005506) |e|*Ang

Energy contributions relative to reference atoms: (reference = -24663.074771)

Kinetic:       +129.295475
Potential:     -132.688764
External:        +0.000000
XC:            -182.148459
Entropy (-ST):   -0.048248
Local:           +3.039082
--------------------------
Free energy:   -182.550914
Extrapolated:  -182.526790

Fermi level: -4.44203

 Band  Eigenvalues  Occupancy
    0    -22.98496    2.00000
    1    -21.97504    2.00000
    2    -21.88961    2.00000
    3    -20.74736    2.00000
    4    -20.53192    2.00000
    5    -20.22519    2.00000
    6    -19.42100    2.00000
    7    -18.99726    2.00000
    8    -18.47683    2.00000
    9    -17.99333    2.00000
   10    -17.94417    2.00000
   11    -17.24509    2.00000
   12    -15.89947    2.00000
   13    -15.45160    2.00000
   14    -15.15071    2.00000
   15    -15.11270    2.00000
   16    -14.73214    2.00000
   17    -12.86940    2.00000
   18    -12.76778    2.00000
   19    -12.60651    2.00000
   20    -12.27427    2.00000
   21    -12.17072    2.00000
   22    -11.98228    2.00000
   23    -11.22869    2.00000
   24    -11.12265    2.00000
   25    -10.84704    2.00000
   26    -10.61146    2.00000
   27    -10.39116    2.00000
   28     -9.95830    2.00000
   29     -9.70026    2.00000
   30     -9.55992    2.00000
   31     -9.40709    2.00000
   32     -8.94859    2.00000
   33     -8.33791    2.00000
   34     -8.15186    2.00000
   35     -7.93527    2.00000
   36     -7.01723    2.00000
   37     -6.80097    2.00000
   38     -6.66626    2.00000
   39     -6.58128    2.00000
   40     -6.38209    2.00000
   41     -6.30748    2.00000
   42     -6.27281    2.00000
   43     -6.08025    2.00000
   44     -5.94605    2.00000
   45     -5.82580    2.00000
   46     -5.28416    1.99956
   47     -4.80724    1.94944
   48     -4.07566    0.05000
   49     -3.68225    0.00100
   50     -2.96179    0.00000
   51     -2.69629    0.00000
   52     -2.63716    0.00000
   53     -2.55595    0.00000
   54     -2.26418    0.00000
   55     -1.89548    0.00000
   56     -1.40924    0.00000
   57     -1.27069    0.00000
   58     -1.06083    0.00000
   59      0.37524    0.00000
   60      0.85433    0.00000
   61      1.37813    0.00000
   62      1.57646    0.00000
   63      1.97706    0.00000
   64      3.03701    0.00000
   65      3.84767    0.00000
   66      4.20621    0.00000
   67      4.46090    0.00000
   68      4.77746    0.00000
   69      5.32735    0.00000
   70      6.09066    0.00000
   71      6.13263    0.00000
   72      6.69664    0.00000
   73      6.88238    0.00000
   74      7.14709    0.00000
   75      7.32040    0.00000
   76      7.77866    0.00000
   77      7.93700    0.00000
   78      8.20150    0.00000
   79      8.56287    0.00000
   80      8.60982    0.00000
   81      8.84656    0.00000
   82      8.95000    0.00000
   83      9.16935    0.00000
   84      9.25099    0.00000
   85      9.29058    0.00000
   86      9.50726    0.00000
   87      9.55442    0.00000
   88      9.64031    0.00000
   89      9.73168    0.00000
   90      9.84133    0.00000
   91      9.98679    0.00000
   92     10.04215    0.00000
   93     10.14124    0.00000
   94     10.26262    0.00000
   95     10.28144    0.00000
   96     10.40353    0.00000
   97     10.50891    0.00000


Forces in eV/Ang:
  0 C     0.79183   -0.32664   -0.25469
  1 C     3.00661   -0.28866   -0.97291
  2 C     0.50961   -0.25750   -0.19354
  3 C     0.54068   -1.01533    1.44468
  4 C     0.24034   -1.28013    0.78523
  5 C     0.34688    0.03105   -0.26883
  6 C    -0.17218   -1.20952   -1.18286
  7 C     2.16359   -1.02972    0.68693
  8 C     0.37577   -0.24010   -0.14813
  9 C    -0.07803   -0.84867   -0.29511
 10 C     0.85687   -0.42581   -0.42848
 11 C     1.06509   -0.03355   -0.20666
 12 C     0.14451    0.44528    0.05615
 13 C    -0.12473    0.22969    0.13391
 14 C     0.52667    1.13469    0.88787
 15 C     0.11672    0.48559    0.38735
 16 C     0.30580    1.94982    1.24322
 17 C    -1.25379    0.67764    0.57492
 18 C    -1.25196    2.86266   -1.09114
 19 C    -1.92617    0.83078   -0.85215
 20 C    -0.92694    2.06904   -0.18543
 21 C    -3.62662   -2.40273    0.26362
 22 C    -1.20502   -2.02073   -0.45325
 23 C    -0.40898    0.70838    0.09469

System changes: positions 

Initializing position-dependent things.

Density initialized from wave functions
           .--------------------------------------.  
          /|                                      |  
         / |                                      |  
        /  |                                      |  
       /   |                                      |  
      /    |                                      |  
     /     |                                      |  
    /      |         C                            |  
   /       |      C     C   C C                   |  
  /        |     C      C                         |  
 *         |  C     C     C   C  C                |  
 |         | C                                    |  
 |         .---C---C--C--C--C---C-----------------.  
 |        /    C     C    C                      /   
 |       /       C      C                       /    
 |      /                                      /     
 |     /                                      /      
 |    /                                      /       
 |   /                                      /        
 |  /                                      /         
 | /                                      /          
 |/                                      /           
 *--------------------------------------*            

Positions:
   0 C      9.397826    4.136210    5.109838
   1 C      9.636362    5.497215    5.159327
   2 C      5.726951    3.340401    5.319179
   3 C      3.508780    7.407373    5.843264
   4 C      5.832536    6.032876    5.482098
   5 C      8.359816    3.401011    5.161387
   6 C      4.462212    5.410993    5.464542
   7 C      8.323943    6.114146    5.311592
   8 C      7.036242    3.861528    5.239586
   9 C      4.692426    4.047469    5.423879
  10 C      3.289312    6.166395    5.653480
  11 C      7.051885    5.339880    5.278173
  12 C      9.480818    9.412499    6.521752
  13 C      8.402798    9.997934    6.796418
  14 C      5.841710    9.750354    7.017019
  15 C      7.159559    9.368057    6.743421
  16 C      4.864449    8.987435    7.020498
  17 C      7.272623    7.961288    6.327887
  18 C      4.690208    7.704128    6.610225
  19 C      6.024055    7.206365    6.225130
  20 C      8.513405    7.397352    5.908550
  21 C     11.129015    6.526807    5.116506
  22 C     11.104590    7.704690    5.603899
  23 C      9.810809    8.169966    6.022248

Unit cell:
           periodic     x           y           z      points  spacing
  1. axis:    yes   16.000000    0.000000    0.000000    80     0.2000
  2. axis:    yes    0.000000   16.000000    0.000000    80     0.2000
  3. axis:    yes    0.000000    0.000000   10.000000    48     0.2083

Effective grid spacing dv^(1/3) = 0.2027

                     log10-error:    total        iterations:
           time      wfs    density  energy       fermi  poisson
iter:   1  12:25:57          +inf  -183.392061    3      5      
iter:   2  12:25:58         -2.05  -183.348821    3      2      
iter:   3  12:25:59         -2.19  -183.300062    3      2      
iter:   4  12:25:59         -2.52  -183.293445    2      2      
iter:   5  12:26:00         -2.79  -183.289875    2      1      
iter:   6  12:26:01         -2.88  -183.292100    2      2      
iter:   7  12:26:01         -3.16  -183.293855    2      1      
iter:   8  12:26:02         -3.27  -183.290070    2      1      
iter:   9  12:26:03         -3.62  -183.291919    2      1      
iter:  10  12:26:03         -3.68  -183.292632    2      1      
iter:  11  12:26:04         -3.84  -183.292080    2      1      
iter:  12  12:26:05         -3.98  -183.292439    1      1      
iter:  13  12:26:05         -4.08  -183.292652    1      1      

Converged after 13 iterations.

Dipole moment: (-0.123192, -0.136894, -0.008320) |e|*Ang

Energy contributions relative to reference atoms: (reference = -24663.074771)

Kinetic:       +127.419982
Potential:     -131.544696
External:        +0.000000
XC:            -182.185386
Entropy (-ST):   -0.033407
Local:           +3.034151
--------------------------
Free energy:   -183.309356
Extrapolated:  -183.292652

Fermi level: -4.42118

 Band  Eigenvalues  Occupancy
    0    -22.91101    2.00000
    1    -21.92677    2.00000
    2    -21.87553    2.00000
    3    -20.73402    2.00000
    4    -20.52611    2.00000
    5    -20.15000    2.00000
    6    -19.43473    2.00000
    7    -18.96619    2.00000
    8    -18.44253    2.00000
    9    -17.97605    2.00000
   10    -17.91090    2.00000
   11    -17.28119    2.00000
   12    -15.89001    2.00000
   13    -15.39209    2.00000
   14    -15.15762    2.00000
   15    -15.06761    2.00000
   16    -14.74045    2.00000
   17    -12.90654    2.00000
   18    -12.72211    2.00000
   19    -12.58661    2.00000
   20    -12.27439    2.00000
   21    -12.21100    2.00000
   22    -11.98661    2.00000
   23    -11.24531    2.00000
   24    -11.13559    2.00000
   25    -10.86527    2.00000
   26    -10.60243    2.00000
   27    -10.47506    2.00000
   28     -9.92151    2.00000
   29     -9.68687    2.00000
   30     -9.59828    2.00000
   31     -9.42731    2.00000
   32     -8.97665    2.00000
   33     -8.33276    2.00000
   34     -8.15505    2.00000
   35     -7.90421    2.00000
   36     -6.99753    2.00000
   37     -6.78843    2.00000
   38     -6.62738    2.00000
   39     -6.53744    2.00000
   40     -6.38965    2.00000
   41     -6.28508    2.00000
   42     -6.27437    2.00000
   43     -6.11867    2.00000
   44     -5.96919    2.00000
   45     -5.84064    2.00000
   46     -5.30861    1.99972
   47     -4.83364    1.96818
   48     -4.00733    0.03139
   49     -3.62701    0.00071
   50     -2.93129    0.00000
   51     -2.65788    0.00000
   52     -2.59706    0.00000
   53     -2.51252    0.00000
   54     -2.24885    0.00000
   55     -1.90633    0.00000
   56     -1.32547    0.00000
   57     -1.22839    0.00000
   58     -1.06434    0.00000
   59      0.39266    0.00000
   60      0.92641    0.00000
   61      1.60035    0.00000
   62      1.75843    0.00000
   63      2.00141    0.00000
   64      3.10170    0.00000
   65      3.92297    0.00000
   66      4.25520    0.00000
   67      4.49177    0.00000
   68      4.76726    0.00000
   69      5.35923    0.00000
   70      6.09613    0.00000
   71      6.13081    0.00000
   72      6.70195    0.00000
   73      6.93844    0.00000
   74      7.15901    0.00000
   75      7.37911    0.00000
   76      7.81810    0.00000
   77      7.96025    0.00000
   78      8.18967    0.00000
   79      8.58723    0.00000
   80      8.65574    0.00000
   81      8.83001    0.00000
   82      8.97902    0.00000
   83      9.18737    0.00000
   84      9.25314    0.00000
   85      9.32697    0.00000
   86      9.50375    0.00000
   87      9.57379    0.00000
   88      9.67971    0.00000
   89      9.74511    0.00000
   90      9.90882    0.00000
   91      9.93915    0.00000
   92     10.05877    0.00000
   93     10.16685    0.00000
   94     10.27435    0.00000
   95     10.30900    0.00000
   96     10.44460    0.00000
   97     10.55404    0.00000


Forces in eV/Ang:
  0 C     0.70082   -0.44889   -0.28901
  1 C     2.93350    0.06757   -0.81610
  2 C     0.41076   -0.20132   -0.19311
  3 C     0.33437   -0.93785    1.32043
  4 C     0.20528   -0.83083    0.77515
  5 C     0.50940    0.07777   -0.28895
  6 C    -0.03884   -1.00299   -0.99180
  7 C     1.84961   -0.47203    0.77972
  8 C     0.43143   -0.18986   -0.14683
  9 C     0.05781   -1.06720   -0.34301
 10 C     0.74652   -0.41550   -0.44859
 11 C     1.05096   -0.04673   -0.03655
 12 C     0.07645    0.63769    0.12475
 13 C     0.06630    0.20833    0.11862
 14 C     0.60303    1.17977    0.86610
 15 C     0.05746    0.52765    0.43588
 16 C     0.01567    1.85052    1.17417
 17 C    -1.18999    0.50567    0.34259
 18 C    -0.99462    2.54189   -1.05060
 19 C    -1.58188    0.73427   -0.86385
 20 C    -0.73792    1.23103   -0.39438
 21 C    -3.85081   -2.43666    0.34299
 22 C    -1.27408   -2.02853   -0.44274
 23 C    -0.35703    0.57102   -0.00312

System changes: positions 

Initializing position-dependent things.

Density initialized from wave functions
           .--------------------------------------.  
          /|                                      |  
         / |                                      |  
        /  |                                      |  
       /   |                                      |  
      /    |                                      |  
     /     |                                      |  
    /      |         C                            |  
   /       |      C     C   C C                   |  
  /        |     C      C                         |  
 *         |  C     C     C   C  C                |  
 |         | C                                    |  
 |         .---C---C--C--C--C---C-----------------.  
 |        /    C     C     C                     /   
 |       /       C      C                       /    
 |      /                                      /     
 |     /                                      /      
 |    /                                      /       
 |   /                                      /        
 |  /                                      /         
 | /                                      /          
 |/                                      /           
 *--------------------------------------*            

Positions:
   0 C      9.404062    4.133706    5.107318
   1 C      9.661848    5.496581    5.152063
   2 C      5.730235    3.338965    5.317471
   3 C      3.511285    7.398604    5.854485
   4 C      5.834865    6.024352    5.488299
   5 C      8.364352    3.401645    5.158858
   6 C      4.461639    5.401613    5.455807
   7 C      8.340959    6.107956    5.317168
   8 C      7.040148    3.859900    5.238310
   9 C      4.693261    4.038517    5.420861
  10 C      3.296136    6.163325    5.649750
  11 C      7.059885    5.339673    5.277861
  12 C      9.481297    9.417880    6.522781
  13 C      8.403589    9.999595    6.797392
  14 C      5.846451    9.760116    7.024509
  15 C      7.159992    9.372283    6.747156
  16 C      4.865048    9.003044    7.030538
  17 C      7.263478    7.966426    6.331182
  18 C      4.681488    7.727734    6.601761
  19 C      6.009828    7.213103    6.217799
  20 C      8.506204    7.410460    5.906314
  21 C     11.095002    6.506021    5.119830
  22 C     11.093653    7.686264    5.599726
  23 C      9.807820    8.175105    6.022270

Unit cell:
           periodic     x           y           z      points  spacing
  1. axis:    yes   16.000000    0.000000    0.000000    80     0.2000
  2. axis:    yes    0.000000   16.000000    0.000000    80     0.2000
  3. axis:    yes    0.000000    0.000000   10.000000    48     0.2083

Effective grid spacing dv^(1/3) = 0.2027

                     log10-error:    total        iterations:
           time      wfs    density  energy       fermi  poisson
iter:   1  12:26:08          +inf  -184.037248    4      5      
iter:   2  12:26:09         -2.09  -183.999373    3      2      
iter:   3  12:26:09         -2.23  -183.955703    3      2      
iter:   4  12:26:10         -2.56  -183.949727    2      2      
iter:   5  12:26:11         -2.84  -183.946788    2      1      
iter:   6  12:26:11         -2.93  -183.948671    2      2      
iter:   7  12:26:12         -3.24  -183.950018    2      1      
iter:   8  12:26:13         -3.35  -183.946927    2      1      
iter:   9  12:26:13         -3.66  -183.948706    2      1      
iter:  10  12:26:14         -3.72  -183.949420    2      1      
iter:  11  12:26:15         -3.87  -183.948609    2      1      
iter:  12  12:26:15         -4.01  -183.948988    1      1      

Converged after 12 iterations.

Dipole moment: (-0.090244, -0.103610, -0.010579) |e|*Ang

Energy contributions relative to reference atoms: (reference = -24663.074771)

Kinetic:       +126.085333
Potential:     -130.784558
External:        +0.000000
XC:            -182.277330
Entropy (-ST):   -0.023039
Local:           +3.039086
--------------------------
Free energy:   -183.960508
Extrapolated:  -183.948988

Fermi level: -4.39907

 Band  Eigenvalues  Occupancy
    0    -22.84830    2.00000
    1    -21.88435    2.00000
    2    -21.85768    2.00000
    3    -20.71497    2.00000
    4    -20.52841    2.00000
    5    -20.08419    2.00000
    6    -19.45462    2.00000
    7    -18.94492    2.00000
    8    -18.40609    2.00000
    9    -17.97264    2.00000
   10    -17.87125    2.00000
   11    -17.31148    2.00000
   12    -15.87722    2.00000
   13    -15.35125    2.00000
   14    -15.16426    2.00000
   15    -15.02458    2.00000
   16    -14.74878    2.00000
   17    -12.94265    2.00000
   18    -12.68065    2.00000
   19    -12.57024    2.00000
   20    -12.29257    2.00000
   21    -12.24672    2.00000
   22    -11.98594    2.00000
   23    -11.26671    2.00000
   24    -11.13577    2.00000
   25    -10.91392    2.00000
   26    -10.62113    2.00000
   27    -10.50051    2.00000
   28     -9.87684    2.00000
   29     -9.69158    2.00000
   30     -9.61056    2.00000
   31     -9.43030    2.00000
   32     -8.98994    2.00000
   33     -8.32415    2.00000
   34     -8.16914    2.00000
   35     -7.87414    2.00000
   36     -6.98128    2.00000
   37     -6.78668    2.00000
   38     -6.60295    2.00000
   39     -6.50296    2.00000
   40     -6.39751    2.00000
   41     -6.29091    2.00000
   42     -6.26610    2.00000
   43     -6.15451    2.00000
   44     -5.98554    2.00000
   45     -5.84271    2.00000
   46     -5.32371    1.99981
   47     -4.85796    1.97988
   48     -3.93865    0.01982
   49     -3.56924    0.00050
   50     -2.89722    0.00000
   51     -2.61281    0.00000
   52     -2.55889    0.00000
   53     -2.46259    0.00000
   54     -2.24221    0.00000
   55     -1.91931    0.00000
   56     -1.26149    0.00000
   57     -1.18967    0.00000
   58     -1.06893    0.00000
   59      0.41190    0.00000
   60      0.98060    0.00000
   61      1.67784    0.00000
   62      2.01334    0.00000
   63      2.15257    0.00000
   64      3.16355    0.00000
   65      3.98903    0.00000
   66      4.29008    0.00000
   67      4.52730    0.00000
   68      4.75739    0.00000
   69      5.38579    0.00000
   70      6.07185    0.00000
   71      6.14924    0.00000
   72      6.68442    0.00000
   73      6.95195    0.00000
   74      7.18876    0.00000
   75      7.40417    0.00000
   76      7.84446    0.00000
   77      7.96056    0.00000
   78      8.17529    0.00000
   79      8.59204    0.00000
   80      8.70043    0.00000
   81      8.81253    0.00000
   82      9.00205    0.00000
   83      9.19783    0.00000
   84      9.25226    0.00000
   85      9.35599    0.00000
   86      9.49335    0.00000
   87      9.58008    0.00000
   88      9.70939    0.00000
   89      9.75247    0.00000
   90      9.87851    0.00000
   91      9.97125    0.00000
   92     10.07664    0.00000
   93     10.19540    0.00000
   94     10.28276    0.00000
   95     10.32279    0.00000
   96     10.48924    0.00000
   97     10.59931    0.00000


Forces in eV/Ang:
  0 C     0.65607   -0.47279   -0.30311
  1 C     2.75231    0.26093   -0.68914
  2 C     0.60661   -0.29150   -0.21700
  3 C     0.19026   -0.76803    1.22576
  4 C     0.12333   -0.50299    0.79028
  5 C     0.59165    0.08526   -0.29948
  6 C     0.11310   -0.90172   -0.85088
  7 C     1.57560   -0.04791    0.83765
  8 C     0.44348   -0.14979   -0.14069
  9 C    -0.09416   -0.97656   -0.35848
 10 C     0.66008   -0.50727   -0.46828
 11 C     1.07166   -0.08417    0.07247
 12 C     0.25397    0.59875    0.09242
 13 C    -0.01824    0.27903    0.15616
 14 C     0.51592    1.13790    0.85217
 15 C     0.06731    0.54310    0.46240
 16 C    -0.09690    1.84330    1.11026
 17 C    -1.18945    0.41807    0.18672
 18 C    -0.78530    2.20105   -1.02328
 19 C    -1.31298    0.67992   -0.84135
 20 C    -0.55771    0.58892   -0.54166
 21 C    -3.96872   -2.50533    0.37024
 22 C    -1.33980   -1.91553   -0.43208
 23 C    -0.33756    0.50381   -0.04788

System changes: positions 

Initializing position-dependent things.

Density initialized from wave functions
           .--------------------------------------.  
          /|                                      |  
         / |                                      |  
        /  |                                      |  
       /   |                                      |  
      /    |                                      |  
     /     |                                      |  
    /      |         C                            |  
   /       |      C     C   C C                   |  
  /        |     C      C                         |  
 *         |  C     C     C   C  C                |  
 |         | C                                    |  
 |         .---C---C--C--C--C---C-----------------.  
 |        /    C     C     C                     /   
 |       /       C      C                       /    
 |      /                                      /     
 |     /                                      /      
 |    /                                      /       
 |   /                                      /        
 |  /                                      /         
 | /                                      /          
 |/                                      /           
 *--------------------------------------*            

Positions:
   0 C      9.410150    4.132249    5.104806
   1 C      9.684870    5.496346    5.145827
   2 C      5.735670    3.336628    5.315520
   3 C      3.512459    7.391169    5.864548
   4 C      5.836693    6.017600    5.494168
   5 C      8.369068    3.402083    5.156335
   6 C      4.462190    5.392674    5.448243
   7 C      8.355660    6.103125    5.321965
   8 C      7.044084    3.858629    5.237130
   9 C      4.692263    4.031515    5.417861
  10 C      3.302390    6.159755    5.646138
  11 C      7.067326    5.339326    5.278283
  12 C      9.483739    9.422083    6.523208
  13 C      8.403066   10.001935    6.798754
  14 C      5.849622    9.768748    7.031648
  15 C      7.160681    9.376234    6.750930
  16 C      4.865484    9.018154    7.039682
  17 C      7.254996    7.971348    6.333516
  18 C      4.674491    7.748752    6.594080
  19 C      5.997700    7.219640    6.211067
  20 C      8.500382    7.420608    5.904108
  21 C     11.060848    6.485510    5.123410
  22 C     11.082570    7.668928    5.595459
  23 C      9.805044    8.179772    6.022086

Unit cell:
           periodic     x           y           z      points  spacing
  1. axis:    yes   16.000000    0.000000    0.000000    80     0.2000
  2. axis:    yes    0.000000   16.000000    0.000000    80     0.2000
  3. axis:    yes    0.000000    0.000000   10.000000    48     0.2083

Effective grid spacing dv^(1/3) = 0.2027

                     log10-error:    total        iterations:
           time      wfs    density  energy       fermi  poisson
iter:   1  12:26:18          +inf  -184.603780    4      5      
iter:   2  12:26:18         -2.12  -184.569766    2      2      
iter:   3  12:26:19         -2.26  -184.530674    3      2      
iter:   4  12:26:20         -2.60  -184.525428    2      2      
iter:   5  12:26:20         -2.89  -184.523597    2      1      
iter:   6  12:26:21         -2.97  -184.524622    2      2      
iter:   7  12:26:22         -3.29  -184.525402    2      1      
iter:   8  12:26:22         -3.41  -184.523548    2      1      
iter:   9  12:26:23         -3.71  -184.524618    2      1      
iter:  10  12:26:24         -3.76  -184.525109    2      1      
iter:  11  12:26:24         -3.90  -184.524501    2      1      
iter:  12  12:26:25         -4.05  -184.524759    1      1      

Converged after 12 iterations.

Dipole moment: (-0.062657, -0.074913, -0.012317) |e|*Ang

Energy contributions relative to reference atoms: (reference = -24663.074771)

Kinetic:       +124.506153
Potential:     -129.793602
External:        +0.000000
XC:            -182.267065
Entropy (-ST):   -0.016112
Local:           +3.037812
--------------------------
Free energy:   -184.532814
Extrapolated:  -184.524759

Fermi level: -4.37754

 Band  Eigenvalues  Occupancy
    0    -22.79677    2.00000
    1    -21.85745    2.00000
    2    -21.83492    2.00000
    3    -20.69775    2.00000
    4    -20.53544    2.00000
    5    -20.02556    2.00000
    6    -19.46744    2.00000
    7    -18.93716    2.00000
    8    -18.36988    2.00000
    9    -17.96213    2.00000
   10    -17.83404    2.00000
   11    -17.34511    2.00000
   12    -15.86571    2.00000
   13    -15.32752    2.00000
   14    -15.15993    2.00000
   15    -14.99103    2.00000
   16    -14.76006    2.00000
   17    -12.98818    2.00000
   18    -12.64386    2.00000
   19    -12.56580    2.00000
   20    -12.34579    2.00000
   21    -12.25972    2.00000
   22    -11.98639    2.00000
   23    -11.28944    2.00000
   24    -11.13465    2.00000
   25    -10.98927    2.00000
   26    -10.63429    2.00000
   27    -10.49298    2.00000
   28     -9.83871    2.00000
   29     -9.70794    2.00000
   30     -9.60049    2.00000
   31     -9.42909    2.00000
   32     -8.99638    2.00000
   33     -8.31609    2.00000
   34     -8.18820    2.00000
   35     -7.84587    2.00000
   36     -6.96643    2.00000
   37     -6.78813    2.00000
   38     -6.58334    2.00000
   39     -6.48747    2.00000
   40     -6.38998    2.00000
   41     -6.30268    2.00000
   42     -6.24759    2.00000
   43     -6.16992    2.00000
   44     -5.99451    2.00000
   45     -5.83826    2.00000
   46     -5.33140    1.99986
   47     -4.88030    1.98698
   48     -3.87286    0.01278
   49     -3.52330    0.00039
   50     -2.88697    0.00000
   51     -2.58960    0.00000
   52     -2.54311    0.00000
   53     -2.41873    0.00000
   54     -2.23671    0.00000
   55     -1.93521    0.00000
   56     -1.20489    0.00000
   57     -1.16770    0.00000
   58     -1.07195    0.00000
   59      0.41138    0.00000
   60      1.02833    0.00000
   61      1.71792    0.00000
   62      2.02583    0.00000
   63      2.57127    0.00000
   64      3.22402    0.00000
   65      4.05486    0.00000
   66      4.31337    0.00000
   67      4.56823    0.00000
   68      4.75102    0.00000
   69      5.40805    0.00000
   70      6.03821    0.00000
   71      6.16023    0.00000
   72      6.65242    0.00000
   73      6.95381    0.00000
   74      7.22012    0.00000
   75      7.43194    0.00000
   76      7.86599    0.00000
   77      7.96001    0.00000
   78      8.15908    0.00000
   79      8.59538    0.00000
   80      8.73692    0.00000
   81      8.80809    0.00000
   82      9.01741    0.00000
   83      9.18634    0.00000
   84      9.26626    0.00000
   85      9.37708    0.00000
   86      9.48025    0.00000
   87      9.57634    0.00000
   88      9.73155    0.00000
   89      9.74914    0.00000
   90      9.83127    0.00000
   91     10.00790    0.00000
   92     10.10258    0.00000
   93     10.22717    0.00000
   94     10.28924    0.00000
   95     10.33260    0.00000
   96     10.52497    0.00000
   97     10.63915    0.00000


Forces in eV/Ang:
  0 C     0.57523   -0.53561   -0.31146
  1 C     2.54484    0.38810   -0.57395
  2 C     0.43387   -0.18004   -0.20840
  3 C     0.08192   -0.68049    1.16175
  4 C     0.10802   -0.26764    0.78007
  5 C     0.70134    0.11224   -0.30985
  6 C     0.20787   -0.72367   -0.71451
  7 C     1.32158    0.27509    0.86481
  8 C     0.48416   -0.11335   -0.13356
  9 C     0.10534   -1.16772   -0.39246
 10 C     0.59866   -0.50810   -0.47781
 11 C     1.06170   -0.07786    0.17062
 12 C     0.13487    0.72979    0.14880
 13 C     0.19199    0.22598    0.13026
 14 C     0.61192    1.20522    0.87394
 15 C     0.01640    0.54432    0.47479
 16 C    -0.31774    1.71849    1.02456
 17 C    -1.11959    0.32147    0.03854
 18 C    -0.62558    1.99374   -0.98207
 19 C    -1.10289    0.63256   -0.80797
 20 C    -0.46375    0.13274   -0.61500
 21 C    -3.94355   -2.44588    0.40637
 22 C    -1.37066   -1.82225   -0.40651
 23 C    -0.28850    0.38583   -0.10762

System changes: positions 

Initializing position-dependent things.

Density initialized from wave functions
           .--------------------------------------.  
          /|                                      |  
         / |                                      |  
        /  |                                      |  
       /   |                                      |  
      /    |                                      |  
     /     |                                      |  
    /      |         C                            |  
   /       |       C    C   C C                   |  
  /        |     C      C                         |  
 *         |  C     C     C   C                   |  
 |         | C                   C                |  
 |         .---C---C--C--C--C---C-----------------.  
 |        /    C     C     C                     /   
 |       /       C      C                       /    
 |      /                                      /     
 |     /                                      /      
 |    /                                      /       
 |   /                                      /        
 |  /                                      /         
 | /                                      /          
 |/                                      /           
 *--------------------------------------*            

Positions:
   0 C      9.415906    4.130946    5.102204
   1 C      9.706276    5.496178    5.140296
   2 C      5.739145    3.335640    5.313618
   3 C      3.512787    7.384041    5.874389
   4 C      5.838738    6.011680    5.499846
   5 C      8.374631    3.402613    5.153675
   6 C      4.463388    5.384881    5.441550
   7 C      8.368629    6.098995    5.326185
   8 C      7.048587    3.857637    5.235995
   9 C      4.693594    4.022543    5.414473
  10 C      3.308541    6.156333    5.642460
  11 C      7.074524    5.339268    5.279445
  12 C      9.484760    9.427491    6.524163
  13 C      8.404791   10.003633    6.799827
  14 C      5.853757    9.778192    7.039307
  15 C      7.160897    9.380050    6.754806
  16 C      4.864186    9.032260    7.048176
  17 C      7.247328    7.975946    6.334879
  18 C      4.668431    7.769349    6.586812
  19 C      5.986667    7.226288    6.204681
  20 C      8.494899    7.429519    5.902348
  21 C     11.026482    6.465443    5.127450
  22 C     11.071039    7.651915    5.591236
  23 C      9.802706    8.183502    6.021434

Unit cell:
           periodic     x           y           z      points  spacing
  1. axis:    yes   16.000000    0.000000    0.000000    80     0.2000
  2. axis:    yes    0.000000   16.000000    0.000000    80     0.2000
  3. axis:    yes    0.000000    0.000000   10.000000    48     0.2083

Effective grid spacing dv^(1/3) = 0.2027

                     log10-error:    total        iterations:
           time      wfs    density  energy       fermi  poisson
iter:   1  12:26:28          +inf  -185.122211    4      5      
iter:   2  12:26:28         -2.15  -185.090144    2      2      
iter:   3  12:26:29         -2.28  -185.053029    3      2      
iter:   4  12:26:30         -2.63  -185.048407    2      2      
iter:   5  12:26:30         -2.93  -185.046757    2      1      
iter:   6  12:26:31         -3.00  -185.047780    2      2      
iter:   7  12:26:32         -3.32  -185.048472    2      1      
iter:   8  12:26:32         -3.42  -185.046704    2      1      
iter:   9  12:26:33         -3.74  -185.047857    2      1      
iter:  10  12:26:34         -3.79  -185.048388    2      1      
iter:  11  12:26:34         -3.91  -185.047698    2      1      
iter:  12  12:26:35         -4.07  -185.047997    1      1      

Converged after 12 iterations.

Dipole moment: (-0.038462, -0.050859, -0.014092) |e|*Ang

Energy contributions relative to reference atoms: (reference = -24663.074771)

Kinetic:       +123.503803
Potential:     -129.245741
External:        +0.000000
XC:            -182.344016
Entropy (-ST):   -0.011242
Local:           +3.043579
--------------------------
Free energy:   -185.053618
Extrapolated:  -185.047997

Fermi level: -4.35849

 Band  Eigenvalues  Occupancy
    0    -22.75118    2.00000
    1    -21.84082    2.00000
    2    -21.80790    2.00000
    3    -20.67961    2.00000
    4    -20.54914    2.00000
    5    -19.97489    2.00000
    6    -19.48305    2.00000
    7    -18.93087    2.00000
    8    -18.33687    2.00000
    9    -17.95384    2.00000
   10    -17.80454    2.00000
   11    -17.37471    2.00000
   12    -15.85077    2.00000
   13    -15.33093    2.00000
   14    -15.15079    2.00000
   15    -14.95979    2.00000
   16    -14.77443    2.00000
   17    -13.03984    2.00000
   18    -12.62235    2.00000
   19    -12.57499    2.00000
   20    -12.39544    2.00000
   21    -12.26316    2.00000
   22    -11.98397    2.00000
   23    -11.32020    2.00000
   24    -11.13705    2.00000
   25    -11.04784    2.00000
   26    -10.63429    2.00000
   27    -10.47750    2.00000
   28     -9.80017    2.00000
   29     -9.72517    2.00000
   30     -9.58747    2.00000
   31     -9.42544    2.00000
   32     -8.99968    2.00000
   33     -8.30754    2.00000
   34     -8.21272    2.00000
   35     -7.82194    2.00000
   36     -6.95308    2.00000
   37     -6.79499    2.00000
   38     -6.57380    2.00000
   39     -6.49169    2.00000
   40     -6.38360    2.00000
   41     -6.30851    2.00000
   42     -6.23865    2.00000
   43     -6.18147    2.00000
   44     -5.99882    2.00000
   45     -5.83388    2.00000
   46     -5.33127    1.99988
   47     -4.90486    1.99156
   48     -3.80990    0.00825
   49     -3.47961    0.00030
   50     -2.86571    0.00000
   51     -2.55539    0.00000
   52     -2.52347    0.00000
   53     -2.37422    0.00000
   54     -2.23289    0.00000
   55     -1.95435    0.00000
   56     -1.16735    0.00000
   57     -1.13797    0.00000
   58     -1.07571    0.00000
   59      0.41856    0.00000
   60      1.07542    0.00000
   61      1.76772    0.00000
   62      2.03267    0.00000
   63      2.95784    0.00000
   64      3.28741    0.00000
   65      4.14112    0.00000
   66      4.34495    0.00000
   67      4.63581    0.00000
   68      4.74638    0.00000
   69      5.43166    0.00000
   70      6.01651    0.00000
   71      6.17001    0.00000
   72      6.61319    0.00000
   73      6.93918    0.00000
   74      7.25094    0.00000
   75      7.42815    0.00000
   76      7.87921    0.00000
   77      7.93854    0.00000
   78      8.14373    0.00000
   79      8.59861    0.00000
   80      8.75638    0.00000
   81      8.82167    0.00000
   82      9.02291    0.00000
   83      9.16868    0.00000
   84      9.28303    0.00000
   85      9.39181    0.00000
   86      9.46809    0.00000
   87      9.56602    0.00000
   88      9.71829    0.00000
   89      9.75884    0.00000
   90      9.80432    0.00000
   91     10.02466    0.00000
   92     10.13948    0.00000
   93     10.25962    0.00000
   94     10.29541    0.00000
   95     10.34581    0.00000
   96     10.55336    0.00000
   97     10.65000    0.00000


Forces in eV/Ang:
  0 C     0.56258   -0.55669   -0.32600
  1 C     2.22093    0.41578   -0.45964
  2 C     0.66864   -0.27405   -0.22855
  3 C    -0.01246   -0.58124    1.08642
  4 C     0.06221   -0.03300    0.75619
  5 C     0.72712    0.10387   -0.31453
  6 C     0.32487   -0.71189   -0.61034
  7 C     1.10059    0.54979    0.90974
  8 C     0.47635   -0.08803   -0.12745
  9 C    -0.07415   -1.01150   -0.39034
 10 C     0.56257   -0.51888   -0.48646
 11 C     1.04739   -0.10345    0.25378
 12 C     0.32073    0.63970    0.10071
 13 C     0.07067    0.28842    0.16902
 14 C     0.48600    1.07733    0.86934
 15 C     0.04338    0.54481    0.47050
 16 C    -0.30339    1.73939    0.95526
 17 C    -1.05672    0.25384   -0.07318
 18 C    -0.51923    1.74865   -0.97136
 19 C    -0.89912    0.58305   -0.79366
 20 C    -0.33302   -0.28298   -0.68881
 21 C    -3.80116   -2.31736    0.42178
 22 C    -1.40418   -1.73084   -0.40416
 23 C    -0.28273    0.33999   -0.12470

System changes: positions 

Initializing position-dependent things.

Density initialized from wave functions
           .--------------------------------------.  
          /|                                      |  
         / |                                      |  
        /  |                                      |  
       /   |                                      |  
      /    |                                      |  
     /     |                                      |  
    /      |         C                            |  
   /       |       C    C   C C                   |  
  /        |     C      C                         |  
 *         |  C     C     C   C                   |  
 |         | C                   C                |  
 |         .---C---C--C--C--C---C-----------------.  
 |        /    C     C     C                     /   
 |       /       C      C                       /    
 |      /                                      /     
 |     /                                      /      
 |    /                                      /       
 |   /                                      /        
 |  /                                      /         
 | /                                      /          
 |/                                      /           
 *--------------------------------------*            

Positions:
   0 C      9.422237    4.129789    5.099281
   1 C      9.725407    5.495330    5.135410
   2 C      5.745600    3.333543    5.311350
   3 C      3.512294    7.377038    5.884203
   4 C      5.840680    6.006997    5.505449
   5 C      8.380497    3.402931    5.150804
   6 C      4.465699    5.376144    5.435238
   7 C      8.380513    6.095904    5.330649
   8 C      7.053304    3.856784    5.234843
   9 C      4.692918    4.015040    5.410937
  10 C      3.315047    6.152901    5.638538
  11 C      7.081804    5.339069    5.281402
  12 C      9.487947    9.431968    6.524542
  13 C      8.405091   10.006110    6.801410
  14 C      5.856528    9.786565    7.047486
  15 C      7.161529    9.383996    6.758797
[...]
iter:  10  12:31:27         -4.17  -188.440549    1      1      

Converged after 10 iterations.

Dipole moment: (0.009251, -0.007590, -0.000206) |e|*Ang

Energy contributions relative to reference atoms: (reference = -24663.074771)

Kinetic:       +116.409804
Potential:     -125.627919
External:        +0.000000
XC:            -182.284706
Entropy (-ST):   -0.000394
Local:           +3.062470
--------------------------
Free energy:   -188.440746
Extrapolated:  -188.440549

Fermi level: -4.17261

 Band  Eigenvalues  Occupancy
    0    -22.45607    2.00000
    1    -21.66750    2.00000
    2    -21.65526    2.00000
    3    -20.54093    2.00000
    4    -20.53567    2.00000
    5    -19.82179    2.00000
    6    -19.42992    2.00000
    7    -18.85496    2.00000
    8    -18.00404    2.00000
    9    -17.98709    2.00000
   10    -17.65658    2.00000
   11    -17.65112    2.00000
   12    -15.66028    2.00000
   13    -15.65139    2.00000
   14    -15.08643    2.00000
   15    -14.84324    2.00000
   16    -14.83857    2.00000
   17    -13.30537    2.00000
   18    -12.51080    2.00000
   19    -12.47570    2.00000
   20    -12.47313    2.00000
   21    -12.43034    2.00000
   22    -12.11259    2.00000
   23    -11.36573    2.00000
   24    -11.36093    2.00000
   25    -10.84271    2.00000
   26    -10.81996    2.00000
   27    -10.35938    2.00000
   28     -9.75968    2.00000
   29     -9.50317    2.00000
   30     -9.49325    2.00000
   31     -9.36251    2.00000
   32     -9.33939    2.00000
   33     -8.28779    2.00000
   34     -8.28275    2.00000
   35     -7.81809    2.00000
   36     -6.89913    2.00000
   37     -6.69744    2.00000
   38     -6.48920    2.00000
   39     -6.42069    2.00000
   40     -6.41655    2.00000
   41     -6.29283    2.00000
   42     -6.28875    2.00000
   43     -6.17711    2.00000
   44     -6.16553    2.00000
   45     -6.13864    2.00000
   46     -5.17832    1.99991
   47     -5.17315    1.99991
   48     -3.17766    0.00010
   49     -3.09299    0.00004
   50     -3.08811    0.00004
   51     -2.64632    0.00000
   52     -2.45953    0.00000
   53     -2.45119    0.00000
   54     -2.20073    0.00000
   55     -2.19659    0.00000
   56     -1.06810    0.00000
   57     -1.06262    0.00000
   58     -0.90297    0.00000
   59      0.59763    0.00000
   60      1.56479    0.00000
   61      2.22755    0.00000
   62      2.23544    0.00000
   63      4.03589    0.00000
   64      4.35593    0.00000
   65      4.36811    0.00000
   66      5.33512    0.00000
   67      5.38406    0.00000
   68      5.49774    0.00000
   69      5.52215    0.00000
   70      5.58933    0.00000
   71      5.98100    0.00000
   72      6.99477    0.00000
   73      7.02537    0.00000
   74      7.23498    0.00000
   75      7.29988    0.00000
   76      7.30467    0.00000
   77      7.87836    0.00000
   78      7.88732    0.00000
   79      8.23969    0.00000
   80      8.36477    0.00000
   81      9.16578    0.00000
   82      9.17180    0.00000
   83      9.35478    0.00000
   84      9.37065    0.00000
   85      9.38242    0.00000
   86      9.38645    0.00000
   87      9.49639    0.00000
   88      9.83501    0.00000
   89      9.83831    0.00000
   90      9.95867    0.00000
   91      9.96536    0.00000
   92      9.97568    0.00000
   93     10.24828    0.00000
   94     10.52219    0.00000
   95     10.52379    0.00000
   96     10.55341    0.00000
   97     10.87805    0.00000


Forces in eV/Ang:
  0 C     0.02994    0.00777   -0.01196
  1 C    -0.15519   -0.01060    0.05096
  2 C     0.02246   -0.02845    0.00187
  3 C     0.00149    0.02858    0.01062
  4 C     0.04710   -0.07127   -0.00259
  5 C    -0.05821    0.01508    0.00990
  6 C    -0.02381    0.03656    0.03954
  7 C    -0.02737    0.12657   -0.03078
  8 C    -0.03823    0.07966   -0.09657
  9 C    -0.00666   -0.00906    0.03874
 10 C    -0.02137   -0.01654    0.04929
 11 C     0.08817   -0.03848    0.01228
 12 C    -0.07635   -0.05327   -0.05162
 13 C     0.14998   -0.06376   -0.01507
 14 C    -0.00267   -0.03392    0.03035
 15 C    -0.08954   -0.02934    0.05534
 16 C     0.02034    0.04523   -0.05240
 17 C     0.09057   -0.02613   -0.05000
 18 C    -0.06079    0.01115    0.00263
 19 C     0.09098   -0.08834   -0.08142
 20 C     0.08440   -0.05935   -0.01416
 21 C     0.10220    0.07356    0.08703
 22 C    -0.05976    0.06544    0.05017
 23 C    -0.08928    0.03331   -0.02637

System changes: positions 

Initializing position-dependent things.

Density initialized from wave functions
           .--------------------------------------.  
          /|                                      |  
         / |                                      |  
        /  |                                      |  
       /   |                                      |  
      /    |                                      |  
     /     |                                      |  
    /      |          C                           |  
   /       |       C    C   C C                   |  
  /        |     C     C                          |  
 *         |  C     C     C   C                   |  
 |         | C     C            C                 |  
 |         .---C------C--C--C--C------------------.  
 |        /    C                                 /   
 |       /       C   C  C  C                    /    
 |      /                                      /     
 |     /                                      /      
 |    /                                      /       
 |   /                                      /        
 |  /                                      /         
 | /                                      /          
 |/                                      /           
 *--------------------------------------*            

Positions:
   0 C      9.537652    4.008442    4.893911
   1 C      9.710598    5.361259    5.203689
   2 C      5.878042    3.323768    4.971674
   3 C      3.486917    7.247573    6.227864
   4 C      5.899034    5.985098    5.731454
   5 C      8.461451    3.362456    4.850132
   6 C      4.602249    5.250688    5.550993
   7 C      8.415221    6.039380    5.556574
   8 C      7.169790    3.852001    5.076246
   9 C      4.788604    3.921169    5.156086
  10 C      3.493181    6.057404    5.827868
  11 C      7.160940    5.303841    5.467754
  12 C      9.521666    9.511821    6.503787
  13 C      8.442595   10.076512    6.810912
  14 C      5.864614   10.008081    7.017846
  15 C      7.154789    9.529514    6.760460
  16 C      4.780933    9.385211    6.898992
  17 C      7.153480    8.097701    6.306611
  18 C      4.595965    8.068462    6.462418
  19 C      5.894695    7.375750    6.169304
  20 C      8.409594    7.439225    5.967497
  21 C     10.799821    6.236085    5.260554
  22 C     10.799582    7.437774    5.625033
  23 C      9.703502    8.202782    6.041824

Unit cell:
           periodic     x           y           z      points  spacing
  1. axis:    yes   16.000000    0.000000    0.000000    80     0.2000
  2. axis:    yes    0.000000   16.000000    0.000000    80     0.2000
  3. axis:    yes    0.000000    0.000000   10.000000    48     0.2083

Effective grid spacing dv^(1/3) = 0.2027

                     log10-error:    total        iterations:
           time      wfs    density  energy       fermi  poisson
iter:   1  12:31:29          +inf  -188.444703    2      5      
iter:   2  12:31:30         -2.92  -188.444097    1      1      
iter:   3  12:31:31         -3.01  -188.443159    1      1      
iter:   4  12:31:31         -3.29  -188.442727    1      1      
iter:   5  12:31:32         -3.55  -188.442973    1      1      
iter:   6  12:31:32         -3.29  -188.443676    1      1      
iter:   7  12:31:33         -4.14  -188.443842    1      1      

Converged after 7 iterations.

Dipole moment: (0.003791, -0.007313, 0.001084) |e|*Ang

Energy contributions relative to reference atoms: (reference = -24663.074771)

Kinetic:       +116.563957
Potential:     -125.751723
External:        +0.000000
XC:            -182.320940
Entropy (-ST):   -0.000395
Local:           +3.065061
--------------------------
Free energy:   -188.444040
Extrapolated:  -188.443842

Fermi level: -4.17263

 Band  Eigenvalues  Occupancy
    0    -22.45772    2.00000
    1    -21.66533    2.00000
    2    -21.65720    2.00000
    3    -20.53820    2.00000
    4    -20.53687    2.00000
    5    -19.82504    2.00000
    6    -19.43017    2.00000
    7    -18.85196    2.00000
    8    -18.00483    2.00000
    9    -17.99202    2.00000
   10    -17.65665    2.00000
   11    -17.64855    2.00000
   12    -15.65551    2.00000
   13    -15.65264    2.00000
   14    -15.08834    2.00000
   15    -14.84295    2.00000
   16    -14.84138    2.00000
   17    -13.30007    2.00000
   18    -12.51184    2.00000
   19    -12.47672    2.00000
   20    -12.46659    2.00000
   21    -12.43266    2.00000
   22    -12.11195    2.00000
   23    -11.36493    2.00000
   24    -11.35832    2.00000
   25    -10.84006    2.00000
   26    -10.82276    2.00000
   27    -10.36087    2.00000
   28     -9.75972    2.00000
   29     -9.50052    2.00000
   30     -9.49425    2.00000
   31     -9.35951    2.00000
   32     -9.34406    2.00000
   33     -8.28512    2.00000
   34     -8.28366    2.00000
   35     -7.81982    2.00000
   36     -6.89955    2.00000
   37     -6.69417    2.00000
   38     -6.49253    2.00000
   39     -6.42007    2.00000
   40     -6.41547    2.00000
   41     -6.29376    2.00000
   42     -6.29075    2.00000
   43     -6.17862    2.00000
   44     -6.16709    2.00000
   45     -6.13886    2.00000
   46     -5.17786    1.99991
   47     -5.17329    1.99991
   48     -3.17717    0.00010
   49     -3.09279    0.00004
   50     -3.09038    0.00004
   51     -2.64709    0.00000
   52     -2.46118    0.00000
   53     -2.45125    0.00000
   54     -2.19921    0.00000
   55     -2.19722    0.00000
   56     -1.06634    0.00000
   57     -1.05879    0.00000
   58     -0.90482    0.00000
   59      0.60045    0.00000
   60      1.56941    0.00000
   61      2.22798    0.00000
   62      2.23706    0.00000
   63      4.03670    0.00000
   64      4.35615    0.00000
   65      4.37163    0.00000
   66      5.34885    0.00000
   67      5.38959    0.00000
   68      5.50435    0.00000
   69      5.52877    0.00000
   70      5.58638    0.00000
   71      5.99005    0.00000
   72      7.00524    0.00000
   73      7.02606    0.00000
   74      7.23182    0.00000
   75      7.28930    0.00000
   76      7.30317    0.00000
   77      7.88096    0.00000
   78      7.88910    0.00000
   79      8.23629    0.00000
   80      8.37059    0.00000
   81      9.16658    0.00000
   82      9.16978    0.00000
   83      9.35843    0.00000
   84      9.37019    0.00000
   85      9.38352    0.00000
   86      9.38645    0.00000
   87      9.49656    0.00000
   88      9.83476    0.00000
   89      9.83877    0.00000
   90      9.95803    0.00000
   91      9.96909    0.00000
   92      9.97611    0.00000
   93     10.24874    0.00000
   94     10.52259    0.00000
   95     10.52399    0.00000
   96     10.55451    0.00000
   97     10.87844    0.00000


Forces in eV/Ang:
  0 C    -0.01244    0.00176   -0.01009
  1 C    -0.07307    0.01101    0.02968
  2 C    -0.00761    0.01249    0.04092
  3 C    -0.00536    0.02303    0.02053
  4 C     0.01651   -0.03446   -0.00458
  5 C     0.00261    0.03419    0.01229
  6 C    -0.01338   -0.00881    0.02474
  7 C    -0.02331    0.06211   -0.03545
  8 C    -0.02275    0.05729   -0.07692
  9 C    -0.00514   -0.00850    0.04093
 10 C    -0.00625   -0.02370    0.04495
 11 C     0.03155   -0.01444    0.00065
 12 C     0.01756   -0.03002   -0.04457
 13 C     0.00490   -0.06201    0.00078
 14 C     0.03491   -0.01801    0.03663
 15 C    -0.00507   -0.01337    0.01691
 16 C    -0.04530   -0.03477   -0.04421
 17 C     0.04420   -0.01578   -0.03332
 18 C    -0.00621    0.02239   -0.00737
 19 C     0.04833   -0.03087   -0.04242
 20 C     0.04157   -0.02324   -0.01877
 21 C     0.00110    0.03783    0.09193
 22 C    -0.00278    0.08141    0.05831
 23 C    -0.02902    0.02045   -0.03507

System changes: positions 

Initializing position-dependent things.

Density initialized from wave functions
           .--------------------------------------.  
          /|                                      |  
         / |                                      |  
        /  |                                      |  
       /   |                                      |  
      /    |                                      |  
     /     |                                      |  
    /      |          C                           |  
   /       |       C    C   C C                   |  
  /        |     C      C                         |  
 *         |  C     C     C   C                   |  
 |         | C     C            C                 |  
 |         .---C------C--C--C--C------------------.  
 |        /    C     C                           /   
 |       /       C      C  C                    /    
 |      /                                      /     
 |     /                                      /      
 |    /                                      /       
 |   /                                      /        
 |  /                                      /         
 | /                                      /          
 |/                                      /           
 *--------------------------------------*            

Positions:
   0 C      9.536628    4.008218    4.900960
   1 C      9.709144    5.361952    5.206930
   2 C      5.877120    3.321875    4.976296
   3 C      3.486561    7.253062    6.215100
   4 C      5.899797    5.984172    5.731146
   5 C      8.461160    3.361606    4.857080
   6 C      4.601592    5.251683    5.550619
   7 C      8.414431    6.040426    5.556166
   8 C      7.168805    3.851752    5.078443
   9 C      4.788881    3.921449    5.160232
  10 C      3.492573    6.059936    5.822870
  11 C      7.161639    5.302443    5.470066
  12 C      9.519536    9.512016    6.496180
  13 C      8.443918   10.071962    6.819828
  14 C      5.866390   10.002517    7.031901
  15 C      7.155992    9.524934    6.770571
  16 C      4.781620    9.384508    6.897164
  17 C      7.154950    8.096239    6.307841
  18 C      4.596587    8.070365    6.456832
  19 C      5.896516    7.374876    6.167381
  20 C      8.409985    7.439361    5.964275
  21 C     10.799176    6.237764    5.259057
  22 C     10.797218    7.442506    5.613366
  23 C      9.701057    8.205524    6.031337

Unit cell:
           periodic     x           y           z      points  spacing
  1. axis:    yes   16.000000    0.000000    0.000000    80     0.2000
  2. axis:    yes    0.000000   16.000000    0.000000    80     0.2000
  3. axis:    yes    0.000000    0.000000   10.000000    48     0.2083

Effective grid spacing dv^(1/3) = 0.2027

                     log10-error:    total        iterations:
           time      wfs    density  energy       fermi  poisson
iter:   1  12:31:35          +inf  -188.444771    2      5      
iter:   2  12:31:36         -3.07  -188.444231    1      1      
iter:   3  12:31:37         -3.15  -188.443025    1      1      
iter:   4  12:31:37         -3.39  -188.441633    1      1      
iter:   5  12:31:38         -3.68  -188.442745    1      1      
iter:   6  12:31:39         -3.41  -188.444510    1      1      
iter:   7  12:31:39         -4.02  -188.444576    1      1      

Converged after 7 iterations.

Dipole moment: (0.003556, -0.003517, 0.001996) |e|*Ang

Energy contributions relative to reference atoms: (reference = -24663.074771)

Kinetic:       +117.140240
Potential:     -126.202004
External:        +0.000000
XC:            -182.452511
Entropy (-ST):   -0.000394
Local:           +3.069896
--------------------------
Free energy:   -188.444773
Extrapolated:  -188.444576

Fermi level: -4.17196

 Band  Eigenvalues  Occupancy
    0    -22.46331    2.00000
    1    -21.66528    2.00000
    2    -21.66431    2.00000
    3    -20.54175    2.00000
    4    -20.53781    2.00000
    5    -19.83010    2.00000
    6    -19.43151    2.00000
    7    -18.85306    2.00000
    8    -18.00470    2.00000
    9    -17.99829    2.00000
   10    -17.65649    2.00000
   11    -17.64965    2.00000
   12    -15.65810    2.00000
   13    -15.65099    2.00000
   14    -15.08957    2.00000
   15    -14.84670    2.00000
   16    -14.84330    2.00000
   17    -13.29938    2.00000
   18    -12.51469    2.00000
   19    -12.47994    2.00000
   20    -12.46280    2.00000
   21    -12.43643    2.00000
   22    -12.11275    2.00000
   23    -11.36539    2.00000
   24    -11.35759    2.00000
   25    -10.83823    2.00000
   26    -10.82915    2.00000
   27    -10.36545    2.00000
   28     -9.76135    2.00000
   29     -9.50023    2.00000
   30     -9.49765    2.00000
   31     -9.35870    2.00000
   32     -9.34806    2.00000
   33     -8.28764    2.00000
   34     -8.28284    2.00000
   35     -7.82228    2.00000
   36     -6.89957    2.00000
   37     -6.69374    2.00000
   38     -6.49342    2.00000
   39     -6.41728    2.00000
   40     -6.41603    2.00000
   41     -6.29295    2.00000
   42     -6.29097    2.00000
   43     -6.17935    2.00000
   44     -6.16935    2.00000
   45     -6.13805    2.00000
   46     -5.17611    1.99991
   47     -5.17419    1.99991
   48     -3.17580    0.00009
   49     -3.09453    0.00004
   50     -3.08768    0.00004
   51     -2.64530    0.00000
   52     -2.45837    0.00000
   53     -2.45142    0.00000
   54     -2.19827    0.00000
   55     -2.19530    0.00000
   56     -1.06640    0.00000
   57     -1.05474    0.00000
   58     -0.90267    0.00000
   59      0.60291    0.00000
   60      1.57362    0.00000
   61      2.22745    0.00000
   62      2.24343    0.00000
   63      4.04246    0.00000
   64      4.36022    0.00000
   65      4.37580    0.00000
   66      5.36504    0.00000
   67      5.39737    0.00000
   68      5.51491    0.00000
   69      5.52995    0.00000
   70      5.58742    0.00000
   71      6.00626    0.00000
   72      7.01505    0.00000
   73      7.03260    0.00000
   74      7.23663    0.00000
   75      7.29158    0.00000
   76      7.31388    0.00000
   77      7.88331    0.00000
   78      7.89972    0.00000
   79      8.23718    0.00000
   80      8.37948    0.00000
   81      9.16792    0.00000
   82      9.17167    0.00000
   83      9.36500    0.00000
   84      9.37080    0.00000
   85      9.38446    0.00000
   86      9.38805    0.00000
   87      9.49637    0.00000
   88      9.83550    0.00000
   89      9.83811    0.00000
   90      9.96445    0.00000
   91      9.97541    0.00000
   92      9.97689    0.00000
   93     10.25004    0.00000
   94     10.52325    0.00000
   95     10.52527    0.00000
   96     10.55458    0.00000
   97     10.88113    0.00000


Forces in eV/Ang:
  0 C     0.03225    0.01027   -0.02846
  1 C    -0.01116    0.01218    0.00691
  2 C     0.01028    0.00487    0.02263
  3 C     0.01369   -0.02357    0.01202
  4 C    -0.00198   -0.00931   -0.00616
  5 C    -0.02993    0.01883   -0.00758
  6 C    -0.00153   -0.00127    0.02601
  7 C    -0.00359    0.01198   -0.03696
  8 C    -0.01211    0.02924   -0.05107
  9 C     0.00664   -0.01895    0.03118
 10 C    -0.01093    0.00156    0.04295
 11 C    -0.00515    0.00914   -0.01257
 12 C     0.02048   -0.02716   -0.03884
 13 C    -0.07824    0.04586    0.01793
 14 C     0.03186   -0.00499    0.02727
 15 C     0.01556    0.00117    0.02124
 16 C    -0.02244    0.00563   -0.01241
 17 C     0.00890   -0.00798   -0.02470
 18 C     0.01017   -0.02476   -0.01068
 19 C     0.00767   -0.00126   -0.02084
 20 C     0.00138   -0.00141   -0.01059
 21 C     0.03329   -0.02572    0.05688
 22 C    -0.03598   -0.00070    0.05676
 23 C    -0.02276   -0.01623   -0.03805

