
  ___ ___ ___ _ _ _  
 |   |   |_  | | | | 
 | | | | | . | | | | 
 |__ |  _|___|_____|  1.3.0b1
 |___|_|             

User:   esb@s65n22.grendel.cscaa.dk
Date:   Thu Nov  9 11:13:10 2017
Arch:   x86_64
Pid:    69291
Python: 2.7.13
gpaw:   /home/esb/DFT/gpaw_git/gpaw
_gpaw:  /home/esb/DFT/gpaw_git/build/bin.linux-x86_64-2.7/gpaw-python
ase:    /home/esb/DFT/ase_git/ase (version 3.15.0b1)
numpy:  /comm/swstack/core/python/2.7.13/lib/python2.7/site-packages/numpy (version 1.13.3)
scipy:  /comm/swstack/core/python/2.7.13/lib/python2.7/site-packages/scipy (version 0.19.1)
units:  Angstrom and eV
cores:  16
Extra parameters: {'blacs': True}

Input parameters:
  basis: dzp
  gpts: [80 80 48]
  kpts: [1 1 1]
  maxiter: 99
  mixer: {backend: pulay,
          beta: 0.05,
          method: separate,
          nmaxold: 5,
          weight: 75}
  mode: lcao
  nbands: -50
  occupations: {name: fermi-dirac,
                width: 0.1}
  poissonsolver: {eps: 1e-07,
                  name: fd,
                  nn: 3,
                  relax: GS}
  xc: PBE

System changes: positions, numbers, cell, pbc, initial_charges, initial_magmoms 

Initialize ...

C-setup:
  name: Carbon
  id: 4aa54d4b901d75f77cc0ea3eec22967b
  Z: 6
  valence: 4
  core: 2
  charge: 0.0
  file: /home/esb/DFT/gpaw-setups-0.8.7929/C.PBE.gz
  cutoffs: 0.64(comp), 1.14(filt), 1.14(core), lmax=2
  valence states:
                energy  radius
    2s(2.00)   -13.751   0.635
    2p(2.00)    -5.284   0.635
    *s          13.461   0.635
    *p          21.927   0.635
    *d           0.000   0.635

  LCAO basis set for C:
    Name: dzp
    File: /home/esb/DFT/gpaw-setups-0.8.7929/C.dzp.basis.gz
    Number of radial functions: 5
    Number of spherical harmonics: 13
      l=0, rc=5.5469 Bohr: 2s-sz confined orbital
      l=1, rc=6.6719 Bohr: 2p-sz confined orbital
      l=0, rc=3.0312 Bohr: 2s-dz split-valence wave
      l=1, rc=3.7500 Bohr: 2p-dz split-valence wave
      l=2, rc=6.6719 Bohr: d-type Gaussian polarization

Reference energy: -24663.074771

Spin-paired calculation

Occupation numbers:
  Fermi-Dirac: width=0.1000 eV

Convergence criteria:
  Maximum total energy change: 0.0005 eV / electron
  Maximum integral of absolute density change: 0.0001 electrons
  Maximum integral of absolute eigenstate change: 4e-08 eV^2
  Maximum number of iterations: 99

Symmetries present (total): 1

  ( 1  0  0)
  ( 0  1  0)
  ( 0  0  1)

1 k-point (Gamma)
1 k-point in the irreducible part of the Brillouin zone
       k-points in crystal coordinates                weights
   0:     0.00000000    0.00000000    0.00000000          1/1

Wave functions: LCAO
  Diagonalizer: Serial LAPACK
  Atomic Correction: dense with blas
  Datatype: float
  Eigensolver: None 

LCAO using direct dense diagonalizer 

Densities:
  Coarse grid: 80*80*48 grid
  Fine grid: 160*160*96 grid
  Total Charge: 0.000000 

Density mixing:
  Method: separate
  Backend: pulay
  Linear mixing parameter: 0.05
  Mixing with 5 old densities
  Damping of long wave oscillations: 75 

Hamiltonian:
  XC and Coulomb potentials evaluated on a 160*160*96 grid
  Using the PBE Exchange-Correlation functional
  Interpolation: tri-quintic (5. degree polynomial)
  Poisson solver: Gauss-Seidel solver with 6 multi-grid levels
    Coarsest grid: 5 x 5 x 3 points
    Stencil: 6*3+1=19 point O(h^6) finite-difference Laplacian
    Max iterations: 1000
    Tolerance: 1.000000e-07 

Memory estimate:
  Process memory now: 77.55 MiB
  Calculator: 15.59 MiB
    Density: 6.13 MiB
      Arrays: 3.81 MiB
      Localized functions: 0.86 MiB
      Mixer: 1.46 MiB
    Hamiltonian: 5.40 MiB
      Arrays: 2.49 MiB
      XC: 0.00 MiB
      Poisson: 2.85 MiB
      vbar: 0.07 MiB
    Wavefunctions: 4.05 MiB
      C [qnM]: 0.23 MiB
      S, T [2 x qmm]: 1.49 MiB
      P [aqMi]: 0.01 MiB
      TCI: 0.00 MiB
      BasisFunctions: 2.33 MiB
      Eigensolver: 0.00 MiB

Total number of cores used: 16
Domain decomposition: 2 x 4 x 2

Number of atoms: 24
Number of atomic orbitals: 312
Number of bands in calculation: 98
Bands to converge: occupied states only
Number of valence electrons: 96

... initialized

Initializing position-dependent things.

Density initialized from atomic densities
           .--------------------------------------.  
          /|                                      |  
         / |                                      |  
        /  |                                      |  
       /   |                                      |  
      /    |                                      |  
     /     |                                      |  
    /      |          C                           |  
   /       |       C        C C                   |  
  /        |     C                                |  
 *         |  C     C     C                       |  
 |         | C     C     C  C  C  C               |  
 |         .---C-------C--C-----C-----------------.  
 |        /    C             C                   /   
 |       /       C        C                     /    
 |      /              C                       /     
 |     /                                      /      
 |    /                                      /       
 |   /                                      /        
 |  /                                      /         
 | /                                      /          
 |/                                      /           
 *--------------------------------------*            

Positions:
   0 C      5.548347    3.356786    4.939193
   1 C      4.509351    4.021253    5.177771
   2 C      4.436854    5.364954    5.565157
   3 C      5.792656    6.002502    5.695625
   4 C      3.396027    6.249711    5.869571
   5 C      6.081774   10.034463    6.912614
   6 C      8.658455    9.887700    6.722931
   7 C      4.949593    9.500842    6.807264
   8 C      9.694564    9.229946    6.455859
   9 C      4.661639    8.191085    6.405778
  10 C      5.903413    7.396757    6.106901
  11 C      3.487354    7.449353    6.229489
  12 C      8.506659    2.388800    4.957102
  13 C      7.328004    6.296022    4.857131
  14 C     11.696070    7.853692    4.825233
  15 C      9.563954    3.231182    5.000110
  16 C     10.366456    8.193381    4.803702
  17 C      7.592231   10.028324    4.760504
  18 C     10.182441    4.327776    4.981103
  19 C      7.766382    8.661297    4.790218
  20 C      9.019146    7.923105    4.803826
  21 C     11.085112    6.648478    4.874300
  22 C      8.772627    6.485049    4.860486
  23 C     10.027241    5.726528    4.910660

Unit cell:
           periodic     x           y           z      points  spacing
  1. axis:    yes   16.000000    0.000000    0.000000    80     0.2000
  2. axis:    yes    0.000000   16.000000    0.000000    80     0.2000
  3. axis:    yes    0.000000    0.000000   10.000000    48     0.2083

Effective grid spacing dv^(1/3) = 0.2027

                     log10-error:    total        iterations:
           time      wfs    density  energy       fermi  poisson
iter:   1  11:13:12          +inf  -166.954802    2      6      
iter:   2  11:13:13         -0.86  -164.296611    3      3      
iter:   3  11:13:13         -0.91  -162.307087    3      3      
iter:   4  11:13:14         -0.99  -161.809951    2      2      
iter:   5  11:13:14         -1.02  -160.842370    32     3      
iter:   6  11:13:15         -1.15  -160.568773    3      2      
iter:   7  11:13:16         -1.21  -160.179377    4      3      
iter:   8  11:13:16         -1.46  -160.207535    3      3      
iter:   9  11:13:17         -1.62  -160.135042    3      3      
iter:  10  11:13:17         -1.76  -160.115960    3      3      
iter:  11  11:13:18         -1.90  -160.092646    3      2      
iter:  12  11:13:19         -2.06  -160.087807    3      2      
iter:  13  11:13:19         -2.17  -160.084067    3      2      
iter:  14  11:13:20         -2.38  -160.076937    3      2      
iter:  15  11:13:20         -2.58  -160.075787    3      2      
iter:  16  11:13:21         -2.73  -160.075304    3      2      
iter:  17  11:13:21         -2.81  -160.089536    3      1      
iter:  18  11:13:22         -2.98  -160.075766    3      2      
iter:  19  11:13:22         -3.20  -160.077233    2      1      
iter:  20  11:13:23         -3.31  -160.079009    2      1      
iter:  21  11:13:23         -3.44  -160.073158    2      1      
iter:  22  11:13:24         -3.53  -160.071210    2      1      
iter:  23  11:13:24         -3.69  -160.068685    2      1      
iter:  24  11:13:25         -3.98  -160.073095    2      1      
iter:  25  11:13:26         -4.05  -160.074758    2      1      

Converged after 25 iterations.

Dipole moment: (0.487672, -0.460888, -0.281642) |e|*Ang

Energy contributions relative to reference atoms: (reference = -24663.074771)

Kinetic:        +99.176603
Potential:     -106.584132
External:        +0.000000
XC:            -155.215738
Entropy (-ST):   -0.570820
Local:           +2.833919
--------------------------
Free energy:   -160.360168
Extrapolated:  -160.074758

Fermi level: -5.13285

 Band  Eigenvalues  Occupancy
    0    -24.34697    2.00000
    1    -22.09648    2.00000
    2    -21.80432    2.00000
    3    -21.32733    2.00000
    4    -20.41493    2.00000
    5    -19.99689    2.00000
    6    -19.28087    2.00000
    7    -19.07256    2.00000
    8    -18.59406    2.00000
    9    -17.95805    2.00000
   10    -17.70516    2.00000
   11    -17.38774    2.00000
   12    -17.11199    2.00000
   13    -15.70514    2.00000
   14    -15.15984    2.00000
   15    -14.86770    2.00000
   16    -14.20841    2.00000
   17    -13.74960    2.00000
   18    -12.73177    2.00000
   19    -12.50162    2.00000
   20    -12.21388    2.00000
   21    -12.02788    2.00000
   22    -11.90524    2.00000
   23    -11.64464    2.00000
   24    -10.31142    2.00000
   25     -9.90209    2.00000
   26     -9.62301    2.00000
   27     -9.52779    2.00000
   28     -9.27662    2.00000
   29     -8.72067    2.00000
   30     -8.65918    2.00000
   31     -8.47465    2.00000
   32     -8.25028    2.00000
   33     -8.11282    2.00000
   34     -7.53045    2.00000
   35     -7.15091    2.00000
   36     -7.09210    2.00000
   37     -6.88113    2.00000
   38     -6.83663    2.00000
   39     -6.63290    2.00000
   40     -6.42232    1.99999
   41     -6.18081    1.99994
   42     -6.04104    1.99977
   43     -5.99478    1.99964
   44     -5.54576    1.96831
   45     -5.35037    1.79598
   46     -5.25290    1.53721
   47     -5.22072    1.41310
   48     -5.11909    0.93128
   49     -4.91457    0.20260
   50     -4.88171    0.15012
   51     -4.41814    0.00157
   52     -4.29369    0.00045
   53     -3.87214    0.00001
   54     -3.25925    0.00000
   55     -2.40271    0.00000
   56     -2.16733    0.00000
   57     -1.98134    0.00000
   58     -1.67353    0.00000
   59     -1.23860    0.00000
   60     -0.82688    0.00000
   61     -0.73600    0.00000
   62     -0.68623    0.00000
   63     -0.40837    0.00000
   64     -0.25474    0.00000
   65     -0.08304    0.00000
   66      0.75181    0.00000
   67      1.03727    0.00000
   68      1.82018    0.00000
   69      2.34220    0.00000
   70      2.43399    0.00000
   71      3.15768    0.00000
   72      3.36806    0.00000
   73      4.03398    0.00000
   74      4.52929    0.00000
   75      5.37716    0.00000
   76      5.81701    0.00000
   77      6.27001    0.00000
   78      6.32329    0.00000
   79      6.68733    0.00000
   80      7.13557    0.00000
   81      7.24307    0.00000
   82      7.63528    0.00000
   83      7.82003    0.00000
   84      7.99411    0.00000
   85      8.45806    0.00000
   86      8.64324    0.00000
   87      8.70403    0.00000
   88      8.76602    0.00000
   89      8.81689    0.00000
   90      9.03220    0.00000
   91      9.15608    0.00000
   92      9.24611    0.00000
   93      9.41130    0.00000
   94      9.50088    0.00000
   95      9.66870    0.00000
   96      9.74967    0.00000
   97      9.78479    0.00000


Forces in eV/Ang:
  0 C     2.44493   -2.56183   -0.98991
  1 C    -1.94741    1.59577    0.50730
  2 C     1.03340   -1.43641   -0.57318
  3 C     2.74691    4.96594   -0.61640
  4 C    -0.02626   -0.88784   -0.21711
  5 C     3.60536    2.36470    0.05485
  6 C    -3.82959    1.95588   -0.12814
  7 C    -1.86314   -1.23366   -0.35315
  8 C     3.22657   -1.79648   -1.34552
  9 C     1.36017    0.69356    0.06253
 10 C    -1.18130   -3.81767   -1.56007
 11 C     0.17726    0.66185    0.36103
 12 C     0.31807   -0.42482    0.03709
 13 C    -2.84290   -0.46967    2.54229
 14 C     1.88148   -0.77085   -0.80880
 15 C    -1.51790   -2.43985    0.02244
 16 C    -0.04673    1.92595    2.47558
 17 C    -0.32143   -1.43428    1.16913
 18 C    -0.17805    3.72712   -0.14246
 19 C     0.74900    2.35212    0.41963
 20 C    -2.47068   -2.41291   -0.96635
 21 C     0.20845    0.95005    0.21391
 22 C    -2.51583    0.42436   -0.32104
 23 C     0.87751   -1.92023    0.14424

System changes: positions 

Initializing position-dependent things.

Density initialized from wave functions
           .--------------------------------------.  
          /|                                      |  
         / |                                      |  
        /  |                                      |  
       /   |                                      |  
      /    |                                      |  
     /     |                                      |  
    /      |          C                           |  
   /       |       C        C                     |  
  /        |      C           C                   |  
 *         |  C     C     C                       |  
 |         | C     C     C  C  C  C               |  
 |         .---C-------C--C-----C-----------------.  
 |        /   C              C                   /   
 |       /       C        C                     /    
 |      /              C                       /     
 |     /                                      /      
 |    /                                      /       
 |   /                                      /        
 |  /                                      /         
 | /                                      /          
 |/                                      /           
 *--------------------------------------*            

Positions:
   0 C      5.565479    3.338834    4.932256
   1 C      4.495705    4.032435    5.181325
   2 C      4.444095    5.354889    5.561141
   3 C      5.811904    6.037300    5.691305
   4 C      3.395843    6.243490    5.868050
   5 C      6.107037   10.051033    6.912998
   6 C      8.631620    9.901405    6.722033
   7 C      4.936537    9.492197    6.804790
   8 C      9.717173    9.217358    6.446431
   9 C      4.671170    8.195945    6.406217
  10 C      5.895136    7.370006    6.095970
  11 C      3.488596    7.453990    6.232019
  12 C      8.508888    2.385823    4.957362
  13 C      7.308084    6.292731    4.874946
  14 C     11.709254    7.848291    4.819566
  15 C      9.553318    3.214085    5.000268
  16 C     10.366129    8.206877    4.821049
  17 C      7.589979   10.018273    4.768696
  18 C     10.181194    4.353893    4.980105
  19 C      7.771631    8.677779    4.793158
  20 C      9.001834    7.906198    4.797055
  21 C     11.086573    6.655135    4.875799
  22 C      8.754998    6.488022    4.858237
  23 C     10.033390    5.713073    4.911671

Unit cell:
           periodic     x           y           z      points  spacing
  1. axis:    yes   16.000000    0.000000    0.000000    80     0.2000
  2. axis:    yes    0.000000   16.000000    0.000000    80     0.2000
  3. axis:    yes    0.000000    0.000000   10.000000    48     0.2083

Effective grid spacing dv^(1/3) = 0.2027

                     log10-error:    total        iterations:
           time      wfs    density  energy       fermi  poisson
iter:   1  11:13:27          +inf  -161.741237    3      5      
iter:   2  11:13:28         -1.54  -161.329738    3      2      
iter:   3  11:13:29         -1.83  -161.244957    3      2      
iter:   4  11:13:29         -2.02  -161.220771    3      2      
iter:   5  11:13:30         -2.12  -161.210538    3      2      
iter:   6  11:13:30         -2.22  -161.206597    3      2      
iter:   7  11:13:31         -2.38  -161.204729    3      2      
iter:   8  11:13:31         -2.50  -161.202050    2      2      
iter:   9  11:13:32         -2.70  -161.200546    2      2      
iter:  10  11:13:32         -2.86  -161.200509    2      2      
iter:  11  11:13:33         -3.10  -161.201689    2      1      
iter:  12  11:13:34         -3.20  -161.201439    2      1      
iter:  13  11:13:34         -3.37  -161.200085    2      1      
iter:  14  11:13:35         -3.45  -161.198908    2      1      
iter:  15  11:13:35         -3.64  -161.199169    2      1      
iter:  16  11:13:36         -3.86  -161.199652    2      1      
iter:  17  11:13:36         -3.94  -161.199281    2      1      
iter:  18  11:13:37         -4.11  -161.199754    2      1      

Converged after 18 iterations.

Dipole moment: (0.425764, -0.404442, -0.220932) |e|*Ang

Energy contributions relative to reference atoms: (reference = -24663.074771)

Kinetic:        +89.663836
Potential:      -99.878457
External:        +0.000000
XC:            -153.495367
Entropy (-ST):   -0.567415
Local:           +2.793942
--------------------------
Free energy:   -161.483462
Extrapolated:  -161.199754

Fermi level: -5.11055

 Band  Eigenvalues  Occupancy
    0    -24.19205    2.00000
    1    -22.16036    2.00000
    2    -21.75108    2.00000
    3    -21.29001    2.00000
    4    -20.43814    2.00000
    5    -19.82548    2.00000
    6    -19.38795    2.00000
    7    -19.09933    2.00000
    8    -18.70400    2.00000
    9    -17.89659    2.00000
   10    -17.54776    2.00000
   11    -17.25911    2.00000
   12    -17.02129    2.00000
   13    -15.72494    2.00000
   14    -15.10420    2.00000
   15    -14.84654    2.00000
   16    -14.25749    2.00000
   17    -13.66384    2.00000
   18    -12.87039    2.00000
   19    -12.61151    2.00000
   20    -12.17274    2.00000
   21    -12.00188    2.00000
   22    -11.89430    2.00000
   23    -11.60606    2.00000
   24    -10.51975    2.00000
   25    -10.00810    2.00000
   26     -9.63449    2.00000
   27     -9.57388    2.00000
   28     -9.34741    2.00000
   29     -8.73197    2.00000
   30     -8.55356    2.00000
   31     -8.41362    2.00000
   32     -8.21833    2.00000
   33     -8.00021    2.00000
   34     -7.60772    2.00000
   35     -7.13273    2.00000
   36     -7.05840    2.00000
   37     -6.83107    2.00000
   38     -6.80060    2.00000
   39     -6.69062    2.00000
   40     -6.39863    1.99999
   41     -6.17064    1.99995
   42     -6.06208    1.99985
   43     -5.99241    1.99970
   44     -5.58491    1.98274
   45     -5.33220    1.80344
   46     -5.23073    1.53771
   47     -5.17859    1.32765
   48     -5.11112    1.00284
   49     -4.89005    0.19860
   50     -4.85641    0.14601
   51     -4.37499    0.00128
   52     -4.19893    0.00022
   53     -3.76500    0.00000
   54     -3.22367    0.00000
   55     -2.45063    0.00000
   56     -2.14316    0.00000
   57     -1.98369    0.00000
   58     -1.56277    0.00000
   59     -1.30085    0.00000
   60     -0.95770    0.00000
   61     -0.88962    0.00000
   62     -0.63374    0.00000
   63     -0.32410    0.00000
   64     -0.15888    0.00000
   65      0.08085    0.00000
   66      0.46811    0.00000
   67      0.73386    0.00000
   68      1.62739    0.00000
   69      2.10640    0.00000
   70      2.25403    0.00000
   71      3.14379    0.00000
   72      3.27690    0.00000
   73      3.88751    0.00000
   74      4.46619    0.00000
   75      5.20935    0.00000
   76      5.79989    0.00000
   77      6.11638    0.00000
   78      6.35104    0.00000
   79      6.74173    0.00000
   80      7.03186    0.00000
   81      7.42354    0.00000
   82      7.82848    0.00000
   83      7.96518    0.00000
   84      8.05802    0.00000
   85      8.45528    0.00000
   86      8.67308    0.00000
   87      8.74958    0.00000
   88      8.79650    0.00000
   89      8.95072    0.00000
   90      9.07173    0.00000
   91      9.12803    0.00000
   92      9.26005    0.00000
   93      9.42670    0.00000
   94      9.52368    0.00000
   95      9.66221    0.00000
   96      9.78787    0.00000
   97      9.82601    0.00000


Forces in eV/Ang:
  0 C     0.13009   -1.01303   -0.43651
  1 C     0.37600   -0.45986   -0.15517
  2 C     0.94994   -0.53574   -0.27765
  3 C     2.26496    3.04136   -1.17955
  4 C     0.18134   -0.08522   -0.00197
  5 C     0.95131    1.03056   -0.27812
  6 C    -0.79080    0.14700   -0.88937
  7 C     0.75308    0.48927    0.02491
  8 C     0.43802   -0.14343   -0.85330
  9 C     1.12150    0.13156   -0.05169
 10 C    -0.75653   -2.17523   -1.14822
 11 C     0.15927   -0.21186    0.07708
 12 C    -0.07910   -0.73327    0.02172
 13 C    -2.67356   -0.47105    2.63513
 14 C     1.46221   -0.64098   -0.78214
 15 C     0.32378    0.20273    0.02563
 16 C    -0.55900    1.68639    2.69627
 17 C    -0.54365   -0.69132    1.20019
 18 C    -1.30742    0.02591   -0.06544
 19 C     0.98969    1.75944    0.39252
 20 C    -1.52442   -1.76165   -0.93754
 21 C    -0.00590    0.77878    0.20266
 22 C    -2.32071   -0.15126   -0.27186
 23 C     0.35058   -0.15919    0.06154

System changes: positions 

Initializing position-dependent things.

Density initialized from wave functions
           .--------------------------------------.  
          /|                                      |  
         / |                                      |  
        /  |                                      |  
       /   |                                      |  
      /    |                                      |  
     /     |                                      |  
    /      |          C                           |  
   /       |       C        C                     |  
  /        |      C           C                   |  
 *         |  C     C     C                       |  
 |         | C     C     C  C  C  C               |  
 |         .---C-------C--C-----C-----------------.  
 |        /   C              C                   /   
 |       /       C        C                     /    
 |      /              C                       /     
 |     /                                      /      
 |    /                                      /       
 |   /                                      /        
 |  /                                      /         
 | /                                      /          
 |/                                      /           
 *--------------------------------------*            

Positions:
   0 C      5.568159    3.327940    4.927631
   1 C      4.497994    4.029160    5.180201
   2 C      4.453482    5.349078    5.558233
   3 C      5.834459    6.068359    5.680052
   4 C      3.397499    6.242166    5.867901
   5 C      6.117994   10.061970    6.910466
   6 C      8.622008    9.903945    6.713752
   7 C      4.942356    9.495963    6.804806
   8 C      9.723167    9.214947    6.437746
   9 C      4.682337    8.197578    6.405778
  10 C      5.887443    7.347631    6.084434
  11 C      3.490172    7.452437    6.232948
  12 C      8.508351    2.378802    4.957585
  13 C      7.281702    6.288102    4.900791
  14 C     11.723880    7.841912    4.811862
  15 C      9.555386    3.214479    5.000518
  16 C     10.360944    8.223597    4.847417
  17 C      7.584770   10.011029    4.780474
  18 C     10.169027    4.356388    4.979415
  19 C      7.781213    8.695431    4.797033
  20 C      8.986277    7.888488    4.787822
  21 C     11.086644    6.662893    4.877797
  22 C      8.732069    6.486884    4.855535
  23 C     10.037155    5.710442    4.912326

Unit cell:
           periodic     x           y           z      points  spacing
  1. axis:    yes   16.000000    0.000000    0.000000    80     0.2000
  2. axis:    yes    0.000000   16.000000    0.000000    80     0.2000
  3. axis:    yes    0.000000    0.000000   10.000000    48     0.2083

Effective grid spacing dv^(1/3) = 0.2027

                     log10-error:    total        iterations:
           time      wfs    density  energy       fermi  poisson
iter:   1  11:13:39          +inf  -162.278129    3      5      
iter:   2  11:13:39         -1.67  -162.009874    3      2      
iter:   3  11:13:40         -1.93  -161.938532    3      2      
iter:   4  11:13:40         -2.16  -161.923960    2      2      
iter:   5  11:13:41         -2.25  -161.913692    3      2      
iter:   6  11:13:41         -2.40  -161.911275    3      2      
iter:   7  11:13:42         -2.51  -161.910436    2      2      
iter:   8  11:13:43         -2.63  -161.908750    2      2      
iter:   9  11:13:43         -2.78  -161.907177    2      2      
iter:  10  11:13:44         -3.00  -161.907347    2      2      
iter:  11  11:13:44         -3.16  -161.906670    2      1      
iter:  12  11:13:45         -3.31  -161.907297    2      1      
iter:  13  11:13:45         -3.43  -161.907601    2      1      
iter:  14  11:13:46         -3.56  -161.907428    2      1      
iter:  15  11:13:46         -3.67  -161.907510    2      1      
iter:  16  11:13:47         -3.75  -161.908027    2      1      
iter:  17  11:13:47         -4.01  -161.908075    2      1      

Converged after 17 iterations.

Dipole moment: (0.403671, -0.419671, -0.193224) |e|*Ang

Energy contributions relative to reference atoms: (reference = -24663.074771)

Kinetic:        +88.257761
Potential:      -99.022805
External:        +0.000000
XC:            -153.672108
Entropy (-ST):   -0.548854
Local:           +2.803504
--------------------------
Free energy:   -162.182502
Extrapolated:  -161.908075

Fermi level: -5.09380

 Band  Eigenvalues  Occupancy
    0    -24.01897    2.00000
    1    -22.23477    2.00000
    2    -21.67087    2.00000
    3    -21.27271    2.00000
    4    -20.39472    2.00000
    5    -19.85879    2.00000
    6    -19.62428    2.00000
    7    -19.09468    2.00000
    8    -18.77268    2.00000
    9    -17.86419    2.00000
   10    -17.47911    2.00000
   11    -17.21898    2.00000
   12    -16.97137    2.00000
   13    -15.78335    2.00000
   14    -15.06180    2.00000
   15    -14.87996    2.00000
   16    -14.34189    2.00000
   17    -13.57557    2.00000
   18    -12.89989    2.00000
   19    -12.65857    2.00000
   20    -12.09955    2.00000
   21    -11.96250    2.00000
   22    -11.83125    2.00000
   23    -11.54477    2.00000
   24    -10.73580    2.00000
   25    -10.10026    2.00000
   26     -9.68164    2.00000
   27     -9.64853    2.00000
   28     -9.32780    2.00000
   29     -8.72575    2.00000
   30     -8.54090    2.00000
   31     -8.40057    2.00000
   32     -8.21755    2.00000
   33     -7.97145    2.00000
   34     -7.69984    2.00000
   35     -7.16062    2.00000
   36     -7.06350    2.00000
   37     -6.84903    2.00000
   38     -6.81058    2.00000
   39     -6.74808    2.00000
   40     -6.40233    2.00000
   41     -6.17036    1.99996
   42     -6.09456    1.99991
   43     -5.97306    1.99970
   44     -5.62691    1.99037
   45     -5.34189    1.84558
   46     -5.21586    1.54431
   47     -5.14983    1.27303
   48     -5.09973    1.02962
   49     -4.86819    0.18964
   50     -4.82445    0.12671
   51     -4.33931    0.00106
   52     -4.12541    0.00012
   53     -3.70403    0.00000
   54     -3.17806    0.00000
   55     -2.45766    0.00000
   56     -2.09647    0.00000
   57     -1.92261    0.00000
   58     -1.48689    0.00000
   59     -1.25476    0.00000
   60     -0.98037    0.00000
   61     -0.82714    0.00000
   62     -0.54878    0.00000
   63     -0.33285    0.00000
   64     -0.06785    0.00000
   65      0.33398    0.00000
   66      0.50162    0.00000
   67      0.66866    0.00000
   68      1.60298    0.00000
   69      2.04285    0.00000
   70      2.35119    0.00000
   71      3.10120    0.00000
   72      3.26320    0.00000
   73      3.82333    0.00000
   74      4.40972    0.00000
   75      4.93705    0.00000
   76      5.76494    0.00000
   77      6.04722    0.00000
   78      6.32354    0.00000
   79      6.85552    0.00000
   80      6.87638    0.00000
   81      7.54149    0.00000
   82      7.90340    0.00000
   83      8.00699    0.00000
   84      8.18952    0.00000
   85      8.43851    0.00000
   86      8.66629    0.00000
   87      8.74047    0.00000
   88      8.80930    0.00000
   89      9.01091    0.00000
   90      9.10428    0.00000
   91      9.12792    0.00000
   92      9.22425    0.00000
   93      9.42374    0.00000
   94      9.53414    0.00000
   95      9.63870    0.00000
   96      9.80577    0.00000
   97      9.88869    0.00000


Forces in eV/Ang:
  0 C    -0.04255   -0.87182   -0.39837
  1 C     0.64586   -0.45996   -0.13944
  2 C     0.73874   -0.25351   -0.19108
  3 C     1.64622    0.53077   -1.84156
  4 C     0.44801   -0.32091   -0.07113
  5 C     0.58420    0.84037   -0.32974
  6 C    -0.01068   -0.29664   -1.11981
  7 C     1.02406    0.40884    0.00069
  8 C    -0.08934    0.14712   -0.95793
  9 C     0.92646    0.04963   -0.05058
 10 C    -0.45729    0.11190   -0.51699
 11 C     0.39262   -0.02278    0.11332
 12 C     0.19398   -0.48245    0.03856
 13 C    -2.32542   -0.48842    2.60506
 14 C     0.79565   -0.38882   -0.71769
 15 C    -0.06308   -0.29192    0.03273
 16 C    -0.60691    1.48142    2.91275
 17 C    -0.67328    0.09472    1.26603
 18 C    -1.13412    0.13734   -0.08677
 19 C     1.23635    1.00812    0.38697
 20 C    -1.03188   -1.09654   -0.93566
 21 C    -0.25277    0.59655    0.20858
 22 C    -2.08700   -0.56827   -0.21412
 23 C    -0.00500    0.22468    0.03537

System changes: positions 

Initializing position-dependent things.

Density initialized from wave functions
           .--------------------------------------.  
          /|                                      |  
         / |                                      |  
        /  |                                      |  
       /   |                                      |  
      /    |                                      |  
     /     |                                      |  
    /      |          C                           |  
   /       |       C        C                     |  
  /        |      C           C                   |  
 *         |  C     C     C                       |  
 |         | C     C     C  C  C   C              |  
 |         .---C-------C--C-----C-----------------.  
 |        /   C             CC                   /   
 |       /       C        C                     /    
 |      /              C                       /     
 |     /                                      /      
 |    /                                      /       
 |   /                                      /        
 |  /                                      /         
 | /                                      /          
 |/                                      /           
 *--------------------------------------*            

Positions:
   0 C      5.570886    3.315996    4.922417
   1 C      4.501800    4.026543    5.179423
   2 C      4.462283    5.344550    5.555554
   3 C      5.854742    6.081873    5.661530
   4 C      3.401699    6.238082    5.866985
   5 C      6.128550   10.073400    6.907296
   6 C      8.616534    9.903773    6.702646
   7 C      4.950028    9.498585    6.804399
   8 C      9.726690    9.213957    6.426648
   9 C      4.693394    8.198993    6.405350
  10 C      5.881186    7.342113    6.076837
  11 C      3.494099    7.452863    6.234489
  12 C      8.510441    2.373266    4.958000
  13 C      7.254771    6.282679    4.929865
  14 C     11.734676    7.836881    4.803671
  15 C      9.553221    3.208995    5.000865
  16 C     10.354888    8.240881    4.879263
  17 C      7.577785   10.009542    4.794454
  18 C     10.157374    4.362240    4.978395
  19 C      7.794228    8.708992    4.801404
  20 C      8.972554    7.874046    4.777321
  21 C     11.084594    6.670152    4.880131
  22 C      8.708010    6.482104    4.852961
  23 C     10.038485    5.709993    4.912878

Unit cell:
           periodic     x           y           z      points  spacing
  1. axis:    yes   16.000000    0.000000    0.000000    80     0.2000
  2. axis:    yes    0.000000   16.000000    0.000000    80     0.2000
  3. axis:    yes    0.000000    0.000000   10.000000    48     0.2083

Effective grid spacing dv^(1/3) = 0.2027

                     log10-error:    total        iterations:
           time      wfs    density  energy       fermi  poisson
iter:   1  11:13:49          +inf  -162.720758    3      5      
iter:   2  11:13:50         -1.74  -162.560748    3      2      
iter:   3  11:13:50         -2.02  -162.508616    3      2      
iter:   4  11:13:51         -2.25  -162.498981    3      2      
iter:   5  11:13:52         -2.39  -162.495385    2      2      
iter:   6  11:13:52         -2.48  -162.493985    3      2      
iter:   7  11:13:53         -2.60  -162.493287    2      2      
iter:   8  11:13:53         -2.74  -162.491741    2      2      
iter:   9  11:13:54         -2.91  -162.491020    2      2      
iter:  10  11:13:54         -3.09  -162.491208    2      2      
iter:  11  11:13:55         -3.29  -162.491060    2      1      
iter:  12  11:13:55         -3.44  -162.491388    2      1      
iter:  13  11:13:56         -3.60  -162.491499    2      1      
iter:  14  11:13:57         -3.70  -162.491374    2      1      
iter:  15  11:13:57         -3.84  -162.491280    2      1      
iter:  16  11:13:58         -3.97  -162.491393    2      1      
iter:  17  11:13:58         -4.08  -162.491508    2      1      

Converged after 17 iterations.

Dipole moment: (0.382731, -0.406210, -0.181477) |e|*Ang

Energy contributions relative to reference atoms: (reference = -24663.074771)

Kinetic:        +86.316753
Potential:      -97.604818
External:        +0.000000
XC:            -153.739328
Entropy (-ST):   -0.540997
Local:           +2.806384
--------------------------
Free energy:   -162.762006
Extrapolated:  -162.491508

Fermi level: -5.08204

 Band  Eigenvalues  Occupancy
    0    -23.87735    2.00000
    1    -22.31201    2.00000
    2    -21.60465    2.00000
    3    -21.25820    2.00000
    4    -20.40248    2.00000
    5    -19.99082    2.00000
    6    -19.68427    2.00000
    7    -19.07548    2.00000
    8    -18.80512    2.00000
    9    -17.83762    2.00000
   10    -17.43993    2.00000
   11    -17.19233    2.00000
   12    -16.93072    2.00000
   13    -15.83194    2.00000
   14    -15.05546    2.00000
   15    -14.90963    2.00000
   16    -14.44104    2.00000
   17    -13.56220    2.00000
   18    -12.94593    2.00000
   19    -12.69382    2.00000
   20    -12.04516    2.00000
   21    -11.94025    2.00000
   22    -11.78403    2.00000
   23    -11.51211    2.00000
   24    -10.90142    2.00000
   25    -10.20242    2.00000
   26     -9.79694    2.00000
   27     -9.66784    2.00000
   28     -9.29131    2.00000
   29     -8.73776    2.00000
   30     -8.53201    2.00000
   31     -8.38257    2.00000
   32     -8.24101    2.00000
   33     -7.96142    2.00000
   34     -7.74723    2.00000
   35     -7.17362    2.00000
   36     -7.07219    2.00000
   37     -6.84709    2.00000
   38     -6.81656    2.00000
   39     -6.76745    2.00000
   40     -6.39703    2.00000
   41     -6.16523    1.99996
   42     -6.09943    1.99992
   43     -5.97963    1.99975
   44     -5.65282    1.99338
   45     -5.33930    1.85815
   46     -5.21147    1.56975
   47     -5.12687    1.22045
   48     -5.09135    1.04650
   49     -4.86396    0.20297
   50     -4.79575    0.10804
   51     -4.32625    0.00104
   52     -4.06761    0.00008
   53     -3.64335    0.00000
   54     -3.16101    0.00000
   55     -2.46649    0.00000
   56     -2.07578    0.00000
   57     -1.90606    0.00000
   58     -1.44366    0.00000
   59     -1.21904    0.00000
   60     -0.99884    0.00000
   61     -0.78171    0.00000
   62     -0.47945    0.00000
   63     -0.30679    0.00000
   64     -0.01632    0.00000
   65      0.36350    0.00000
   66      0.63139    0.00000
   67      0.74933    0.00000
   68      1.61575    0.00000
   69      2.01234    0.00000
   70      2.46901    0.00000
   71      3.04142    0.00000
   72      3.26145    0.00000
   73      3.74619    0.00000
   74      4.35095    0.00000
   75      4.71777    0.00000
   76      5.71669    0.00000
   77      6.11994    0.00000
   78      6.28341    0.00000
   79      6.76199    0.00000
   80      6.94100    0.00000
   81      7.62653    0.00000
   82      7.93463    0.00000
   83      8.05246    0.00000
   84      8.23555    0.00000
   85      8.42975    0.00000
   86      8.67325    0.00000
   87      8.74826    0.00000
   88      8.82014    0.00000
   89      8.91802    0.00000
   90      9.10625    0.00000
   91      9.13898    0.00000
   92      9.21186    0.00000
   93      9.42969    0.00000
   94      9.52613    0.00000
   95      9.62850    0.00000
   96      9.82047    0.00000
   97      9.92422    0.00000


Forces in eV/Ang:
  0 C    -0.23978   -0.72824   -0.36388
  1 C     0.88902   -0.56756   -0.16263
  2 C     0.59209   -0.14037   -0.20496
  3 C     1.09003   -0.54473   -1.91943
  4 C     0.61941   -0.11164    0.00700
  5 C     0.23920    0.72113   -0.36651
  6 C     0.50434   -0.57091   -1.28766
  7 C     1.26313    0.46114    0.02763
  8 C    -0.33511    0.24226   -1.12556
  9 C     0.74382    0.02212   -0.08321
 10 C    -0.21655    1.00906   -0.25710
 11 C     0.50104   -0.24854    0.03723
 12 C     0.13017   -0.52665    0.03724
 13 C    -1.73881   -0.46602    2.46541
 14 C     0.27700   -0.22860   -0.62412
 15 C     0.16875    0.01885    0.03427
 16 C    -0.69143    1.29652    3.10057
 17 C    -0.73387    0.51404    1.32918
 18 C    -1.23589   -0.29693   -0.08895
 19 C     1.32252    0.63743    0.41029
 20 C    -0.70930   -0.68858   -0.87550
 21 C    -0.39635    0.52633    0.20606
 22 C    -1.93397   -0.74347   -0.20748
 23 C    -0.32124    0.46227    0.02333

System changes: positions 

Initializing position-dependent things.

Density initialized from wave functions
           .--------------------------------------.  
          /|                                      |  
         / |                                      |  
        /  |                                      |  
       /   |                                      |  
      /    |                                      |  
     /     |                                      |  
    /      |          C                           |  
   /       |       C        C                     |  
  /        |      C           C                   |  
 *         |  C     C     C                       |  
 |         | C     C     C  C  C   C              |  
 |         .---C-------C--C-----C-----------------.  
 |        /   C             CC                   /   
 |       /       C        C                     /    
 |      /              C                       /     
 |     /                                      /      
 |    /                                      /       
 |   /                                      /        
 |  /                                      /         
 | /                                      /          
 |/                                      /           
 *--------------------------------------*            

Positions:
   0 C      5.573348    3.303630    4.916826
   1 C      4.506652    4.023838    5.178722
   2 C      4.470472    5.339939    5.552218
   3 C      5.871619    6.089816    5.642328
   4 C      3.407496    6.235900    5.866842
   5 C      6.138279   10.085432    6.903798
   6 C      8.613180    9.902426    6.689797
   7 C      4.958781    9.501025    6.804067
   8 C      9.730340    9.212449    6.412833
   9 C      4.703667    8.200684    6.404605
  10 C      5.876390    7.341294    6.070285
  11 C      3.499109    7.451078    6.235417
  12 C      8.511773    2.366652    4.958410
  13 C      7.231763    6.277163    4.959372
  14 C     11.741873    7.832772    4.795828
  15 C      9.552943    3.205719    5.001239
  16 C     10.347890    8.257793    4.914829
  17 C      7.570012   10.010802    4.809945
  18 C     10.144233    4.365835    4.977269
  19 C      7.808516    8.721005    4.806352
  20 C      8.960045    7.861604    4.766747
  21 C     11.081370    6.677537    4.882592
  22 C      8.683495    6.476118    4.850160
  23 C     10.037350    5.710401    4.913428

Unit cell:
           periodic     x           y           z      points  spacing
  1. axis:    yes   16.000000    0.000000    0.000000    80     0.2000
  2. axis:    yes    0.000000   16.000000    0.000000    80     0.2000
  3. axis:    yes    0.000000    0.000000   10.000000    48     0.2083

Effective grid spacing dv^(1/3) = 0.2027

                     log10-error:    total        iterations:
           time      wfs    density  energy       fermi  poisson
iter:   1  11:14:00          +inf  -163.211479    3      5      
iter:   2  11:14:01         -1.78  -163.090440    3      2      
iter:   3  11:14:01         -2.06  -163.046707    3      2      
iter:   4  11:14:02         -2.28  -163.039868    3      2      
iter:   5  11:14:02         -2.39  -163.035704    2      2      
iter:   6  11:14:03         -2.51  -163.034247    2      2      
iter:   7  11:14:03         -2.67  -163.033972    2      2      
iter:   8  11:14:04         -2.79  -163.032615    2      2      
iter:   9  11:14:05         -2.97  -163.031802    2      2      
iter:  10  11:14:05         -3.17  -163.030638    2      1      
iter:  11  11:14:06         -3.36  -163.032148    2      1      
iter:  12  11:14:06         -3.54  -163.032675    2      1      
iter:  13  11:14:07         -3.62  -163.032301    2      1      
iter:  14  11:14:07         -3.77  -163.032105    2      1      
iter:  15  11:14:08         -3.94  -163.032240    2      1      
iter:  16  11:14:08         -4.05  -163.032439    2      1      

Converged after 16 iterations.

Dipole moment: (0.371809, -0.396233, -0.177672) |e|*Ang

Energy contributions relative to reference atoms: (reference = -24663.074771)

Kinetic:        +84.917642
Potential:      -96.565492
External:        +0.000000
XC:            -153.928538
Entropy (-ST):   -0.528330
Local:           +2.808114
--------------------------
Free energy:   -163.296604
Extrapolated:  -163.032439

Fermi level: -5.06335

 Band  Eigenvalues  Occupancy
    0    -23.75293    2.00000
    1    -22.39416    2.00000
    2    -21.54955    2.00000
    3    -21.24320    2.00000
    4    -20.43782    2.00000
    5    -20.12204    2.00000
    6    -19.69456    2.00000
    7    -19.05674    2.00000
    8    -18.81729    2.00000
    9    -17.82327    2.00000
   10    -17.41433    2.00000
   11    -17.16069    2.00000
   12    -16.88668    2.00000
   13    -15.88530    2.00000
   14    -15.05615    2.00000
   15    -14.95178    2.00000
   16    -14.51055    2.00000
   17    -13.56616    2.00000
   18    -12.99405    2.00000
   19    -12.72770    2.00000
   20    -12.00372    2.00000
   21    -11.91385    2.00000
   22    -11.75696    2.00000
   23    -11.49404    2.00000
   24    -11.02024    2.00000
   25    -10.31123    2.00000
   26     -9.90576    2.00000
   27     -9.68613    2.00000
   28     -9.25912    2.00000
   29     -8.76179    2.00000
   30     -8.52717    2.00000
   31     -8.37642    2.00000
   32     -8.26582    2.00000
   33     -7.96846    2.00000
   34     -7.75883    2.00000
   35     -7.19091    2.00000
   36     -7.08572    2.00000
   37     -6.85271    2.00000
   38     -6.82344    2.00000
   39     -6.77391    2.00000
   40     -6.38786    2.00000
   41     -6.15281    1.99996
   42     -6.08619    1.99993
   43     -5.99190    1.99981
   44     -5.66670    1.99522
   45     -5.33004    1.87009
   46     -5.20734    1.61689
   47     -5.10427    1.20178
   48     -5.06541    1.01028
   49     -4.85281    0.21714
   50     -4.75516    0.08772
   51     -4.31484    0.00112
   52     -4.00894    0.00005
   53     -3.58273    0.00000
   54     -3.14550    0.00000
   55     -2.46526    0.00000
   56     -2.06918    0.00000
   57     -1.89870    0.00000
   58     -1.41862    0.00000
   59     -1.17527    0.00000
   60     -0.99690    0.00000
   61     -0.72438    0.00000
   62     -0.40280    0.00000
   63     -0.29091    0.00000
   64      0.02862    0.00000
   65      0.35996    0.00000
   66      0.63096    0.00000
   67      0.98954    0.00000
   68      1.65500    0.00000
   69      2.00790    0.00000
   70      2.60629    0.00000
   71      2.99491    0.00000
   72      3.26762    0.00000
   73      3.69256    0.00000
   74      4.30277    0.00000
   75      4.56632    0.00000
   76      5.67776    0.00000
   77      6.19472    0.00000
   78      6.24828    0.00000
   79      6.66196    0.00000
   80      7.01517    0.00000
   81      7.68942    0.00000
   82      7.94113    0.00000
   83      8.07777    0.00000
   84      8.27635    0.00000
   85      8.42743    0.00000
   86      8.65676    0.00000
   87      8.71938    0.00000
   88      8.77016    0.00000
   89      8.86423    0.00000
   90      9.10186    0.00000
   91      9.14938    0.00000
   92      9.23380    0.00000
   93      9.44410    0.00000
   94      9.51157    0.00000
   95      9.61950    0.00000
   96      9.82772    0.00000
   97      9.93845    0.00000


Forces in eV/Ang:
  0 C    -0.42501   -0.58882   -0.29411
  1 C     1.09556   -0.70465   -0.19541
  2 C     0.44658   -0.05159   -0.22867
  3 C     0.43504   -1.05913   -1.72684
  4 C     0.74285   -0.18082   -0.00323
  5 C    -0.03806    0.63133   -0.41354
  6 C     0.95874   -0.80493   -1.48186
  7 C     1.42537    0.50994    0.04518
  8 C    -0.47379    0.28427   -1.35856
  9 C     0.61257   -0.00135   -0.11513
 10 C    -0.00449    1.37033   -0.16590
 11 C     0.61265   -0.20661    0.03890
 12 C     0.20664   -0.46423    0.04002
 13 C    -1.00218   -0.38871    2.17022
 14 C    -0.16674   -0.07953   -0.48998
 15 C     0.10871   -0.03705    0.02821
 16 C    -0.78596    1.18969    3.19765
 17 C    -0.75747    0.77032    1.42387
 18 C    -1.15437   -0.35001   -0.09497
 19 C     1.29535    0.46769    0.40205
 20 C    -0.48869   -0.37607   -0.74725
 21 C    -0.52315    0.39579    0.20996
 22 C    -1.73854   -0.78709   -0.21847
 23 C    -0.53211    0.55860    0.02279

System changes: positions 

Initializing position-dependent things.

Density initialized from wave functions
           .--------------------------------------.  
          /|                                      |  
         / |                                      |  
        /  |                                      |  
       /   |                                      |  
      /    |                                      |  
     /     |                                      |  
    /      |          C                           |  
   /       |       C        C                     |  
  /        |      C           C                   |  
 *         |  C     C     C                       |  
 |         | C     C      C C  C   C              |  
 |         .---C-------C--C-----C-----------------.  
 |        /    C            CC                   /   
 |       /       C        C                     /    
 |      /              C                       /     
 |     /                                      /      
 |    /                                      /       
 |   /                                      /        
 |  /                                      /         
 | /                                      /          
 |/                                      /           
 *--------------------------------------*            

Positions:
   0 C      5.574530    3.292340    4.911884
   1 C      4.512799    4.020107    5.177778
   2 C      4.477447    5.335831    5.548596
   3 C      5.882811    6.096030    5.625999
   4 C      3.414050    6.232644    5.866457
   5 C      6.146121   10.096886    6.899962
   6 C      8.612937    9.899573    6.675516
   7 C      4.968294    9.503736    6.803848
   8 C      9.733573    9.210862    6.396962
   9 C      4.712939    8.202272    6.403598
  10 C      5.873220    7.341011    6.063824
  11 C      3.504923    7.450176    6.236512
  12 C      8.513914    2.360731    4.958841
  13 C      7.215519    6.272496    4.985721
  14 C     11.745699    7.829820    4.789274
  15 C      9.551613    3.201291    5.001536
  16 C     10.340182    8.273923    4.950612
  17 C      7.562275   10.013424    4.826157
  18 C     10.132294    4.370000    4.976097
  19 C      7.822039    8.732345    4.811130
  20 C      8.948983    7.851355    4.757526
  21 C     11.077263    6.683719    4.885077
  22 C      8.660833    6.470380    4.847210
  23 C     10.034847    5.710952    4.914017

Unit cell:
           periodic     x           y           z      points  spacing
  1. axis:    yes   16.000000    0.000000    0.000000    80     0.2000
  2. axis:    yes    0.000000   16.000000    0.000000    80     0.2000
  3. axis:    yes    0.000000    0.000000   10.000000    48     0.2083

Effective grid spacing dv^(1/3) = 0.2027

                     log10-error:    total        iterations:
           time      wfs    density  energy       fermi  poisson
iter:   1  11:14:10          +inf  -163.640470    3      5      
iter:   2  11:14:11         -1.81  -163.550156    3      2      
iter:   3  11:14:11         -2.12  -163.520065    3      2      
iter:   4  11:14:12         -2.31  -163.511696    3      1      
iter:   5  11:14:12         -2.41  -163.509020    3      2      
iter:   6  11:14:13         -2.56  -163.508626    3      2      
iter:   7  11:14:14         -2.69  -163.507839    2      2      
iter:   8  11:14:14         -2.84  -163.507314    2      2      
iter:   9  11:14:15         -2.99  -163.506354    2      2      
iter:  10  11:14:15         -3.20  -163.505698    2      1      
iter:  11  11:14:16         -3.32  -163.505942    2      1      
iter:  12  11:14:16         -3.49  -163.506602    2      1      
iter:  13  11:14:17         -3.63  -163.506885    2      1      
iter:  14  11:14:17         -3.82  -163.507252    2      1      
iter:  15  11:14:18         -3.98  -163.507288    2      1      
iter:  16  11:14:18         -4.09  -163.507123    2      1      

Converged after 16 iterations.

Dipole moment: (0.370261, -0.374139, -0.177113) |e|*Ang

Energy contributions relative to reference atoms: (reference = -24663.074771)

Kinetic:        +84.254154
Potential:      -96.053809
External:        +0.000000
XC:            -154.263997
Entropy (-ST):   -0.512602
Local:           +2.812831
--------------------------
Free energy:   -163.763424
Extrapolated:  -163.507123

Fermi level: -5.05057

 Band  Eigenvalues  Occupancy
    0    -23.65550    2.00000
    1    -22.47964    2.00000
    2    -21.50976    2.00000
    3    -21.23309    2.00000
    4    -20.50403    2.00000
    5    -20.19113    2.00000
    6    -19.70457    2.00000
    7    -19.03734    2.00000
    8    -18.83483    2.00000
    9    -17.83793    2.00000
   10    -17.41377    2.00000
   11    -17.14651    2.00000
   12    -16.85255    2.00000
   13    -15.93062    2.00000
   14    -15.07077    2.00000
   15    -14.99171    2.00000
   16    -14.54971    2.00000
   17    -13.58883    2.00000
   18    -13.04492    2.00000
   19    -12.75819    2.00000
   20    -11.98630    2.00000
   21    -11.88741    2.00000
   22    -11.76899    2.00000
   23    -11.48382    2.00000
   24    -11.09269    2.00000
   25    -10.42120    2.00000
   26     -9.99923    2.00000
   27     -9.71149    2.00000
   28     -9.23688    2.00000
   29     -8.79545    2.00000
   30     -8.52043    2.00000
   31     -8.37661    2.00000
   32     -8.27769    2.00000
   33     -7.98782    2.00000
   34     -7.74553    2.00000
   35     -7.20891    2.00000
   36     -7.09523    2.00000
   37     -6.85940    2.00000
   38     -6.82656    2.00000
   39     -6.77024    2.00000
   40     -6.38167    2.00000
   41     -6.14093    1.99996
   42     -6.07347    1.99993
   43     -6.01004    1.99986
   44     -5.67781    1.99623
   45     -5.32190    1.87562
   46     -5.21521    1.67683
   47     -5.09287    1.20842
   48     -5.03986    0.94651
   49     -4.84381    0.22458
   50     -4.72004    0.07078
   51     -4.31187    0.00124
   52     -3.95971    0.00004
   53     -3.52789    0.00000
   54     -3.13313    0.00000
   55     -2.46236    0.00000
   56     -2.06753    0.00000
   57     -1.90310    0.00000
   58     -1.39865    0.00000
   59     -1.12691    0.00000
   60     -0.98092    0.00000
   61     -0.65856    0.00000
   62     -0.32452    0.00000
   63     -0.25719    0.00000
   64      0.07402    0.00000
   65      0.36124    0.00000
   66      0.64377    0.00000
   67      1.16531    0.00000
   68      1.71586    0.00000
   69      2.02711    0.00000
   70      2.75331    0.00000
   71      2.96493    0.00000
   72      3.28408    0.00000
   73      3.66479    0.00000
   74      4.26461    0.00000
   75      4.47053    0.00000
   76      5.62382    0.00000
   77      6.20406    0.00000
   78      6.24489    0.00000
   79      6.60386    0.00000
   80      7.08412    0.00000
   81      7.71919    0.00000
   82      7.92493    0.00000
   83      8.10470    0.00000
   84      8.30147    0.00000
   85      8.38440    0.00000
   86      8.50802    0.00000
   87      8.72901    0.00000
   88      8.78377    0.00000
   89      8.88490    0.00000
   90      9.09599    0.00000
   91      9.16470    0.00000
   92      9.25961    0.00000
   93      9.46051    0.00000
   94      9.50027    0.00000
   95      9.62004    0.00000
   96      9.82966    0.00000
   97      9.94307    0.00000


Forces in eV/Ang:
  0 C    -0.45809   -0.56435   -0.27831
  1 C     1.14566   -0.71186   -0.18816
  2 C     0.33582   -0.04958   -0.27652
  3 C    -0.23240   -1.46284   -1.48600
  4 C     0.82440   -0.08215    0.03278
  5 C    -0.19970    0.59583   -0.42209
  6 C     1.28921   -0.95142   -1.65909
  7 C     1.45622    0.47632    0.02834
  8 C    -0.46375    0.21970   -1.57446
  9 C     0.52653    0.01017   -0.11639
 10 C     0.16462    1.64310   -0.10459
 11 C     0.66794   -0.32363   -0.01277
 12 C     0.18982   -0.48100    0.03890
 13 C    -0.35200   -0.30399    1.85563
 14 C    -0.53890    0.00046   -0.37742
 15 C     0.20899    0.13232    0.01878
 16 C    -0.89735    1.10834    3.29359
 17 C    -0.75632    0.91835    1.52141
 18 C    -1.17442   -0.56937   -0.08424
 19 C     1.20432    0.33279    0.37559
 20 C    -0.31854   -0.09528   -0.60563
 21 C    -0.55170    0.30870    0.22316
 22 C    -1.43362   -0.73221   -0.21027
 23 C    -0.68433    0.63417    0.01974

System changes: positions 

Initializing position-dependent things.

Density initialized from wave functions
           .--------------------------------------.  
          /|                                      |  
         / |                                      |  
        /  |                                      |  
       /   |                                      |  
      /    |                                      |  
     /     |                                      |  
    /      |          C                           |  
   /       |       C        C                     |  
  /        |      C           C                   |  
 *         |  C     C     C                       |  
 |         | C     C      C C  C   C              |  
 |         .---C------C---C-----C-----------------.  
 |        /    C            CC                   /   
 |       /       C        C                     /    
 |      /              C                       /     
 |     /                                      /      
 |    /                                      /       
 |   /                                      /        
 |  /                                      /         
 | /                                      /          
 |/                                      /           
 *--------------------------------------*            

Positions:
   0 C      5.576065    3.280921    4.906970
   1 C      4.518564    4.016817    5.177035
   2 C      4.483686    5.331412    5.544567
   3 C      5.888964    6.100736    5.612227
   4 C      3.420862    6.230299    5.866364
   5 C      6.153292   10.108215    6.896242
   6 C      8.614417    9.896143    6.660200
   7 C      4.977265    9.505856    6.803374
   8 C      9.737606    9.208331    6.379710
   9 C      4.721736    8.204066    6.402703
  10 C      5.871073    7.341364    6.057469
  11 C      3.510851    7.448304    6.237158
  12 C      8.515783    2.354636    4.959250
  13 C      7.204012    6.268602    5.009196
  14 C     11.747240    7.827198    4.783585
  15 C      9.551126    3.198343    5.001739
  16 C     10.331716    8.289497    4.986470
  17 C      7.554799   10.016374    4.842913
  18 C     10.120293    4.372605    4.975069
  19 C      7.834327    8.743071    4.815549
  20 C      8.938890    7.842923    4.749580
  21 C     11.073393    6.689280    4.887666
  22 C      8.641052    6.465687    4.844391
  23 C     10.031689    5.711689    4.914589

Unit cell:
           periodic     x           y           z      points  spacing
  1. axis:    yes   16.000000    0.000000    0.000000    80     0.2000
  2. axis:    yes    0.000000   16.000000    0.000000    80     0.2000
  3. axis:    yes    0.000000    0.000000   10.000000    48     0.2083

Effective grid spacing dv^(1/3) = 0.2027

                     log10-error:    total        iterations:
           time      wfs    density  energy       fermi  poisson
iter:   1  11:14:20          +inf  -164.042122    3      5      
iter:   2  11:14:21         -1.85  -163.970043    3      2      
iter:   3  11:14:21         -2.18  -163.949374    3      2      
iter:   4  11:14:22         -2.36  -163.941250    3      1      
iter:   5  11:14:23         -2.46  -163.939885    2      2      
iter:   6  11:14:23         -2.60  -163.939242    2      2      
iter:   7  11:14:24         -2.74  -163.938481    2      2      
iter:   8  11:14:24         -2.89  -163.938026    2      2      
iter:   9  11:14:25         -3.09  -163.935823    2      1      
iter:  10  11:14:25         -3.24  -163.936192    2      1      
iter:  11  11:14:26         -3.39  -163.937436    2      1      
iter:  12  11:14:26         -3.54  -163.937685    2      1      
iter:  13  11:14:27         -3.68  -163.937680    2      1      
iter:  14  11:14:27         -3.87  -163.938860    2      1      
iter:  15  11:14:28         -3.95  -163.938241    2      1      
iter:  16  11:14:29         -4.10  -163.937973    2      1      

Converged after 16 iterations.

Dipole moment: (0.374789, -0.354054, -0.177242) |e|*Ang

Energy contributions relative to reference atoms: (reference = -24663.074771)

Kinetic:        +83.995219
Potential:      -95.846087
External:        +0.000000
XC:            -154.660130
Entropy (-ST):   -0.492458
Local:           +2.819255
--------------------------
Free energy:   -164.184201
Extrapolated:  -163.937973

Fermi level: -5.03554

 Band  Eigenvalues  Occupancy
    0    -23.57099    2.00000
    1    -22.55629    2.00000
    2    -21.47418    2.00000
    3    -21.22284    2.00000
    4    -20.57374    2.00000
    5    -20.21788    2.00000
    6    -19.72539    2.00000
    7    -19.01929    2.00000
    8    -18.84462    2.00000
    9    -17.86999    2.00000
   10    -17.41551    2.00000
   11    -17.12871    2.00000
   12    -16.82018    2.00000
   13    -15.96606    2.00000
   14    -15.09015    2.00000
   15    -15.02192    2.00000
   16    -14.57185    2.00000
   17    -13.61798    2.00000
   18    -13.09137    2.00000
   19    -12.79074    2.00000
   20    -11.98024    2.00000
   21    -11.87477    2.00000
   22    -11.79225    2.00000
   23    -11.46395    2.00000
   24    -11.12976    2.00000
   25    -10.52401    2.00000
   26    -10.07666    2.00000
   27     -9.73661    2.00000
   28     -9.22239    2.00000
   29     -8.82524    2.00000
   30     -8.51646    2.00000
   31     -8.38428    2.00000
   32     -8.28358    2.00000
   33     -8.00774    2.00000
   34     -7.72219    2.00000
   35     -7.23163    2.00000
   36     -7.10386    2.00000
   37     -6.86954    2.00000
   38     -6.82729    2.00000
   39     -6.76412    2.00000
   40     -6.37920    2.00000
   41     -6.12692    1.99996
   42     -6.05892    1.99993
   43     -6.02165    1.99990
   44     -5.68669    1.99703
   45     -5.31287    1.88243
   46     -5.22497    1.73847
   47     -5.07904    1.21411
   48     -5.01346    0.89004
   49     -4.82651    0.22007
   50     -4.68204    0.05666
   51     -4.30750    0.00138
   52     -3.91099    0.00003
   53     -3.47943    0.00000
   54     -3.11597    0.00000
   55     -2.45759    0.00000
   56     -2.06702    0.00000
   57     -1.91380    0.00000
   58     -1.37851    0.00000
   59     -1.08763    0.00000
   60     -0.95720    0.00000
   61     -0.59147    0.00000
   62     -0.27377    0.00000
   63     -0.20477    0.00000
   64      0.13266    0.00000
   65      0.36672    0.00000
   66      0.66726    0.00000
   67      1.28287    0.00000
   68      1.78816    0.00000
   69      2.05385    0.00000
   70      2.87160    0.00000
   71      2.96438    0.00000
   72      3.33442    0.00000
   73      3.67371    0.00000
   74      4.26184    0.00000
   75      4.41932    0.00000
   76      5.56366    0.00000
   77      6.17804    0.00000
   78      6.26654    0.00000
   79      6.54575    0.00000
   80      7.12753    0.00000
   81      7.70873    0.00000
   82      7.89834    0.00000
   83      8.12052    0.00000
   84      8.25052    0.00000
   85      8.32173    0.00000
   86      8.48843    0.00000
   87      8.75360    0.00000
   88      8.80150    0.00000
   89      8.91156    0.00000
   90      9.09830    0.00000
   91      9.17862    0.00000
   92      9.28256    0.00000
   93      9.47298    0.00000
   94      9.49682    0.00000
   95      9.62436    0.00000
   96      9.82941    0.00000
   97      9.94565    0.00000


Forces in eV/Ang:
  0 C    -0.53688   -0.49597   -0.24321
  1 C     1.23417   -0.80318   -0.21405
  2 C     0.23319    0.01229   -0.27911
  3 C    -0.83533   -1.77352   -1.23838
  4 C     0.87238   -0.09095    0.04581
  5 C    -0.36311    0.58016   -0.45289
  6 C     1.58484   -1.07160   -1.86784
  7 C     1.50016    0.48402    0.02731
  8 C    -0.45576    0.16281   -1.73570
  9 C     0.43331   -0.00376   -0.11716
 10 C     0.28553    1.80314   -0.05125
 11 C     0.71515   -0.32669   -0.04104
 12 C     0.23241   -0.44028    0.04471
 13 C     0.22740   -0.19726    1.52462
 14 C    -0.87019    0.07701   -0.26416
 15 C     0.16724    0.09489    0.01058
 16 C    -0.95880    1.03516    3.32534
 17 C    -0.74303    1.04927    1.64960
 18 C    -1.11849   -0.56661   -0.07386
 19 C     1.10062    0.22502    0.34476
 20 C    -0.18583    0.16105   -0.40910
 21 C    -0.57062    0.21467    0.23320
 22 C    -1.20850   -0.67400   -0.19445
 23 C    -0.77994    0.65187    0.01635

System changes: positions 

Initializing position-dependent things.

Density initialized from wave functions
           .--------------------------------------.  
          /|                                      |  
         / |                                      |  
        /  |                                      |  
       /   |                                      |  
      /    |                                      |  
     /     |                                      |  
    /      |          C                           |  
   /       |       C        C                     |  
  /        |      C           C                   |  
 *         |  C     C     C                       |  
 |         | C     C      C C  C   C              |  
 |         .---C------C---C-----C-----------------.  
 |        /    C            CC                   /   
 |       /       C        C                     /    
 |      /              C                       /     
 |     /                                      /      
 |    /                                      /       
 |   /                                      /        
 |  /                                      /         
 | /                                      /          
 |/                                      /           
 *--------------------------------------*            

Positions:
   0 C      5.577137    3.269884    4.902269
   1 C      4.524822    4.012704    5.176017
   2 C      4.489443    5.327440    5.540651
   3 C      5.891562    6.104704    5.600311
   4 C      3.427718    6.227670    5.866313
   5 C      6.159646   10.119676    6.892274
   6 C      8.617402    9.892214    6.643337
   7 C      4.986401    9.508144    6.802901
   8 C      9.741998    9.205253    6.361628
   9 C      4.730104    8.205724    6.401866
  10 C      5.869339    7.341515    6.051156
  11 C      3.516919    7.446661    6.237644
  12 C      8.518028    2.348872    4.959721
  13 C      7.195667    6.265518    5.030482
  14 C     11.747140    7.824845    4.778559
  15 C      9.550056    3.194695    5.001883
  16 C     10.322966    8.304848    5.022356
  17 C      7.547504   10.019692    4.860731
  18 C     10.108728    4.375877    4.974142
  19 C      7.845731    8.753555    4.819710
  20 C      8.929234    7.835789    4.743160
  21 C     11.069679    6.694311    4.890344
  22 C      8.622506    6.461680    4.841721
  23 C     10.028378    5.712207    4.915141

Unit cell:
           periodic     x           y           z      points  spacing
  1. axis:    yes   16.000000    0.000000    0.000000    80     0.2000
  2. axis:    yes    0.000000   16.000000    0.000000    80     0.2000
  3. axis:    yes    0.000000    0.000000   10.000000    48     0.2083

Effective grid spacing dv^(1/3) = 0.2027

                     log10-error:    total        iterations:
           time      wfs    density  energy       fermi  poisson
iter:   1  11:14:31          +inf  -164.444612    3      5      
iter:   2  11:14:31         -1.86  -164.373658    3      2      
iter:   3  11:14:32         -2.21  -164.357873    2      2      
iter:   4  11:14:32         -2.39  -164.349771    3      1      
iter:   5  11:14:33         -2.48  -164.349376    2      2      
iter:   6  11:14:33         -2.62  -164.348259    2      2      
iter:   7  11:14:34         -2.78  -164.347765    2      2      
iter:   8  11:14:34         -2.92  -164.347421    2      2      
iter:   9  11:14:35         -3.13  -164.344985    2      1      
iter:  10  11:14:36         -3.31  -164.345955    2      1      
iter:  11  11:14:36         -3.44  -164.347416    2      1      
iter:  12  11:14:37         -3.56  -164.347468    2      1      
iter:  13  11:14:37         -3.73  -164.347880    2      1      
iter:  14  11:14:38         -3.84  -164.347604    2      1      
iter:  15  11:14:38         -3.92  -164.346936    2      1      
iter:  16  11:14:39         -4.20  -164.347294    2      1      

Converged after 16 iterations.

Dipole moment: (0.383900, -0.324905, -0.176227) |e|*Ang

Energy contributions relative to reference atoms: (reference = -24663.074771)

Kinetic:        +84.091751
Potential:      -95.910351
External:        +0.000000
XC:            -155.118938
Entropy (-ST):   -0.470832
Local:           +2.825661
--------------------------
Free energy:   -164.582710
Extrapolated:  -164.347294

Fermi level: -5.02310

 Band  Eigenvalues  Occupancy
    0    -23.50062    2.00000
    1    -22.62622    2.00000
    2    -21.44666    2.00000
    3    -21.21573    2.00000
    4    -20.63195    2.00000
    5    -20.22620    2.00000
    6    -19.75358    2.00000
    7    -19.00065    2.00000
    8    -18.85441    2.00000
    9    -17.92545    2.00000
   10    -17.42633    2.00000
   11    -17.11862    2.00000
   12    -16.79130    2.00000
   13    -15.99381    2.00000
   14    -15.12095    2.00000
   15    -15.04029    2.00000
   16    -14.58413    2.00000
   17    -13.65854    2.00000
   18    -13.13572    2.00000
   19    -12.81736    2.00000
   20    -11.99072    2.00000
   21    -11.90063    2.00000
   22    -11.78807    2.00000
   23    -11.44201    2.00000
   24    -11.15534    2.00000
   25    -10.61638    2.00000
   26    -10.14303    2.00000
   27     -9.76772    2.00000
   28     -9.21775    2.00000
   29     -8.85220    2.00000
   30     -8.51208    2.00000
   31     -8.39370    2.00000
   32     -8.28066    2.00000
   33     -8.02848    2.00000
   34     -7.69413    2.00000
   35     -7.26003    2.00000
   36     -7.10849    2.00000
   37     -6.88105    2.00000
   38     -6.82402    2.00000
   39     -6.75455    2.00000
   40     -6.38177    2.00000
   41     -6.11755    1.99996
   42     -6.05377    1.99993
   43     -6.02345    1.99991
   44     -5.69806    1.99766
   45     -5.30453    1.88689
   46     -5.24334    1.80094
   47     -5.06561    1.20942
   48     -4.99268    0.84908
   49     -4.80851    0.20943
   50     -4.64645    0.04522
   51     -4.30648    0.00154
   52     -3.86589    0.00002
   53     -3.43465    0.00000
   54     -3.09557    0.00000
   55     -2.45283    0.00000
   56     -2.07048    0.00000
   57     -1.92693    0.00000
   58     -1.35270    0.00000
   59     -1.04931    0.00000
   60     -0.92682    0.00000
   61     -0.52732    0.00000
   62     -0.24149    0.00000
   63     -0.14110    0.00000
   64      0.19982    0.00000
   65      0.37861    0.00000
   66      0.70522    0.00000
   67      1.36495    0.00000
   68      1.86677    0.00000
   69      2.08947    0.00000
   70      2.89374    0.00000
   71      3.00219    0.00000
   72      3.41160    0.00000
   73      3.72520    0.00000
   74      4.31734    0.00000
   75      4.40219    0.00000
   76      5.49350    0.00000
   77      6.15384    0.00000
   78      6.27357    0.00000
   79      6.50550    0.00000
   80      7.14448    0.00000
   81      7.62128    0.00000
   82      7.86755    0.00000
   83      8.11987    0.00000
   84      8.19625    0.00000
   85      8.32318    0.00000
   86      8.50146    0.00000
   87      8.77467    0.00000
   88      8.82045    0.00000
   89      8.93451    0.00000
   90      9.11663    0.00000
   91      9.19480    0.00000
   92      9.30088    0.00000
   93      9.48074    0.00000
   94      9.51049    0.00000
   95      9.63615    0.00000
   96      9.82877    0.00000
   97      9.94702    0.00000


Forces in eV/Ang:
  0 C    -0.55398   -0.47111   -0.22998
  1 C     1.25100   -0.81011   -0.21439
  2 C     0.15017    0.04316   -0.28216
  3 C    -1.37751   -2.06396   -1.02468
  4 C     0.88987   -0.04412    0.07553
  5 C    -0.49665    0.54988   -0.46914
  6 C     1.80053   -1.15640   -2.09083
  7 C     1.50889    0.45305    0.01274
  8 C    -0.38469    0.08484   -1.85357
  9 C     0.35915    0.00978   -0.11101
 10 C     0.38207    1.94647   -0.00002
 11 C     0.73976   -0.36749   -0.07580
 12 C     0.22226   -0.43685    0.04889
 13 C     0.69427   -0.10963    1.24258
 14 C    -1.15838    0.15672   -0.13348
 15 C     0.21689    0.19642    0.00384
 16 C    -1.04128    0.95362    3.28446
 17 C    -0.72373    1.15041    1.80453
 18 C    -1.08889   -0.71191   -0.06649
 19 C     0.99304    0.08368    0.32687
 20 C    -0.06990    0.39331   -0.26606
 21 C    -0.57328    0.10909    0.24031
 22 C    -0.86798   -0.61486   -0.18065
 23 C    -0.85249    0.71544    0.00775

System changes: positions 

Initializing position-dependent things.

Density initialized from wave functions
           .--------------------------------------.  
          /|                                      |  
         / |                                      |  
        /  |                                      |  
       /   |                                      |  
      /    |                                      |  
     /     |                                      |  
    /      |          C                           |  
   /       |       C        C                     |  
  /        |      C            C                  |  
 *         |  C     C     C                       |  
 |         | C     C      C C  C   C              |  
 |         .---C------C---C-----C-----------------.  
 |        /    C            CC                   /   
 |       /       C        C                     /    
 |      /              C                       /     
 |     /                                      /      
 |    /                                      /       
 |   /                                      /        
 |  /                                      /         
 | /                                      /          
 |/                                      /           
 *--------------------------------------*            

Positions:
   0 C      5.578483    3.258537    4.897445
   1 C      4.530864    4.008772    5.175044
   2 C      4.495019    5.323481    5.536751
   3 C      5.891501    6.107828    5.589401
   4 C      3.434466    6.225310    5.866471
   5 C      6.165637   10.131237    6.888174
   6 C      8.621049    9.888072    6.624613
   7 C      4.995479    9.510146    6.802263
   8 C      9.747418    9.201439    6.342897
   9 C      4.738389    8.207600    6.401131
  10 C      5.867778    7.341731    6.044859
  11 C      3.523033    7.444816    6.237940
  12 C      8.520108    2.342933    4.960236
  13 C      7.188969    6.262885    5.050687
  14 C     11.745854    7.822814    4.774278
  15 C      9.549400    3.191833    5.001994
  16 C     10.313547    8.320105    5.058112
  17 C      7.540285   10.023240    4.880105
  18 C     10.097121    4.378146    4.973246
  19 C      7.856543    8.763468    4.823867
  20 C      8.919742    7.829578    4.737376
  21 C     11.066132    6.698763    4.893110
  22 C      8.606132    6.458138    4.839110
  23 C     10.025011    5.713129    4.915624

Unit cell:
           periodic     x           y           z      points  spacing
  1. axis:    yes   16.000000    0.000000    0.000000    80     0.2000
  2. axis:    yes    0.000000   16.000000    0.000000    80     0.2000
  3. axis:    yes    0.000000    0.000000   10.000000    48     0.2083

Effective grid spacing dv^(1/3) = 0.2027

                     log10-error:    total        iterations:
           time      wfs    density  energy       fermi  poisson
iter:   1  11:14:41          +inf  -164.844139    3      5      
iter:   2  11:14:41         -1.86  -164.767607    3      2      
iter:   3  11:14:42         -2.23  -164.754195    2      2      
iter:   4  11:14:42         -2.41  -164.746238    2      1      
iter:   5  11:14:43         -2.50  -164.746560    2      2      
iter:   6  11:14:44         -2.64  -164.745027    2      2      
iter:   7  11:14:44         -2.81  -164.744826    2      2      
iter:   8  11:14:45         -2.95  -164.744568    2      2      
iter:   9  11:14:45         -3.17  -164.743040    2      1      
iter:  10  11:14:46         -3.31  -164.743577    2      1      
iter:  11  11:14:46         -3.47  -164.744068    2      1      
iter:  12  11:14:47         -3.58  -164.744134    2      1      
iter:  13  11:14:47         -3.79  -164.744647    2      1      
iter:  14  11:14:48         -3.94  -164.745088    2      1      
iter:  15  11:14:48         -4.08  -164.744910    2      1      

Converged after 15 iterations.

Dipole moment: (0.397813, -0.294930, -0.173719) |e|*Ang

Energy contributions relative to reference atoms: (reference = -24663.074771)

Kinetic:        +84.453951
Potential:      -96.203642
External:        +0.000000
XC:            -155.605344
Entropy (-ST):   -0.448193
Local:           +2.834222
--------------------------
Free energy:   -164.969006
Extrapolated:  -164.744910

Fermi level: -5.00721

 Band  Eigenvalues  Occupancy
    0    -23.44010    2.00000
    1    -22.68458    2.00000
    2    -21.41974    2.00000
    3    -21.21055    2.00000
    4    -20.67348    2.00000
    5    -20.22575    2.00000
    6    -19.79244    2.00000
    7    -18.98095    2.00000
    8    -18.85757    2.00000
    9    -17.99692    2.00000
   10    -17.43524    2.00000
   11    -17.10476    2.00000
   12    -16.76534    2.00000
   13    -16.01252    2.00000
   14    -15.15769    2.00000
   15    -15.05163    2.00000
   16    -14.59193    2.00000
   17    -13.70395    2.00000
   18    -13.17343    2.00000
   19    -12.84109    2.00000
   20    -12.03201    2.00000
   21    -11.92396    2.00000
   22    -11.76683    2.00000
   23    -11.41887    2.00000
   24    -11.17436    2.00000
   25    -10.68720    2.00000
   26    -10.19866    2.00000
   27     -9.80243    2.00000
   28     -9.22259    2.00000
   29     -8.87024    2.00000
   30     -8.51109    2.00000
   31     -8.40327    2.00000
   32     -8.27776    2.00000
   33     -8.04893    2.00000
   34     -7.66753    2.00000
   35     -7.29010    2.00000
   36     -7.11448    2.00000
   37     -6.89013    2.00000
   38     -6.82056    2.00000
   39     -6.74216    2.00000
   40     -6.38921    2.00000
   41     -6.11127    1.99997
   42     -6.05422    1.99994
   43     -6.01061    1.99991
   44     -5.71123    1.99825
   45     -5.29566    1.89416
   46     -5.26322    1.85650
   47     -5.04774    1.19995
   48     -4.97033    0.81767
   49     -4.78490    0.19539
   50     -4.60863    0.03648
   51     -4.30418    0.00177
   52     -3.82006    0.00001
   53     -3.39786    0.00000
   54     -3.07143    0.00000
   55     -2.44731    0.00000
   56     -2.08493    0.00000
   57     -1.93448    0.00000
   58     -1.32404    0.00000
   59     -1.01631    0.00000
   60     -0.88977    0.00000
   61     -0.46857    0.00000
   62     -0.21717    0.00000
   63     -0.08980    0.00000
   64      0.26842    0.00000
   65      0.39410    0.00000
   66      0.76216    0.00000
   67      1.42264    0.00000
   68      1.94256    0.00000
   69      2.13224    0.00000
   70      2.87692    0.00000
   71      3.02030    0.00000
   72      3.47084    0.00000
   73      3.80155    0.00000
   74      4.34432    0.00000
   75      4.57337    0.00000
   76      5.41957    0.00000
   77      6.13416    0.00000
   78      6.26874    0.00000
   79      6.47370    0.00000
   80      7.13439    0.00000
   81      7.50220    0.00000
   82      7.85305    0.00000
   83      8.11162    0.00000
   84      8.19915    0.00000
   85      8.32872    0.00000
   86      8.51843    0.00000
   87      8.79440    0.00000
   88      8.84169    0.00000
   89      8.95157    0.00000
   90      9.15316    0.00000
   91      9.21307    0.00000
   92      9.31565    0.00000
   93      9.49082    0.00000
   94      9.52977    0.00000
   95      9.65318    0.00000
   96      9.82766    0.00000
   97      9.94692    0.00000


Forces in eV/Ang:
  0 C    -0.61040   -0.40419   -0.20101
  1 C     1.31176   -0.86256   -0.23590
  2 C     0.08544    0.08617   -0.29405
  3 C    -1.84451   -2.31202   -0.84709
  4 C     0.90288   -0.01819    0.08808
  5 C    -0.62506    0.52246   -0.49611
  6 C     1.95574   -1.18948   -2.31086
  7 C     1.51772    0.43220   -0.00740
  8 C    -0.33218    0.06695   -1.79647
  9 C     0.26180    0.01218   -0.10137
 10 C     0.48036    2.04580    0.03013
 11 C     0.76799   -0.38187   -0.08589
 12 C     0.24230   -0.40752    0.04785
 13 C     1.08259   -0.03136    0.96737
 14 C    -1.43930    0.23975    0.01210
 15 C     0.18832    0.18855   -0.00341
 16 C    -1.06311    0.77439    3.11499
 17 C    -0.68741    1.17656    1.98919
 18 C    -1.03883   -0.71659   -0.05279
 19 C     0.81915    0.00785    0.26260
 20 C     0.09094    0.64721   -0.09046
 21 C    -0.56712    0.00053    0.23233
 22 C    -0.61258   -0.54910   -0.15508
 23 C    -0.91107    0.71887    0.00008

System changes: positions 

Initializing position-dependent things.

[...]
iter:   7  11:43:51         -4.46  -188.425230    1      1      

Converged after 7 iterations.

Dipole moment: (-0.007319, 0.008073, 0.003865) |e|*Ang

Energy contributions relative to reference atoms: (reference = -24663.074771)

Kinetic:       +116.937812
Potential:     -126.014943
External:        +0.000000
XC:            -182.407218
Entropy (-ST):   -0.000401
Local:           +3.059320
--------------------------
Free energy:   -188.425430
Extrapolated:  -188.425230

Fermi level: -4.17459

 Band  Eigenvalues  Occupancy
    0    -22.46859    2.00000
    1    -21.67187    2.00000
    2    -21.66401    2.00000
    3    -20.54284    2.00000
    4    -20.53979    2.00000
    5    -19.83065    2.00000
    6    -19.43145    2.00000
    7    -18.85494    2.00000
    8    -18.01141    2.00000
    9    -17.99111    2.00000
   10    -17.66228    2.00000
   11    -17.64591    2.00000
   12    -15.65869    2.00000
   13    -15.65036    2.00000
   14    -15.09017    2.00000
   15    -14.84677    2.00000
   16    -14.84250    2.00000
   17    -13.30454    2.00000
   18    -12.51587    2.00000
   19    -12.47963    2.00000
   20    -12.46770    2.00000
   21    -12.43585    2.00000
   22    -12.11527    2.00000
   23    -11.36576    2.00000
   24    -11.35772    2.00000
   25    -10.84609    2.00000
   26    -10.82386    2.00000
   27    -10.37331    2.00000
   28     -9.76461    2.00000
   29     -9.49765    2.00000
   30     -9.49650    2.00000
   31     -9.36307    2.00000
   32     -9.34370    2.00000
   33     -8.28631    2.00000
   34     -8.28344    2.00000
   35     -7.81891    2.00000
   36     -6.89955    2.00000
   37     -6.69398    2.00000
   38     -6.49057    2.00000
   39     -6.42110    2.00000
   40     -6.41694    2.00000
   41     -6.29555    2.00000
   42     -6.28737    2.00000
   43     -6.19034    2.00000
   44     -6.15984    2.00000
   45     -6.13302    2.00000
   46     -5.18085    1.99991
   47     -5.17118    1.99991
   48     -3.18046    0.00010
   49     -3.09814    0.00004
   50     -3.09282    0.00004
   51     -2.64590    0.00000
   52     -2.46567    0.00000
   53     -2.44708    0.00000
   54     -2.19946    0.00000
   55     -2.19139    0.00000
   56     -1.07071    0.00000
   57     -1.05296    0.00000
   58     -0.90380    0.00000
   59      0.59553    0.00000
   60      1.56544    0.00000
   61      2.21574    0.00000
   62      2.23281    0.00000
   63      4.05142    0.00000
   64      4.34542    0.00000
   65      4.35271    0.00000
   66      5.35950    0.00000
   67      5.41994    0.00000
   68      5.44521    0.00000
   69      5.52147    0.00000
   70      5.60737    0.00000
   71      6.05472    0.00000
   72      6.99783    0.00000
   73      7.02750    0.00000
   74      7.23435    0.00000
   75      7.28673    0.00000
   76      7.32095    0.00000
   77      7.87668    0.00000
   78      7.91443    0.00000
   79      8.23996    0.00000
   80      8.37842    0.00000
   81      9.16379    0.00000
   82      9.16792    0.00000
   83      9.35311    0.00000
   84      9.37519    0.00000
   85      9.37993    0.00000
   86      9.38371    0.00000
   87      9.49954    0.00000
   88      9.83399    0.00000
   89      9.84181    0.00000
   90      9.96126    0.00000
   91      9.96965    0.00000
   92      9.98921    0.00000
   93     10.24637    0.00000
   94     10.52586    0.00000
   95     10.53092    0.00000
   96     10.55516    0.00000
   97     10.85969    0.00000


Forces in eV/Ang:
  0 C    -0.03247    0.02133   -0.00379
  1 C    -0.06943   -0.00697    0.06163
  2 C     0.02687    0.05100    0.02555
  3 C     0.04901    0.05376   -0.04693
  4 C     0.02507   -0.01962    0.03560
  5 C    -0.02802    0.03803    0.03483
  6 C    -0.02771    0.01873    0.02844
  7 C    -0.03347   -0.02507   -0.07259
  8 C    -0.05600   -0.06794    0.05813
  9 C    -0.04181   -0.00553   -0.00373
 10 C    -0.00435    0.03029   -0.02587
 11 C    -0.00465   -0.03279   -0.00742
 12 C     0.07334    0.00830   -0.01387
 13 C    -0.06179    0.00717   -0.00980
 14 C    -0.00971   -0.10027   -0.03965
 15 C     0.01199    0.00871   -0.02896
 16 C     0.04766    0.02384   -0.01056
 17 C     0.04337   -0.02607   -0.00402
 18 C     0.04376    0.05498   -0.03356
 19 C    -0.04446   -0.05040   -0.04304
 20 C     0.05976    0.00874    0.01786
 21 C     0.02646    0.01296   -0.02258
 22 C    -0.00665    0.03867    0.06062
 23 C    -0.01655   -0.00188    0.01005

System changes: positions 

Initializing position-dependent things.

Density initialized from wave functions
           .--------------------------------------.  
          /|                                      |  
         / |                                      |  
        /  |                                      |  
       /   |                                      |  
      /    |                                      |  
     /     |                                      |  
    /      |                                      |  
   /       |       C  C                           |  
  /        |      C      C  C                     |  
 *         |   C     C  C     C                   |  
 |         |  C            C  C                   |  
 |         .----C---C-C---C-----C-----------------.  
 |        /     C            C                   /   
 |       /        C   C C  C                    /    
 |      /                                      /     
 |     /                                      /      
 |    /                                      /       
 |   /                                      /        
 |  /                                      /         
 | /                                      /          
 |/                                      /           
 *--------------------------------------*            

Positions:
   0 C      6.161040    3.293141    5.021077
   1 C      5.074297    3.870470    5.269633
   2 C      4.863544    5.213133    5.605654
   3 C      6.130317    6.017110    5.542761
   4 C      3.763300    5.979418    6.008316
   5 C      6.030182   10.147092    6.415924
   6 C      8.485084   10.350821    5.618432
   7 C      5.000462    9.451037    6.599622
   8 C      9.545892    9.809511    5.219998
   9 C      4.836697    8.089105    6.318079
  10 C      6.108346    7.441308    5.851311
  11 C      3.763926    7.189745    6.346180
  12 C      7.427547    3.885768    4.952174
  13 C      7.386623    5.369298    5.188108
  14 C     10.893380    7.668699    4.684085
  15 C      8.724524    3.423531    4.704442
  16 C      9.778107    8.444277    5.019932
  17 C      7.271987    9.725578    5.927695
  18 C      9.772712    4.109014    4.608029
  19 C      7.311963    8.245617    5.677774
  20 C      8.549466    7.609563    5.247158
  21 C     10.947728    6.419027    4.575459
  22 C      8.601384    6.163779    5.063982
  23 C      9.904986    5.497243    4.725218

Unit cell:
           periodic     x           y           z      points  spacing
  1. axis:    yes   16.000000    0.000000    0.000000    80     0.2000
  2. axis:    yes    0.000000   16.000000    0.000000    80     0.2000
  3. axis:    yes    0.000000    0.000000   10.000000    48     0.2083

Effective grid spacing dv^(1/3) = 0.2027

                     log10-error:    total        iterations:
           time      wfs    density  energy       fermi  poisson
iter:   1  11:43:53          +inf  -188.427636    1      4      
iter:   2  11:43:53         -2.99  -188.427416    1      1      
iter:   3  11:43:54         -3.09  -188.427477    1      1      
iter:   4  11:43:55         -3.44  -188.427795    1      1      
iter:   5  11:43:55         -3.71  -188.427698    1      1      
iter:   6  11:43:56         -3.45  -188.426880    1      1      
iter:   7  11:43:56         -4.26  -188.426823    1      1      

Converged after 7 iterations.

Dipole moment: (-0.004532, 0.008503, 0.003222) |e|*Ang

Energy contributions relative to reference atoms: (reference = -24663.074771)

Kinetic:       +116.695494
Potential:     -125.829590
External:        +0.000000
XC:            -182.352230
Entropy (-ST):   -0.000398
Local:           +3.059702
--------------------------
Free energy:   -188.427021
Extrapolated:  -188.426823

Fermi level: -4.17394

 Band  Eigenvalues  Occupancy
    0    -22.46494    2.00000
    1    -21.66793    2.00000
    2    -21.66264    2.00000
    3    -20.54016    2.00000
    4    -20.53948    2.00000
    5    -19.82890    2.00000
    6    -19.43158    2.00000
    7    -18.85352    2.00000
    8    -18.00524    2.00000
    9    -17.99409    2.00000
   10    -17.66041    2.00000
   11    -17.64772    2.00000
   12    -15.65550    2.00000
   13    -15.65472    2.00000
   14    -15.09032    2.00000
   15    -14.84326    2.00000
   16    -14.84068    2.00000
   17    -13.30615    2.00000
   18    -12.51430    2.00000
   19    -12.48156    2.00000
   20    -12.46895    2.00000
   21    -12.43313    2.00000
   22    -12.11176    2.00000
   23    -11.36478    2.00000
   24    -11.36143    2.00000
   25    -10.84236    2.00000
   26    -10.82346    2.00000
   27    -10.37079    2.00000
   28     -9.76511    2.00000
   29     -9.49756    2.00000
   30     -9.49406    2.00000
   31     -9.36311    2.00000
   32     -9.34055    2.00000
   33     -8.28531    2.00000
   34     -8.28366    2.00000
   35     -7.81843    2.00000
   36     -6.90047    2.00000
   37     -6.69298    2.00000
   38     -6.48997    2.00000
   39     -6.42219    2.00000
   40     -6.41891    2.00000
   41     -6.29387    2.00000
   42     -6.28900    2.00000
   43     -6.18771    2.00000
   44     -6.16256    2.00000
   45     -6.13356    2.00000
   46     -5.17907    1.99991
   47     -5.17328    1.99991
   48     -3.17930    0.00010
   49     -3.09497    0.00004
   50     -3.09207    0.00004
   51     -2.64431    0.00000
   52     -2.46068    0.00000
   53     -2.44778    0.00000
   54     -2.19874    0.00000
   55     -2.19502    0.00000
   56     -1.06895    0.00000
   57     -1.05590    0.00000
   58     -0.90512    0.00000
   59      0.59572    0.00000
   60      1.56557    0.00000
   61      2.21905    0.00000
   62      2.22960    0.00000
   63      4.04532    0.00000
   64      4.34713    0.00000
   65      4.34973    0.00000
   66      5.36411    0.00000
   67      5.40845    0.00000
   68      5.44411    0.00000
   69      5.51197    0.00000
   70      5.59724    0.00000
   71      6.05094    0.00000
   72      6.99431    0.00000
   73      7.02266    0.00000
   74      7.22852    0.00000
   75      7.28724    0.00000
   76      7.30980    0.00000
   77      7.88592    0.00000
   78      7.89966    0.00000
   79      8.24131    0.00000
   80      8.37237    0.00000
   81      9.16131    0.00000
   82      9.16840    0.00000
   83      9.35868    0.00000
   84      9.37336    0.00000
   85      9.37436    0.00000
   86      9.38171    0.00000
   87      9.50000    0.00000
   88      9.83549    0.00000
   89      9.84053    0.00000
   90      9.96130    0.00000
   91      9.96830    0.00000
   92      9.97514    0.00000
   93     10.24660    0.00000
   94     10.52679    0.00000
   95     10.53009    0.00000
   96     10.55489    0.00000
   97     10.86262    0.00000


Forces in eV/Ang:
  0 C     0.03190   -0.00238   -0.01017
  1 C    -0.07607    0.04619    0.06615
  2 C     0.02649   -0.00688    0.01176
  3 C     0.03718    0.01157   -0.03579
  4 C     0.02842    0.01148    0.04502
  5 C    -0.01818   -0.01550    0.00058
  6 C    -0.00486   -0.02542    0.01773
  7 C    -0.01313    0.00524   -0.05639
  8 C     0.02071    0.00101    0.02993
  9 C    -0.02491   -0.00115    0.00518
 10 C    -0.00323    0.03328   -0.02723
 11 C     0.00398   -0.00001   -0.01428
 12 C    -0.00087    0.03554   -0.02418
 13 C    -0.01677    0.00299    0.01800
 14 C     0.01743    0.03228   -0.00791
 15 C     0.03276   -0.00229   -0.03099
 16 C     0.01133   -0.00807   -0.00250
 17 C    -0.00215   -0.02403    0.02516
 18 C     0.03897    0.02996   -0.02255
 19 C    -0.02819   -0.09017   -0.04856
 20 C     0.01858    0.02045    0.00750
 21 C    -0.03643   -0.04603   -0.02079
 22 C     0.01795    0.02267    0.02856
 23 C    -0.04452    0.02889    0.00483

System changes: positions 

Initializing position-dependent things.

Density initialized from wave functions
           .--------------------------------------.  
          /|                                      |  
         / |                                      |  
        /  |                                      |  
       /   |                                      |  
      /    |                                      |  
     /     |                                      |  
    /      |                                      |  
   /       |       C  C                           |  
  /        |      C      C  C                     |  
 *         |   C     C  C     C                   |  
 |         |  C            C  C                   |  
 |         .----C---C-C---C-----C-----------------.  
 |        /     C            C                   /   
 |       /        C   C C  C                    /    
 |      /                                      /     
 |     /                                      /      
 |    /                                      /       
 |   /                                      /        
 |  /                                      /         
 | /                                      /          
 |/                                      /           
 *--------------------------------------*            

Positions:
   0 C      6.160906    3.293192    5.022105
   1 C      5.074058    3.870498    5.271393
   2 C      4.864185    5.213633    5.606307
   3 C      6.130853    6.017827    5.542890
   4 C      3.763921    5.979511    6.009004
   5 C      6.029292   10.147191    6.415569
   6 C      8.484126   10.350889    5.618169
   7 C      4.998752    9.451524    6.597589
   8 C      9.544946    9.809216    5.220166
   9 C      4.835588    8.089000    6.317865
  10 C      6.107913    7.441844    5.851455
  11 C      3.762658    7.190000    6.346629
  12 C      7.427897    3.886245    4.952054
  13 C      7.386657    5.369438    5.188568
  14 C     10.893031    7.668977    4.683200
  15 C      8.724511    3.423681    4.701982
  16 C      9.779019    8.444564    5.020894
  17 C      7.271101    9.725831    5.927304
  18 C      9.771836    4.110709    4.604516
  19 C      7.311833    8.245459    5.677940
  20 C      8.550530    7.609942    5.248572
  21 C     10.947879    6.419231    4.573355
  22 C      8.601564    6.164413    5.065250
  23 C      9.904583    5.498357    4.723933

Unit cell:
           periodic     x           y           z      points  spacing
  1. axis:    yes   16.000000    0.000000    0.000000    80     0.2000
  2. axis:    yes    0.000000   16.000000    0.000000    80     0.2000
  3. axis:    yes    0.000000    0.000000   10.000000    48     0.2083

Effective grid spacing dv^(1/3) = 0.2027

                     log10-error:    total        iterations:
           time      wfs    density  energy       fermi  poisson
iter:   1  11:43:58          +inf  -188.427780    1      4      
iter:   2  11:43:59         -3.03  -188.427693    1      1      
iter:   3  11:44:00         -3.17  -188.427438    1      1      
iter:   4  11:44:00         -3.88  -188.427740    1      1      
iter:   5  11:44:01         -3.92  -188.427518    1      1      
iter:   6  11:44:01         -3.76  -188.427454    1      1      
iter:   7  11:44:02         -4.63  -188.427501    1      1      

Converged after 7 iterations.

Dipole moment: (-0.001132, 0.008535, 0.002341) |e|*Ang

Energy contributions relative to reference atoms: (reference = -24663.074771)

Kinetic:       +116.652446
Potential:     -125.797517
External:        +0.000000
XC:            -182.343979
Entropy (-ST):   -0.000400
Local:           +3.061747
--------------------------
Free energy:   -188.427701
Extrapolated:  -188.427501

Fermi level: -4.17416

 Band  Eigenvalues  Occupancy
    0    -22.46458    2.00000
    1    -21.66668    2.00000
    2    -21.66345    2.00000
    3    -20.53992    2.00000
    4    -20.53927    2.00000
    5    -19.82858    2.00000
    6    -19.43077    2.00000
    7    -18.85404    2.00000
    8    -18.00351    2.00000
    9    -17.99468    2.00000
   10    -17.65994    2.00000
   11    -17.64760    2.00000
   12    -15.65709    2.00000
   13    -15.65300    2.00000
   14    -15.08931    2.00000
   15    -14.84315    2.00000
   16    -14.84085    2.00000
   17    -13.30647    2.00000
   18    -12.51372    2.00000
   19    -12.48180    2.00000
   20    -12.46809    2.00000
   21    -12.43340    2.00000
   22    -12.11195    2.00000
   23    -11.36621    2.00000
   24    -11.35932    2.00000
   25    -10.84047    2.00000
   26    -10.82539    2.00000
   27    -10.37035    2.00000
   28     -9.76453    2.00000
   29     -9.49958    2.00000
   30     -9.49197    2.00000
   31     -9.36191    2.00000
   32     -9.34150    2.00000
   33     -8.28569    2.00000
   34     -8.28298    2.00000
   35     -7.81819    2.00000
   36     -6.89966    2.00000
   37     -6.69344    2.00000
   38     -6.48949    2.00000
   39     -6.41993    2.00000
   40     -6.41981    2.00000
   41     -6.29313    2.00000
   42     -6.28894    2.00000
   43     -6.18577    2.00000
   44     -6.16359    2.00000
   45     -6.13284    2.00000
   46     -5.17884    1.99991
   47     -5.17284    1.99991
   48     -3.17985    0.00010
   49     -3.09702    0.00004
   50     -3.09215    0.00004
   51     -2.64533    0.00000
   52     -2.46044    0.00000
   53     -2.45018    0.00000
   54     -2.19892    0.00000
   55     -2.19497    0.00000
   56     -1.06887    0.00000
   57     -1.05580    0.00000
   58     -0.90436    0.00000
   59      0.59469    0.00000
   60      1.56562    0.00000
   61      2.21983    0.00000
   62      2.22832    0.00000
   63      4.04566    0.00000
   64      4.34751    0.00000
   65      4.34968    0.00000
   66      5.36656    0.00000
   67      5.40604    0.00000
   68      5.44767    0.00000
   69      5.51248    0.00000
   70      5.59606    0.00000
   71      6.04974    0.00000
   72      6.99718    0.00000
   73      7.02293    0.00000
   74      7.23016    0.00000
   75      7.29064    0.00000
   76      7.30813    0.00000
   77      7.88798    0.00000
   78      7.89800    0.00000
   79      8.24093    0.00000
   80      8.37271    0.00000
   81      9.16092    0.00000
   82      9.16994    0.00000
   83      9.35971    0.00000
   84      9.37221    0.00000
   85      9.37520    0.00000
   86      9.38149    0.00000
   87      9.50008    0.00000
   88      9.83682    0.00000
   89      9.83955    0.00000
   90      9.96268    0.00000
   91      9.96890    0.00000
   92      9.97414    0.00000
   93     10.24657    0.00000
   94     10.52678    0.00000
   95     10.53056    0.00000
   96     10.55503    0.00000
   97     10.86454    0.00000


Forces in eV/Ang:
  0 C     0.03643    0.03685   -0.00088
  1 C    -0.07199    0.03283    0.06027
  2 C     0.02048   -0.01611    0.01252
  3 C     0.01694   -0.00224   -0.02904
  4 C     0.02180    0.01769    0.05078
  5 C    -0.02767    0.00516   -0.00166
  6 C    -0.00577    0.04213    0.02696
  7 C     0.03326    0.00164   -0.05713
  8 C    -0.03538   -0.01148    0.04528
  9 C    -0.01016    0.01304    0.00224
 10 C     0.00676    0.02478   -0.03084
 11 C     0.01429   -0.01787   -0.02455
 12 C    -0.02064    0.02258   -0.02494
 13 C    -0.00084    0.02046    0.02010
 14 C     0.00157   -0.02554   -0.00252
 15 C     0.04166    0.01989   -0.02933
 16 C    -0.01977   -0.01269   -0.00314
 17 C    -0.00624   -0.02462    0.02824
 18 C     0.03646    0.00414   -0.01876
 19 C    -0.02403   -0.06147   -0.04030
 20 C    -0.02434    0.01007    0.00899
 21 C     0.00447   -0.04348   -0.03007
 22 C     0.02092    0.01210    0.01577
 23 C    -0.03221    0.02699    0.00470

