
  ___ ___ ___ _ _ _  
 |   |   |_  | | | | 
 | | | | | . | | | | 
 |__ |  _|___|_____|  1.3.0b1
 |___|_|             

User:   esb@s65n64.grendel.cscaa.dk
Date:   Wed Nov  8 15:13:06 2017
Arch:   x86_64
Pid:    80658
Python: 2.7.13
gpaw:   /home/esb/DFT/gpaw_git/gpaw
_gpaw:  /home/esb/DFT/gpaw_git/build/bin.linux-x86_64-2.7/gpaw-python
ase:    /home/esb/DFT/ase_git/ase (version 3.15.0b1)
numpy:  /comm/swstack/core/python/2.7.13/lib/python2.7/site-packages/numpy (version 1.13.3)
scipy:  /comm/swstack/core/python/2.7.13/lib/python2.7/site-packages/scipy (version 0.19.1)
units:  Angstrom and eV
cores:  16
Extra parameters: {'blacs': True}

Input parameters:
  basis: dzp
  gpts: [80 80 48]
  kpts: [1 1 1]
  maxiter: 99
  mixer: {backend: pulay,
          beta: 0.05,
          method: separate,
          nmaxold: 5,
          weight: 75}
  mode: lcao
  nbands: -50
  occupations: {name: fermi-dirac,
                width: 0.1}
  poissonsolver: {eps: 1e-07,
                  name: fd,
                  nn: 3,
                  relax: GS}
  xc: PBE

System changes: positions, numbers, cell, pbc, initial_charges, initial_magmoms 

Initialize ...

C-setup:
  name: Carbon
  id: 4aa54d4b901d75f77cc0ea3eec22967b
  Z: 6
  valence: 4
  core: 2
  charge: 0.0
  file: /home/esb/DFT/gpaw-setups-0.8.7929/C.PBE.gz
  cutoffs: 0.64(comp), 1.14(filt), 1.14(core), lmax=2
  valence states:
                energy  radius
    2s(2.00)   -13.751   0.635
    2p(2.00)    -5.284   0.635
    *s          13.461   0.635
    *p          21.927   0.635
    *d           0.000   0.635

  LCAO basis set for C:
    Name: dzp
    File: /home/esb/DFT/gpaw-setups-0.8.7929/C.dzp.basis.gz
    Number of radial functions: 5
    Number of spherical harmonics: 13
      l=0, rc=5.5469 Bohr: 2s-sz confined orbital
      l=1, rc=6.6719 Bohr: 2p-sz confined orbital
      l=0, rc=3.0312 Bohr: 2s-dz split-valence wave
      l=1, rc=3.7500 Bohr: 2p-dz split-valence wave
      l=2, rc=6.6719 Bohr: d-type Gaussian polarization

Reference energy: -24663.074771

Spin-paired calculation

Occupation numbers:
  Fermi-Dirac: width=0.1000 eV

Convergence criteria:
  Maximum total energy change: 0.0005 eV / electron
  Maximum integral of absolute density change: 0.0001 electrons
  Maximum integral of absolute eigenstate change: 4e-08 eV^2
  Maximum number of iterations: 99

Symmetries present (total): 1

  ( 1  0  0)
  ( 0  1  0)
  ( 0  0  1)

1 k-point (Gamma)
1 k-point in the irreducible part of the Brillouin zone
       k-points in crystal coordinates                weights
   0:     0.00000000    0.00000000    0.00000000          1/1

Wave functions: LCAO
  Diagonalizer: Serial LAPACK
  Atomic Correction: dense with blas
  Datatype: float
  Eigensolver: None 

LCAO using direct dense diagonalizer 

Densities:
  Coarse grid: 80*80*48 grid
  Fine grid: 160*160*96 grid
  Total Charge: 0.000000 

Density mixing:
  Method: separate
  Backend: pulay
  Linear mixing parameter: 0.05
  Mixing with 5 old densities
  Damping of long wave oscillations: 75 

Hamiltonian:
  XC and Coulomb potentials evaluated on a 160*160*96 grid
  Using the PBE Exchange-Correlation functional
  Interpolation: tri-quintic (5. degree polynomial)
  Poisson solver: Gauss-Seidel solver with 6 multi-grid levels
    Coarsest grid: 5 x 5 x 3 points
    Stencil: 6*3+1=19 point O(h^6) finite-difference Laplacian
    Max iterations: 1000
    Tolerance: 1.000000e-07 

Memory estimate:
  Process memory now: 77.58 MiB
  Calculator: 15.59 MiB
    Density: 6.13 MiB
      Arrays: 3.81 MiB
      Localized functions: 0.86 MiB
      Mixer: 1.46 MiB
    Hamiltonian: 5.40 MiB
      Arrays: 2.49 MiB
      XC: 0.00 MiB
      Poisson: 2.85 MiB
      vbar: 0.07 MiB
    Wavefunctions: 4.05 MiB
      C [qnM]: 0.23 MiB
      S, T [2 x qmm]: 1.49 MiB
      P [aqMi]: 0.01 MiB
      TCI: 0.00 MiB
      BasisFunctions: 2.33 MiB
      Eigensolver: 0.00 MiB

Total number of cores used: 16
Domain decomposition: 2 x 4 x 2

Number of atoms: 24
Number of atomic orbitals: 312
Number of bands in calculation: 98
Bands to converge: occupied states only
Number of valence electrons: 96

... initialized

Initializing position-dependent things.

Density initialized from atomic densities
           .--------------------------------------.  
          /|                                      |  
         / |                                      |  
        /  |                                      |  
       /   |                                      |  
      /    |                                      |  
     /     |                                      |  
    /      |                                      |  
   /       |             C                        |  
  /        |         C  C  C  C                   |  
 *         |       C  C       C                   |  
 |         |    C   C   C   C    C  C             |  
 |         .---C--C------C---C-C---C--------------.  
 |        /         C   C C  C                   /   
 |       /                                      /    
 |      /                                      /     
 |     /                                      /      
 |    /                                      /       
 |   /                                      /        
 |  /                                      /         
 | /                                      /          
 |/                                      /           
 *--------------------------------------*            

Positions:
   0 C      5.456213   10.433322    5.077592
   1 C     12.064704    7.009948    5.090786
   2 C      5.945653    7.408359    5.690607
   3 C      7.976040    5.286059    4.767983
   4 C      8.324622    6.625510    4.969951
   5 C      6.542179    5.285819    4.384965
   6 C      5.564648    5.936087    5.296974
   7 C     12.027224    8.314764    5.034292
   8 C     10.351991    4.966336    4.940739
   9 C     10.814364    6.323872    5.012344
  10 C      9.628146    7.171908    5.001978
  11 C      9.171731    4.515423    4.816799
  12 C      6.353380    9.258110    5.133453
  13 C      7.381296    8.129783    5.092077
  14 C      4.092744    8.038366    5.068559
  15 C      6.638658   10.649543    5.113913
  16 C      6.568102   12.015660    5.091087
  17 C      4.231411    6.662433    4.970170
  18 C      5.001731    8.920480    5.138038
  19 C      7.908677   11.489420    4.984229
  20 C      9.054009   10.900096    4.847624
  21 C      9.580206    9.629463    4.871130
  22 C      8.742017    8.439200    5.060968
  23 C     10.693670    8.764204    4.698033

Unit cell:
           periodic     x           y           z      points  spacing
  1. axis:    yes   16.000000    0.000000    0.000000    80     0.2000
  2. axis:    yes    0.000000   16.000000    0.000000    80     0.2000
  3. axis:    yes    0.000000    0.000000   10.000000    48     0.2083

Effective grid spacing dv^(1/3) = 0.2027

                     log10-error:    total        iterations:
           time      wfs    density  energy       fermi  poisson
iter:   1  15:13:08          +inf  -166.380239    2      6      
iter:   2  15:13:08         -0.91  -164.781540    3      3      
iter:   3  15:13:09         -0.97  -163.708694    3      3      
iter:   4  15:13:10         -1.03  -162.612666    34     3      
iter:   5  15:13:10         -1.18  -162.326923    4      3      
iter:   6  15:13:11         -1.29  -162.204995    34     3      
iter:   7  15:13:11         -1.57  -162.130712    3      3      
iter:   8  15:13:12         -1.69  -162.089157    3      2      
iter:   9  15:13:12         -1.83  -162.073179    3      2      
iter:  10  15:13:13         -1.92  -162.054826    3      2      
iter:  11  15:13:13         -2.11  -162.039692    3      2      
iter:  12  15:13:14         -2.24  -162.041272    3      2      
iter:  13  15:13:14         -2.31  -162.042178    3      2      
iter:  14  15:13:15         -2.39  -162.046194    3      2      
iter:  15  15:13:15         -2.89  -162.036034    3      2      
iter:  16  15:13:16         -3.01  -162.037300    2      1      
iter:  17  15:13:16         -3.11  -162.032566    2      1      
iter:  18  15:13:17         -3.38  -162.028698    2      1      
iter:  19  15:13:17         -3.53  -162.031740    2      1      
iter:  20  15:13:18         -3.74  -162.031275    2      1      
iter:  21  15:13:18         -3.91  -162.032562    2      1      
iter:  22  15:13:19         -3.95  -162.032863    2      1      
iter:  23  15:13:19         -4.00  -162.032721    2      1      
iter:  24  15:13:20         -4.15  -162.033531    2      1      

Converged after 24 iterations.

Dipole moment: (-0.397729, -0.003035, 0.058224) |e|*Ang

Energy contributions relative to reference atoms: (reference = -24663.074771)

Kinetic:       +150.001240
Potential:     -136.025388
External:        +0.000000
XC:            -178.750695
Entropy (-ST):   -0.304213
Local:           +2.893419
--------------------------
Free energy:   -162.185638
Extrapolated:  -162.033531

Fermi level: -4.23919

 Band  Eigenvalues  Occupancy
    0    -27.21932    2.00000
    1    -23.61371    2.00000
    2    -23.36242    2.00000
    3    -22.24727    2.00000
    4    -21.46602    2.00000
    5    -21.04566    2.00000
    6    -19.93655    2.00000
    7    -19.81133    2.00000
    8    -19.45529    2.00000
    9    -18.65740    2.00000
   10    -18.07486    2.00000
   11    -17.51850    2.00000
   12    -16.54123    2.00000
   13    -16.11732    2.00000
   14    -15.65350    2.00000
   15    -15.12790    2.00000
   16    -14.36771    2.00000
   17    -13.92372    2.00000
   18    -13.72125    2.00000
   19    -13.34009    2.00000
   20    -12.90860    2.00000
   21    -12.48105    2.00000
   22    -12.18319    2.00000
   23    -12.06858    2.00000
   24    -11.47443    2.00000
   25    -10.98941    2.00000
   26    -10.73553    2.00000
   27    -10.54831    2.00000
   28    -10.21442    2.00000
   29    -10.14923    2.00000
   30     -9.75718    2.00000
   31     -9.14082    2.00000
   32     -8.72246    2.00000
   33     -8.57112    2.00000
   34     -8.41788    2.00000
   35     -7.79480    2.00000
   36     -7.17392    2.00000
   37     -6.93856    2.00000
   38     -6.77870    2.00000
   39     -6.43844    2.00000
   40     -6.37504    2.00000
   41     -6.23465    2.00000
   42     -5.86020    2.00000
   43     -5.44249    1.99999
   44     -5.16283    1.99981
   45     -4.85451    1.99576
   46     -4.72348    1.98435
   47     -4.29975    1.29385
   48     -4.16558    0.64769
   49     -3.90830    0.07053
   50     -3.67958    0.00740
   51     -3.40061    0.00046
   52     -3.30000    0.00017
   53     -2.58154    0.00000
   54     -2.45726    0.00000
   55     -2.05874    0.00000
   56     -1.99610    0.00000
   57     -1.57522    0.00000
   58     -0.84521    0.00000
   59     -0.64658    0.00000
   60     -0.15123    0.00000
   61      0.21817    0.00000
   62      0.69597    0.00000
   63      1.42667    0.00000
   64      1.71759    0.00000
   65      1.80927    0.00000
   66      2.62292    0.00000
   67      2.94436    0.00000
   68      3.22504    0.00000
   69      3.49611    0.00000
   70      3.87492    0.00000
   71      4.09873    0.00000
   72      5.11457    0.00000
   73      5.34499    0.00000
   74      5.53014    0.00000
   75      6.13177    0.00000
   76      6.45922    0.00000
   77      6.59607    0.00000
   78      6.96796    0.00000
   79      7.37789    0.00000
   80      7.75037    0.00000
   81      7.82675    0.00000
   82      8.07146    0.00000
   83      8.21370    0.00000
   84      8.48716    0.00000
   85      8.57477    0.00000
   86      8.81123    0.00000
   87      8.94456    0.00000
   88      9.12391    0.00000
   89      9.24542    0.00000
   90      9.38259    0.00000
   91      9.41279    0.00000
   92      9.50202    0.00000
   93      9.60446    0.00000
   94      9.71016    0.00000
   95      9.80539    0.00000
   96      9.98552    0.00000
   97     10.19996    0.00000


Forces in eV/Ang:
  0 C   -19.16725   -1.36739   -0.78921
  1 C     0.19653   -1.66307    0.34463
  2 C     1.21022   -3.79093    0.89479
  3 C    -2.47217   -0.51580   -0.53068
  4 C     0.39096   -1.07149   -0.64832
  5 C    -1.21736   -0.25231    3.42818
  6 C     0.33593    2.65924   -3.04284
  7 C    -2.92684    2.25906   -1.52007
  8 C     0.92598    0.58703    0.08552
  9 C     0.24626   -1.76480    0.51992
 10 C    -2.19962    0.36082   -0.01347
 11 C    -0.66034    0.12964   -0.41980
 12 C     6.51009   -4.69220   -0.79823
 13 C    -0.82812   -0.53817    0.78027
 14 C    -3.56252   -6.96347   -0.54409
 15 C     9.67781   -0.38330    0.68484
 16 C     3.64304    6.28101   -0.19487
 17 C     0.52722   -0.23657   -0.48359
 18 C     3.28051    5.70303    1.26669
 19 C    -0.56620    1.91382   -0.04003
 20 C     2.70636    0.71723   -0.25533
 21 C    -1.00333   -1.54774   -0.05906
 22 C     0.95048    2.77444    0.43996
 23 C     3.93770    1.48685    0.93510

System changes: positions 

Initializing position-dependent things.

Density initialized from wave functions
           .--------------------------------------.  
          /|                                      |  
         / |                                      |  
        /  |                                      |  
       /   |                                      |  
      /    |                                      |  
     /     |                                      |  
    /      |                                      |  
   /       |             C                        |  
  /        |         C  C  C  C                   |  
 *         |       C  C       C                   |  
 |         |    C   C   C   C    C  C             |  
 |         .---C--C------C---C-C---C--------------.  
 |        /         C   C C  C                   /   
 |       /                                      /    
 |      /                                      /     
 |     /                                      /      
 |    /                                      /       
 |   /                                      /        
 |  /                                      /         
 | /                                      /          
 |/                                      /           
 *--------------------------------------*            

Positions:
   0 C      5.416348   10.430478    5.075950
   1 C     12.065112    7.006490    5.091503
   2 C      5.948171    7.400474    5.692468
   3 C      7.970898    5.284986    4.766879
   4 C      8.325435    6.623282    4.968602
   5 C      6.539648    5.285294    4.392095
   6 C      5.565346    5.941618    5.290645
   7 C     12.021136    8.319462    5.031131
   8 C     10.353917    4.967557    4.940916
   9 C     10.814876    6.320201    5.013426
  10 C      9.623571    7.172658    5.001950
  11 C      9.170358    4.515693    4.815926
  12 C      6.366920    9.248351    5.131792
  13 C      7.379574    8.128664    5.093700
  14 C      4.085334    8.023883    5.067427
  15 C      6.658787   10.648746    5.115338
  16 C      6.575679   12.028724    5.090681
  17 C      4.232508    6.661941    4.969165
  18 C      5.008554    8.932341    5.140673
  19 C      7.907500   11.493400    4.984146
  20 C      9.059638   10.901588    4.847093
  21 C      9.578119    9.626244    4.871007
  22 C      8.743993    8.444971    5.061883
  23 C     10.701859    8.767296    4.699978

Unit cell:
           periodic     x           y           z      points  spacing
  1. axis:    yes   16.000000    0.000000    0.000000    80     0.2000
  2. axis:    yes    0.000000   16.000000    0.000000    80     0.2000
  3. axis:    yes    0.000000    0.000000   10.000000    48     0.2083

Effective grid spacing dv^(1/3) = 0.2027

                     log10-error:    total        iterations:
           time      wfs    density  energy       fermi  poisson
iter:   1  15:13:21          +inf  -163.654877    3      5      
iter:   2  15:13:22         -1.88  -163.545303    3      2      
iter:   3  15:13:22         -2.14  -163.517823    2      2      
iter:   4  15:13:23         -2.32  -163.511743    2      2      
iter:   5  15:13:23         -2.42  -163.510208    2      2      
iter:   6  15:13:24         -2.56  -163.507594    2      2      
iter:   7  15:13:25         -2.83  -163.507273    2      2      
iter:   8  15:13:25         -2.97  -163.506778    2      2      
iter:   9  15:13:26         -3.14  -163.507771    2      1      
iter:  10  15:13:26         -3.35  -163.507155    2      1      
iter:  11  15:13:27         -3.48  -163.506543    2      1      
iter:  12  15:13:27         -3.64  -163.506510    2      1      
iter:  13  15:13:27         -3.80  -163.505643    2      1      
iter:  14  15:13:28         -3.97  -163.506074    2      1      
iter:  15  15:13:28         -4.04  -163.506289    2      1      

Converged after 15 iterations.

Dipole moment: (-0.371325, -0.012085, 0.056653) |e|*Ang

Energy contributions relative to reference atoms: (reference = -24663.074771)

Kinetic:       +141.508803
Potential:     -130.366142
External:        +0.000000
XC:            -177.360205
Entropy (-ST):   -0.300621
Local:           +2.861565
--------------------------
Free energy:   -163.656600
Extrapolated:  -163.506289

Fermi level: -4.24740

 Band  Eigenvalues  Occupancy
    0    -26.75493    2.00000
    1    -23.51377    2.00000
    2    -23.33731    2.00000
    3    -22.13037    2.00000
    4    -21.47575    2.00000
    5    -21.03863    2.00000
    6    -19.93238    2.00000
    7    -19.72616    2.00000
    8    -19.41937    2.00000
    9    -18.63869    2.00000
   10    -18.03823    2.00000
   11    -17.46143    2.00000
   12    -16.50347    2.00000
   13    -16.11527    2.00000
   14    -15.53759    2.00000
   15    -15.06331    2.00000
   16    -14.38133    2.00000
   17    -13.85049    2.00000
   18    -13.69565    2.00000
   19    -13.33476    2.00000
   20    -12.68119    2.00000
   21    -12.47301    2.00000
   22    -12.16197    2.00000
   23    -12.07217    2.00000
   24    -11.47027    2.00000
   25    -11.02824    2.00000
   26    -10.72956    2.00000
   27    -10.55649    2.00000
   28    -10.21900    2.00000
   29    -10.11229    2.00000
   30     -9.74701    2.00000
   31     -9.15112    2.00000
   32     -8.73643    2.00000
   33     -8.58295    2.00000
   34     -8.43261    2.00000
   35     -7.77643    2.00000
   36     -7.18189    2.00000
   37     -6.94799    2.00000
   38     -6.76787    2.00000
   39     -6.45980    2.00000
   40     -6.38599    2.00000
   41     -6.23616    2.00000
   42     -5.83336    2.00000
   43     -5.42941    1.99999
   44     -5.18325    1.99983
   45     -4.86235    1.99574
   46     -4.70462    1.97954
   47     -4.31450    1.32348
   48     -4.16993    0.63092
   49     -3.90386    0.06242
   50     -3.68811    0.00742
   51     -3.42495    0.00054
   52     -3.28373    0.00013
   53     -2.59291    0.00000
   54     -2.50202    0.00000
   55     -2.08306    0.00000
   56     -2.02612    0.00000
   57     -1.55482    0.00000
   58     -0.91322    0.00000
   59     -0.74392    0.00000
   60     -0.12720    0.00000
   61      0.18435    0.00000
   62      0.65350    0.00000
   63      1.39288    0.00000
   64      1.75980    0.00000
   65      2.00688    0.00000
   66      2.57779    0.00000
   67      2.97623    0.00000
   68      3.20476    0.00000
   69      3.49971    0.00000
   70      3.86388    0.00000
   71      4.09731    0.00000
   72      5.18140    0.00000
   73      5.39152    0.00000
   74      5.55186    0.00000
   75      6.15294    0.00000
   76      6.48613    0.00000
   77      6.61793    0.00000
   78      7.03832    0.00000
   79      7.44550    0.00000
   80      7.74923    0.00000
   81      7.88795    0.00000
   82      8.14735    0.00000
   83      8.25967    0.00000
   84      8.48792    0.00000
   85      8.56144    0.00000
   86      8.82847    0.00000
   87      8.94383    0.00000
   88      9.13293    0.00000
   89      9.26880    0.00000
   90      9.39812    0.00000
   91      9.42349    0.00000
   92      9.49546    0.00000
   93      9.62274    0.00000
   94      9.75980    0.00000
   95      9.82801    0.00000
   96     10.00111    0.00000
   97     10.21295    0.00000


Forces in eV/Ang:
  0 C   -13.40738   -1.19815   -0.47978
  1 C     0.15480   -1.41732    0.32785
  2 C     1.07213   -3.59855    0.86849
  3 C    -2.30912   -0.51897   -0.48804
  4 C     0.34219   -1.04602   -0.66934
  5 C    -1.23671   -0.27112    3.30327
  6 C     0.38448    2.41723   -2.90115
  7 C    -2.81093    1.91266   -1.46368
  8 C     0.64784    0.39250    0.06216
  9 C     0.26307   -1.49356    0.50808
 10 C    -2.17987    0.35902    0.00201
 11 C    -0.54237    0.23479   -0.39611
 12 C     6.01299   -3.60188   -0.90468
 13 C    -0.64682   -0.44936    0.80295
 14 C    -2.36165   -5.81193   -0.43593
 15 C     4.48114   -0.66563    0.46286
 16 C     3.42957    5.39333   -0.17837
 17 C     0.49883   -0.14150   -0.50916
 18 C     1.85431    4.51052    1.14260
 19 C    -0.14730    1.73296   -0.03955
 20 C     2.59162    0.67467   -0.24718
 21 C    -0.90955   -1.26725   -0.10012
 22 C     0.99082    2.36270    0.46868
 23 C     3.80557    1.62262    0.91055

System changes: positions 

Initializing position-dependent things.

Density initialized from wave functions
           .--------------------------------------.  
          /|                                      |  
         / |                                      |  
        /  |                                      |  
       /   |                                      |  
      /    |                                      |  
     /     |                                      |  
    /      |                                      |  
   /       |             C                        |  
  /        |         C  C  C  C                   |  
 *         |       C  C       C                   |  
 |         |    C   C   C   C    C C              |  
 |         .---C--C------C---C-C---C--------------.  
 |        /         C   C C  C                   /   
 |       /                                      /    
 |      /                                      /     
 |     /                                      /      
 |    /                                      /       
 |   /                                      /        
 |  /                                      /         
 | /                                      /          
 |/                                      /           
 *--------------------------------------*            

Positions:
   0 C      5.376846   10.424216    5.075354
   1 C     12.065764    6.999442    5.093450
   2 C      5.953880    7.379167    5.697769
   3 C      7.957538    5.281669    4.764120
   4 C      8.327220    6.616847    4.964190
   5 C      6.531649    5.283426    4.412064
   6 C      5.568170    5.955039    5.273360
   7 C     12.004220    8.328857    5.022291
   8 C     10.355827    4.968508    4.941126
   9 C     10.816678    6.312871    5.016555
  10 C      9.609898    7.174922    5.002085
  11 C      9.167850    4.518014    4.813601
  12 C      6.401135    9.234124    5.125211
  13 C      7.376904    8.126515    5.098973
  14 C      4.079850    7.996119    5.065517
  15 C      6.646115   10.642290    5.116518
  16 C      6.595748   12.055919    5.089680
  17 C      4.235448    6.661795    4.965732
  18 C      5.009038    8.951525    5.146940
  19 C      7.909878   11.502964    4.983899
  20 C      9.075172   10.905531    4.845590
  21 C      9.573091    9.620423    4.870047
  22 C      8.750598    8.456704    5.065083
  23 C     10.724957    8.778664    4.705561

Unit cell:
           periodic     x           y           z      points  spacing
  1. axis:    yes   16.000000    0.000000    0.000000    80     0.2000
  2. axis:    yes    0.000000   16.000000    0.000000    80     0.2000
  3. axis:    yes    0.000000    0.000000   10.000000    48     0.2083

Effective grid spacing dv^(1/3) = 0.2027

                     log10-error:    total        iterations:
           time      wfs    density  energy       fermi  poisson
iter:   1  15:13:30          +inf  -165.573100    3      5      
iter:   2  15:13:31         -1.69  -165.331437    3      2      
iter:   3  15:13:31         -1.92  -165.255662    2      2      
iter:   4  15:13:32         -2.13  -165.243271    2      2      
iter:   5  15:13:32         -2.20  -165.232565    3      2      
iter:   6  15:13:33         -2.40  -165.228592    2      2      
iter:   7  15:13:33         -2.53  -165.227877    2      2      
iter:   8  15:13:34         -2.67  -165.227427    2      2      
iter:   9  15:13:34         -2.88  -165.227023    2      2      
iter:  10  15:13:35         -3.11  -165.228231    2      1      
iter:  11  15:13:35         -3.30  -165.228112    2      1      
iter:  12  15:13:36         -3.44  -165.227714    2      1      
iter:  13  15:13:36         -3.58  -165.227197    2      1      
iter:  14  15:13:37         -3.68  -165.227282    2      1      
iter:  15  15:13:37         -3.91  -165.227289    2      1      
iter:  16  15:13:38         -4.05  -165.226999    2      1      

Converged after 16 iterations.

Dipole moment: (-0.361005, -0.074741, 0.051061) |e|*Ang

Energy contributions relative to reference atoms: (reference = -24663.074771)

Kinetic:       +136.130052
Potential:     -127.486974
External:        +0.000000
XC:            -176.599840
Entropy (-ST):   -0.290817
Local:           +2.875172
--------------------------
Free energy:   -165.372408
Extrapolated:  -165.226999

Fermi level: -4.28413

 Band  Eigenvalues  Occupancy
    0    -26.24919    2.00000
    1    -23.39480    2.00000
    2    -23.06720    2.00000
    3    -21.97777    2.00000
    4    -21.48983    2.00000
    5    -21.04051    2.00000
    6    -19.92009    2.00000
    7    -19.64268    2.00000
    8    -19.39370    2.00000
    9    -18.62081    2.00000
   10    -17.92375    2.00000
   11    -17.37379    2.00000
   12    -16.50409    2.00000
   13    -16.09573    2.00000
   14    -15.42236    2.00000
   15    -15.00813    2.00000
   16    -14.37483    2.00000
   17    -13.79171    2.00000
   18    -13.64636    2.00000
   19    -13.33634    2.00000
   20    -12.50448    2.00000
   21    -12.48152    2.00000
   22    -12.11964    2.00000
   23    -12.05383    2.00000
   24    -11.46600    2.00000
   25    -11.12401    2.00000
   26    -10.70848    2.00000
   27    -10.56582    2.00000
   28    -10.19825    2.00000
   29    -10.00688    2.00000
   30     -9.70204    2.00000
   31     -9.18884    2.00000
   32     -8.79190    2.00000
   33     -8.61759    2.00000
   34     -8.47583    2.00000
   35     -7.75579    2.00000
   36     -7.19619    2.00000
   37     -6.99234    2.00000
   38     -6.74111    2.00000
   39     -6.55208    2.00000
   40     -6.39234    2.00000
   41     -6.21619    2.00000
   42     -5.82775    2.00000
   43     -5.39227    1.99997
   44     -5.22298    1.99983
   45     -4.84586    1.99276
   46     -4.71402    1.97320
   47     -4.36243    1.37264
   48     -4.20293    0.61495
   49     -3.90084    0.04238
   50     -3.65490    0.00369
   51     -3.45156    0.00048
   52     -3.28814    0.00009
   53     -2.58679    0.00000
   54     -2.54440    0.00000
   55     -2.10006    0.00000
   56     -2.02281    0.00000
   57     -1.48012    0.00000
   58     -0.95058    0.00000
   59     -0.72261    0.00000
   60     -0.01315    0.00000
   61      0.13853    0.00000
   62      0.61804    0.00000
   63      1.34856    0.00000
   64      1.69252    0.00000
   65      2.25161    0.00000
   66      2.64444    0.00000
   67      3.04019    0.00000
   68      3.24446    0.00000
   69      3.55758    0.00000
   70      3.91202    0.00000
   71      4.10384    0.00000
   72      5.16559    0.00000
   73      5.48208    0.00000
   74      5.66519    0.00000
   75      6.17610    0.00000
   76      6.48813    0.00000
   77      6.70599    0.00000
   78      7.16208    0.00000
   79      7.51152    0.00000
   80      7.80363    0.00000
   81      8.00685    0.00000
   82      8.25196    0.00000
   83      8.34810    0.00000
   84      8.55612    0.00000
   85      8.60434    0.00000
   86      8.93903    0.00000
   87      8.95775    0.00000
   88      9.15162    0.00000
   89      9.29632    0.00000
   90      9.44305    0.00000
   91      9.47885    0.00000
   92      9.48655    0.00000
   93      9.67827    0.00000
   94      9.79747    0.00000
   95      9.87771    0.00000
   96     10.04571    0.00000
   97     10.23816    0.00000


Forces in eV/Ang:
  0 C   -11.06683   -1.77455   -0.17769
  1 C     0.11138   -1.07550    0.32635
  2 C     0.80232   -3.26893    0.93138
  3 C    -1.95071   -0.53741   -0.40271
  4 C     0.09962   -1.04780   -0.67790
  5 C    -1.13452   -0.39834    2.94137
  6 C     0.30522    1.96192   -2.58312
  7 C    -2.35237    1.19061   -1.28637
  8 C     0.27387    0.10386    0.02447
  9 C     0.18678   -0.89640    0.44786
 10 C    -2.02757    0.29786    0.06422
 11 C    -0.49074    0.35340   -0.37132
 12 C     4.74720   -2.94790   -1.01747
 13 C    -0.43881   -0.24127    0.79377
 14 C    -0.84633   -3.82882   -0.26661
 15 C     2.68610    0.64300    0.20155
 16 C     3.49022    3.84979   -0.15159
 17 C     0.44180   -0.57180   -0.58122
 18 C     0.87548    3.32153    0.93024
 19 C     0.51824    1.25218   -0.06191
 20 C     1.91884    0.92387   -0.17768
 21 C    -0.55471   -0.77897   -0.16586
 22 C     1.07378    1.36333    0.53347
 23 C     3.19026    2.15919    0.80131

System changes: positions 

Initializing position-dependent things.

Density initialized from wave functions
           .--------------------------------------.  
          /|                                      |  
         / |                                      |  
        /  |                                      |  
       /   |                                      |  
      /    |                                      |  
     /     |                                      |  
    /      |                                      |  
   /       |             C                        |  
  /        |         C  C  C  C                   |  
 *         |       C  C       C                   |  
 |         |    C   C   C   C    C C              |  
 |         .---C--C------C---C-C---C--------------.  
 |        /         C   C C  C                   /   
 |       /                                      /    
 |      /                                      /     
 |     /                                      /      
 |    /                                      /       
 |   /                                      /        
 |  /                                      /         
 | /                                      /          
 |/                                      /           
 *--------------------------------------*            

Positions:
   0 C      5.339027   10.411257    5.076703
   1 C     12.066175    6.994392    5.095597
   2 C      5.957850    7.358721    5.704209
   3 C      7.946074    5.277906    4.761836
   4 C      8.326928    6.609782    4.959393
   5 C      6.524048    5.280214    4.430531
   6 C      5.570299    5.965866    5.257317
   7 C     11.990033    8.333035    5.014280
   8 C     10.355099    4.967317    4.941056
   9 C     10.817829    6.309939    5.019391
  10 C      9.596522    7.176779    5.002793
  11 C      9.165272    4.521362    4.811251
  12 C      6.427335    9.221723    5.117311
  13 C      7.375486    8.125951    5.104523
  14 C      4.085012    7.981893    5.064770
  15 C      6.631020   10.649005    5.115929
  16 C      6.618742   12.073013    5.088807
  17 C      4.238162    6.657123    4.961389
  18 C      5.004421    8.964369    5.152034
  19 C      7.917669   11.509173    4.983411
  20 C      9.085759   10.912377    4.844617
  21 C      9.570830    9.618029    4.868491
  22 C      8.758438    8.460901    5.069094
  23 C     10.744353    8.795809    4.710612

Unit cell:
           periodic     x           y           z      points  spacing
  1. axis:    yes   16.000000    0.000000    0.000000    80     0.2000
  2. axis:    yes    0.000000   16.000000    0.000000    80     0.2000
  3. axis:    yes    0.000000    0.000000   10.000000    48     0.2083

Effective grid spacing dv^(1/3) = 0.2027

                     log10-error:    total        iterations:
           time      wfs    density  energy       fermi  poisson
iter:   1  15:13:39          +inf  -166.642878    3      5      
iter:   2  15:13:40         -1.86  -166.530666    2      2      
iter:   3  15:13:40         -2.06  -166.489882    2      2      
iter:   4  15:13:41         -2.25  -166.481245    2      2      
iter:   5  15:13:41         -2.35  -166.476328    2      2      
iter:   6  15:13:42         -2.52  -166.473339    2      2      
iter:   7  15:13:42         -2.70  -166.473620    2      2      
iter:   8  15:13:43         -2.80  -166.473435    2      2      
iter:   9  15:13:43         -3.06  -166.473452    2      2      
iter:  10  15:13:44         -3.24  -166.473832    2      1      
iter:  11  15:13:44         -3.35  -166.475308    2      1      
iter:  12  15:13:45         -3.59  -166.474404    2      1      
iter:  13  15:13:45         -3.69  -166.474088    2      1      
iter:  14  15:13:46         -3.82  -166.474376    2      1      
iter:  15  15:13:46         -4.03  -166.473876    2      1      

Converged after 15 iterations.

Dipole moment: (-0.348583, -0.138680, 0.044039) |e|*Ang

Energy contributions relative to reference atoms: (reference = -24663.074771)

Kinetic:       +134.502389
Potential:     -127.200470
External:        +0.000000
XC:            -176.522251
Entropy (-ST):   -0.283140
Local:           +2.888025
--------------------------
Free energy:   -166.615446
Extrapolated:  -166.473876

Fermi level: -4.32099

 Band  Eigenvalues  Occupancy
    0    -25.80783    2.00000
    1    -23.37553    2.00000
    2    -22.85890    2.00000
    3    -21.90118    2.00000
    4    -21.50503    2.00000
    5    -21.04910    2.00000
    6    -19.92657    2.00000
    7    -19.63890    2.00000
    8    -19.36760    2.00000
    9    -18.62089    2.00000
   10    -17.87403    2.00000
   11    -17.29328    2.00000
   12    -16.54233    2.00000
   13    -16.10202    2.00000
   14    -15.33644    2.00000
   15    -15.01251    2.00000
   16    -14.31926    2.00000
   17    -13.78146    2.00000
   18    -13.60384    2.00000
   19    -13.33615    2.00000
   20    -12.52105    2.00000
   21    -12.46141    2.00000
   22    -12.02678    2.00000
   23    -11.99161    2.00000
   24    -11.46553    2.00000
   25    -11.22723    2.00000
   26    -10.68953    2.00000
   27    -10.57469    2.00000
   28    -10.21426    2.00000
   29     -9.92741    2.00000
   30     -9.65099    2.00000
   31     -9.22523    2.00000
   32     -8.84077    2.00000
   33     -8.64728    2.00000
   34     -8.51979    2.00000
   35     -7.75262    2.00000
   36     -7.22370    2.00000
   37     -7.04308    2.00000
   38     -6.73452    2.00000
   39     -6.64710    2.00000
   40     -6.40298    2.00000
   41     -6.12440    2.00000
   42     -5.82661    2.00000
   43     -5.37767    1.99995
   44     -5.26049    1.99983
   45     -4.83641    1.98852
   46     -4.74982    1.97292
   47     -4.40539    1.39861
   48     -4.23888    0.61108
   49     -3.89138    0.02688
   50     -3.62035    0.00181
   51     -3.45169    0.00034
   52     -3.29489    0.00007
   53     -2.59265    0.00000
   54     -2.56942    0.00000
   55     -2.12246    0.00000
   56     -1.99404    0.00000
   57     -1.39550    0.00000
   58     -0.96265    0.00000
   59     -0.71269    0.00000
   60      0.04985    0.00000
   61      0.16750    0.00000
   62      0.63787    0.00000
   63      1.34378    0.00000
   64      1.64504    0.00000
   65      2.37249    0.00000
   66      2.72942    0.00000
   67      3.06060    0.00000
   68      3.31856    0.00000
   69      3.59623    0.00000
   70      3.96931    0.00000
   71      4.17595    0.00000
   72      5.14116    0.00000
   73      5.50111    0.00000
   74      5.77055    0.00000
   75      6.16028    0.00000
   76      6.48992    0.00000
   77      6.83446    0.00000
   78      7.24144    0.00000
   79      7.56779    0.00000
   80      7.84115    0.00000
   81      8.08113    0.00000
   82      8.30744    0.00000
   83      8.43683    0.00000
   84      8.60621    0.00000
   85      8.64776    0.00000
   86      8.95245    0.00000
   87      9.03523    0.00000
   88      9.15116    0.00000
   89      9.29940    0.00000
   90      9.48116    0.00000
   91      9.49313    0.00000
   92      9.54001    0.00000
   93      9.71525    0.00000
   94      9.81695    0.00000
   95      9.90072    0.00000
   96     10.04503    0.00000
   97     10.24976    0.00000


Forces in eV/Ang:
  0 C    -9.17196   -2.15214    0.05405
  1 C     0.09449   -1.00309    0.33119
  2 C     0.59934   -2.97360    1.03787
  3 C    -1.66628   -0.53847   -0.33830
  4 C    -0.13570   -1.09418   -0.65338
  5 C    -0.95316   -0.56454    2.59732
  6 C     0.20258    1.57313   -2.28982
  7 C    -1.92207    0.81282   -1.14805
  8 C     0.17811    0.06836    0.00517
  9 C     0.06548   -0.55582    0.38586
 10 C    -1.84148    0.21173    0.12308
 11 C    -0.54868    0.35107   -0.36662
 12 C     3.75705   -1.95881   -1.09462
 13 C    -0.24403   -0.18180    0.72324
 14 C    -0.32442   -3.19901   -0.13479
 15 C     1.10213    0.89126    0.06208
 16 C     3.40788    3.06118   -0.14182
 17 C     0.37850   -0.64414   -0.61269
 18 C     0.70873    3.01592    0.71638
 19 C     0.98620    1.12446   -0.10707
 20 C     1.70376    0.77631   -0.16653
 21 C    -0.31696   -0.38145   -0.15564
 22 C     1.19336    0.83048    0.52703
 23 C     2.65696    2.57618    0.65541

System changes: positions 

Initializing position-dependent things.

Density initialized from wave functions
           .--------------------------------------.  
          /|                                      |  
         / |                                      |  
        /  |                                      |  
       /   |                                      |  
      /    |                                      |  
     /     |                                      |  
    /      |                                      |  
   /       |             C                        |  
  /        |        C   C   C C                   |  
 *         |       C  C       C                   |  
 |         |    C   C   C   C    C C              |  
 |         .---C--C------C---C-C---C--------------.  
 |        /         C   C C  C                   /   
 |       /                                      /    
 |      /                                      /     
 |     /                                      /      
 |    /                                      /       
 |   /                                      /        
 |  /                                      /         
 | /                                      /          
 |/                                      /           
 *--------------------------------------*            

Positions:
   0 C      5.303259   10.393588    5.079608
   1 C     12.066596    6.988584    5.098026
   2 C      5.960656    7.338790    5.712365
   3 C      7.935810    5.273834    4.759831
   4 C      8.324496    6.601513    4.954503
   5 C      6.517669    5.275109    4.447680
   6 C      5.571505    5.974595    5.242282
   7 C     11.978363    8.335346    5.006675
   8 C     10.354473    4.966542    4.940879
   9 C     10.817819    6.308947    5.021915
  10 C      9.583733    7.177945    5.004083
  11 C      9.161475    4.524552    4.808651
  12 C      6.448020    9.215975    5.108256
  13 C      7.375392    8.125446    5.109743
  14 C      4.091318    7.967539    5.064916
  15 C      6.610515   10.657298    5.114641
  16 C      6.643183   12.087357    5.087884
  17 C      4.240565    6.651813    4.956486
  18 C      5.002194    8.979507    5.155808
  19 C      7.929372   11.515743    4.982409
  20 C      9.096328   10.917797    4.843539
  21 C      9.570212    9.618447    4.867116
  22 C      8.768095    8.462121    5.073214
  23 C     10.760854    8.817938    4.714717

Unit cell:
           periodic     x           y           z      points  spacing
  1. axis:    yes   16.000000    0.000000    0.000000    80     0.2000
  2. axis:    yes    0.000000   16.000000    0.000000    80     0.2000
  3. axis:    yes    0.000000    0.000000   10.000000    48     0.2083

Effective grid spacing dv^(1/3) = 0.2027

                     log10-error:    total        iterations:
           time      wfs    density  energy       fermi  poisson
iter:   1  15:13:48          +inf  -167.625769    3      5      
iter:   2  15:13:48         -1.97  -167.570655    2      2      
iter:   3  15:13:49         -2.15  -167.547132    2      2      
iter:   4  15:13:49         -2.29  -167.541781    2      2      
iter:   5  15:13:50         -2.36  -167.535830    2      2      
iter:   6  15:13:51         -2.57  -167.534121    2      2      
iter:   7  15:13:51         -2.79  -167.534066    2      2      
iter:   8  15:13:52         -2.88  -167.533964    2      2      
iter:   9  15:13:52         -3.18  -167.533449    2      1      
iter:  10  15:13:53         -3.28  -167.534551    2      1      
iter:  11  15:13:53         -3.47  -167.535023    2      1      
iter:  12  15:13:53         -3.57  -167.535262    2      1      
iter:  13  15:13:54         -3.71  -167.536366    2      1      
iter:  14  15:13:54         -3.94  -167.534520    2      1      
iter:  15  15:13:55         -4.05  -167.534112    1      1      

Converged after 15 iterations.

Dipole moment: (-0.345794, -0.190038, 0.037867) |e|*Ang

Energy contributions relative to reference atoms: (reference = -24663.074771)

Kinetic:       +134.142521
Potential:     -127.770226
External:        +0.000000
XC:            -176.664546
Entropy (-ST):   -0.279483
Local:           +2.897880
--------------------------
Free energy:   -167.673853
Extrapolated:  -167.534112

Fermi level: -4.35101

 Band  Eigenvalues  Occupancy
    0    -25.51559    2.00000
    1    -23.36318    2.00000
    2    -22.68325    2.00000
    3    -21.83177    2.00000
    4    -21.52216    2.00000
    5    -21.03922    2.00000
    6    -19.94069    2.00000
    7    -19.63539    2.00000
    8    -19.32569    2.00000
    9    -18.60908    2.00000
   10    -17.84368    2.00000
   11    -17.23301    2.00000
   12    -16.57460    2.00000
   13    -16.10934    2.00000
   14    -15.31133    2.00000
   15    -14.99997    2.00000
   16    -14.26789    2.00000
   17    -13.78872    2.00000
   18    -13.57842    2.00000
   19    -13.31682    2.00000
   20    -12.55384    2.00000
   21    -12.48499    2.00000
   22    -12.00114    2.00000
   23    -11.87358    2.00000
   24    -11.45954    2.00000
   25    -11.32046    2.00000
   26    -10.67357    2.00000
   27    -10.58629    2.00000
   28    -10.22884    2.00000
   29     -9.84219    2.00000
   30     -9.59953    2.00000
   31     -9.25820    2.00000
   32     -8.88425    2.00000
   33     -8.66984    2.00000
   34     -8.55514    2.00000
   35     -7.75541    2.00000
   36     -7.26084    2.00000
   37     -7.08373    2.00000
   38     -6.76283    2.00000
   39     -6.69794    2.00000
   40     -6.41815    2.00000
   41     -6.02277    2.00000
   42     -5.82513    2.00000
   43     -5.37195    1.99993
   44     -5.30348    1.99985
   45     -4.85643    1.98732
   46     -4.78708    1.97478
   47     -4.43498    1.39682
   48     -4.27133    0.62144
   49     -3.88485    0.01873
   50     -3.57577    0.00086
   51     -3.44098    0.00022
   52     -3.29999    0.00005
   53     -2.62472    0.00000
   54     -2.56453    0.00000
   55     -2.14521    0.00000
   56     -1.95595    0.00000
   57     -1.31238    0.00000
   58     -0.96080    0.00000
   59     -0.70277    0.00000
   60      0.04997    0.00000
   61      0.28000    0.00000
   62      0.66631    0.00000
   63      1.34661    0.00000
   64      1.60891    0.00000
   65      2.45864    0.00000
   66      2.80707    0.00000
   67      3.05413    0.00000
   68      3.40338    0.00000
   69      3.62638    0.00000
   70      3.98436    0.00000
   71      4.29323    0.00000
   72      5.09959    0.00000
   73      5.51471    0.00000
   74      5.83326    0.00000
   75      6.17371    0.00000
   76      6.51490    0.00000
   77      6.99818    0.00000
   78      7.35449    0.00000
   79      7.60978    0.00000
   80      7.86655    0.00000
   81      8.11742    0.00000
   82      8.34462    0.00000
   83      8.50974    0.00000
   84      8.63856    0.00000
   85      8.68908    0.00000
   86      8.96698    0.00000
   87      9.10284    0.00000
   88      9.13874    0.00000
   89      9.30005    0.00000
   90      9.48715    0.00000
   91      9.53580    0.00000
   92      9.58704    0.00000
   93      9.73704    0.00000
   94      9.83670    0.00000
   95      9.92033    0.00000
   96     10.02303    0.00000
   97     10.25702    0.00000


Forces in eV/Ang:
  0 C    -7.77726   -2.03322    0.20590
  1 C     0.08729   -0.89291    0.30892
  2 C     0.43158   -2.68273    1.16561
  3 C    -1.47266   -0.56699   -0.29130
  4 C    -0.30917   -1.02819   -0.58999
  5 C    -0.83180   -0.68617    2.29147
  6 C     0.15187    1.15482   -2.00953
  7 C    -1.60163    0.50941   -1.01547
  8 C    -0.00145    0.02007   -0.02499
  9 C    -0.05355   -0.29868    0.32986
 10 C    -1.70558    0.08715    0.18568
 11 C    -0.44650    0.35687   -0.34152
 12 C     3.12836   -1.22743   -1.13195
 13 C    -0.12277   -0.16657    0.62391
 14 C     0.20980   -2.38838    0.02391
 15 C     0.15699    1.27195   -0.04668
 16 C     3.20217    2.28285   -0.07953
 17 C     0.35762   -0.74312   -0.64158
 18 C     0.17599    2.21660    0.49907
 19 C     1.45117    0.96955   -0.16038
 20 C     1.42341    0.77304   -0.16296
 21 C    -0.10403   -0.18681   -0.11146
 22 C     1.29305    0.48711    0.50536
 23 C     2.31859    2.81351    0.53160

System changes: positions 

Initializing position-dependent things.

Density initialized from wave functions
           .--------------------------------------.  
          /|                                      |  
         / |                                      |  
        /  |                                      |  
       /   |                                      |  
      /    |                                      |  
     /     |                                      |  
    /      |                                      |  
   /       |             C                        |  
  /        |        C   C   C C                   |  
 *         |       C   C      C                   |  
 |         |    C   C   C   C    C C              |  
 |         .---C--C------C---C-C---C--------------.  
 |        /         C   C C  C                   /   
 |       /                                      /    
 |      /                                      /     
 |     /                                      /      
 |    /                                      /       
 |   /                                      /        
 |  /                                      /         
 | /                                      /          
 |/                                      /           
 *--------------------------------------*            

Positions:
   0 C      5.266921   10.377281    5.083301
   1 C     12.067118    6.982641    5.100410
   2 C      5.962670    7.319299    5.722503
   3 C      7.925666    5.269093    4.757908
   4 C      8.320661    6.593391    4.949941
   5 C      6.511694    5.268642    4.464034
   6 C      5.572479    5.980799    5.228070
   7 C     11.967829    8.336474    4.999390
   8 C     10.352712    4.965858    4.940446
   9 C     10.816710    6.309048    5.024214
  10 C      9.570831    7.177975    5.006011
  11 C      9.158489    4.527791    4.806053
  12 C      6.467467    9.214252    5.098413
  13 C      7.375824    8.124535    5.114348
  14 C      4.099839    7.956068    5.066341
  15 C      6.588959   10.668767    5.112872
  16 C      6.667600   12.098556    5.087555
  17 C      4.243178    6.645528    4.951008
  18 C      4.996837    8.990129    5.158189
  19 C      7.945262   11.522222    4.980799
  20 C      9.106029   10.923631    4.842272
  21 C      9.570978    9.619359    4.866285
  22 C      8.779387    8.462401    5.077312
  23 C     10.776899    8.843041    4.718178

Unit cell:
           periodic     x           y           z      points  spacing
  1. axis:    yes   16.000000    0.000000    0.000000    80     0.2000
  2. axis:    yes    0.000000   16.000000    0.000000    80     0.2000
  3. axis:    yes    0.000000    0.000000   10.000000    48     0.2083

Effective grid spacing dv^(1/3) = 0.2027

                     log10-error:    total        iterations:
           time      wfs    density  energy       fermi  poisson
iter:   1  15:13:57          +inf  -168.537844    3      5      
iter:   2  15:13:57         -2.02  -168.496844    2      2      
iter:   3  15:13:58         -2.19  -168.480033    2      2      
iter:   4  15:13:58         -2.31  -168.474734    2      2      
iter:   5  15:13:59         -2.39  -168.469691    2      2      
iter:   6  15:13:59         -2.59  -168.468129    2      2      
iter:   7  15:14:00         -2.81  -168.465807    2      1      
iter:   8  15:14:00         -2.91  -168.467706    2      2      
iter:   9  15:14:01         -3.22  -168.469047    2      1      
iter:  10  15:14:01         -3.33  -168.469141    2      1      
iter:  11  15:14:02         -3.46  -168.469567    2      1      
iter:  12  15:14:02         -3.56  -168.469408    2      1      
iter:  13  15:14:03         -3.70  -168.468862    2      1      
iter:  14  15:14:03         -3.88  -168.468622    2      1      
iter:  15  15:14:04         -4.15  -168.468642    2      1      

Converged after 15 iterations.

Dipole moment: (-0.347804, -0.231430, 0.031767) |e|*Ang

Energy contributions relative to reference atoms: (reference = -24663.074771)

Kinetic:       +134.135427
Potential:     -128.543351
External:        +0.000000
XC:            -176.825819
Entropy (-ST):   -0.280104
Local:           +2.905152
--------------------------
Free energy:   -168.608694
Extrapolated:  -168.468642

Fermi level: -4.37094

 Band  Eigenvalues  Occupancy
    0    -25.23061    2.00000
    1    -23.35207    2.00000
    2    -22.56508    2.00000
    3    -21.74106    2.00000
    4    -21.53954    2.00000
    5    -21.02018    2.00000
    6    -19.95671    2.00000
    7    -19.64070    2.00000
    8    -19.28210    2.00000
    9    -18.59947    2.00000
   10    -17.83396    2.00000
   11    -17.17292    2.00000
   12    -16.60774    2.00000
   13    -16.11314    2.00000
   14    -15.33122    2.00000
   15    -14.96520    2.00000
   16    -14.23014    2.00000
   17    -13.80838    2.00000
   18    -13.56674    2.00000
   19    -13.28151    2.00000
   20    -12.58886    2.00000
   21    -12.51414    2.00000
   22    -11.97120    2.00000
   23    -11.76203    2.00000
   24    -11.44700    2.00000
   25    -11.38845    2.00000
   26    -10.64610    2.00000
   27    -10.59626    2.00000
   28    -10.24018    2.00000
   29     -9.75755    2.00000
   30     -9.56642    2.00000
   31     -9.29238    2.00000
   32     -8.91751    2.00000
   33     -8.68735    2.00000
   34     -8.58313    2.00000
   35     -7.76594    2.00000
   36     -7.29859    2.00000
   37     -7.12465    2.00000
   38     -6.83094    2.00000
   39     -6.70606    2.00000
   40     -6.43678    2.00000
   41     -5.95036    2.00000
   42     -5.83146    2.00000
   43     -5.37189    1.99991
   44     -5.34572    1.99988
   45     -4.92508    1.99219
   46     -4.78939    1.97000
   47     -4.45014    1.37650
   48     -4.29703    0.64639
   49     -3.87861    0.01445
   50     -3.53958    0.00049
   51     -3.42808    0.00016
   52     -3.29764    0.00004
   53     -2.65401    0.00000
   54     -2.55601    0.00000
   55     -2.16567    0.00000
   56     -1.90738    0.00000
   57     -1.23486    0.00000
   58     -0.95149    0.00000
   59     -0.69717    0.00000
   60      0.04097    0.00000
   61      0.39860    0.00000
   62      0.69996    0.00000
   63      1.34545    0.00000
   64      1.58203    0.00000
   65      2.52638    0.00000
   66      2.86430    0.00000
   67      3.05036    0.00000
   68      3.47922    0.00000
   69      3.64286    0.00000
   70      3.98022    0.00000
   71      4.40831    0.00000
   72      5.01700    0.00000
   73      5.52695    0.00000
   74      5.85454    0.00000
   75      6.17709    0.00000
   76      6.55490    0.00000
   77      7.12826    0.00000
   78      7.47113    0.00000
   79      7.63225    0.00000
   80      7.87896    0.00000
   81      8.11954    0.00000
   82      8.37862    0.00000
   83      8.57418    0.00000
   84      8.64928    0.00000
   85      8.72264    0.00000
   86      8.99512    0.00000
   87      9.11918    0.00000
   88      9.14552    0.00000
   89      9.30465    0.00000
   90      9.49090    0.00000
   91      9.56869    0.00000
   92      9.63314    0.00000
   93      9.74437    0.00000
   94      9.85734    0.00000
   95      9.93074    0.00000
   96      9.99742    0.00000
   97     10.25579    0.00000


Forces in eV/Ang:
  0 C    -6.40843   -1.66123    0.29617
  1 C     0.07578   -0.80559    0.26926
  2 C     0.28236   -2.40775    1.21700
  3 C    -1.26135   -0.58055   -0.24540
  4 C    -0.51609   -0.95328   -0.51135
  5 C    -0.69213   -0.85918    1.95570
  6 C     0.08454    0.82426   -1.76230
  7 C    -1.34926    0.25720   -0.90585
  8 C    -0.05760    0.03299   -0.04212
  9 C    -0.16343   -0.09127    0.28172
 10 C    -1.52297   -0.02475    0.24211
 11 C    -0.45894    0.31738   -0.32585
 12 C     2.50984   -0.51948   -1.12850
 13 C     0.01739   -0.15651    0.51267
 14 C     0.45685   -1.90192    0.15465
 15 C    -0.62434    1.33943   -0.10102
 16 C     2.95404    1.60177   -0.03699
 17 C     0.33070   -0.78859   -0.69048
 18 C    -0.09313    1.55724    0.32817
 19 C     1.71364    0.91469   -0.19073
 20 C     1.25615    0.67175   -0.17365
 21 C     0.12413   -0.01337   -0.07329
 22 C     1.29871    0.24191    0.49699
 23 C     2.05113    2.99299    0.45594

System changes: positions 

Initializing position-dependent things.

Density initialized from wave functions
           .--------------------------------------.  
          /|                                      |  
         / |                                      |  
        /  |                                      |  
       /   |                                      |  
      /    |                                      |  
     /     |                                      |  
    /      |                                      |  
   /       |             C                        |  
  /        |        C   C   C C                   |  
 *         |       C   C      C                   |  
 |         |    C   C   C   C    C C              |  
 |         .---C--C------C---C-C---C--------------.  
 |        /         C   C C  C                   /   
 |       /                                      /    
 |      /                                      /     
 |     /                                      /      
 |    /                                      /       
 |   /                                      /        
 |  /                                      /         
 | /                                      /          
 |/                                      /           
 *--------------------------------------*            

Positions:
   0 C      5.229393   10.364096    5.087520
   1 C     12.067683    6.976086    5.102686
   2 C      5.964021    7.298921    5.734431
   3 C      7.915481    5.263512    4.755989
   4 C      8.314412    6.584923    4.945584
   5 C      6.506064    5.259464    4.480016
   6 C      5.572974    5.985653    5.213505
   7 C     11.957195    8.336538    4.991743
   8 C     10.351050    4.965828    4.939864
   9 C     10.814440    6.310129    5.026503
  10 C      9.557661    7.176957    5.008708
  11 C      9.154557    4.530788    4.803154
  12 C      6.486014    9.216960    5.087492
  13 C      7.377295    8.123246    5.118480
  14 C      4.108601    7.943899    5.068953
  15 C      6.565051   10.681039    5.110992
  16 C      6.693238   12.107341    5.087559
  17 C      4.246055    6.638187    4.944201
  18 C      4.990709    8.997875    5.159750
  19 C      7.964438   11.530066    4.978738
  20 C      9.116560   10.929115    4.840576
  21 C      9.573748    9.621029    4.865815
  22 C      8.791980    8.462197    5.081922
  23 C     10.794036    8.872750    4.721780

Unit cell:
           periodic     x           y           z      points  spacing
  1. axis:    yes   16.000000    0.000000    0.000000    80     0.2000
  2. axis:    yes    0.000000   16.000000    0.000000    80     0.2000
  3. axis:    yes    0.000000    0.000000   10.000000    48     0.2083

Effective grid spacing dv^(1/3) = 0.2027

                     log10-error:    total        iterations:
           time      wfs    density  energy       fermi  poisson
iter:   1  15:14:05          +inf  -169.403733    3      5      
iter:   2  15:14:06         -2.03  -169.365685    3      2      
iter:   3  15:14:06         -2.19  -169.349530    3      2      
iter:   4  15:14:07         -2.32  -169.344928    3      2      
iter:   5  15:14:07         -2.41  -169.340878    2      2      
iter:   6  15:14:08         -2.58  -169.338693    2      2      
iter:   7  15:14:08         -2.82  -169.337267    2      1      
iter:   8  15:14:09         -2.90  -169.338522    2      2      
iter:   9  15:14:09         -3.20  -169.339456    2      1      
iter:  10  15:14:10         -3.35  -169.339276    2      1      
iter:  11  15:14:10         -3.44  -169.340401    2      1      
iter:  12  15:14:11         -3.57  -169.339922    2      1      
iter:  13  15:14:11         -3.63  -169.339982    2      1      
iter:  14  15:14:12         -3.83  -169.339509    2      1      
iter:  15  15:14:12         -4.03  -169.338953    2      1      

Converged after 15 iterations.

Dipole moment: (-0.353921, -0.265879, 0.025765) |e|*Ang

Energy contributions relative to reference atoms: (reference = -24663.074771)

Kinetic:       +134.039752
Potential:     -129.223880
External:        +0.000000
XC:            -176.924426
Entropy (-ST):   -0.283980
Local:           +2.911590
--------------------------
Free energy:   -169.480943
Extrapolated:  -169.338953

Fermi level: -4.38465

 Band  Eigenvalues  Occupancy
    0    -24.95481    2.00000
    1    -23.33442    2.00000
    2    -22.49485    2.00000
    3    -21.61491    2.00000
    4    -21.55559    2.00000
    5    -20.99097    2.00000
    6    -19.97447    2.00000
    7    -19.63710    2.00000
    8    -19.22777    2.00000
    9    -18.58629    2.00000
   10    -17.82968    2.00000
   11    -17.11947    2.00000
   12    -16.63679    2.00000
   13    -16.10420    2.00000
   14    -15.37439    2.00000
   15    -14.92520    2.00000
   16    -14.20319    2.00000
   17    -13.83478    2.00000
   18    -13.55603    2.00000
   19    -13.24683    2.00000
   20    -12.62308    2.00000
   21    -12.53889    2.00000
   22    -11.93918    2.00000
   23    -11.68253    2.00000
   24    -11.44209    2.00000
   25    -11.39588    2.00000
   26    -10.61990    2.00000
   27    -10.58867    2.00000
   28    -10.24729    2.00000
   29     -9.68308    2.00000
   30     -9.55025    2.00000
   31     -9.32925    2.00000
   32     -8.93545    2.00000
   33     -8.70157    2.00000
   34     -8.60304    2.00000
   35     -7.78055    2.00000
   36     -7.33525    2.00000
   37     -7.16342    2.00000
   38     -6.90066    2.00000
   39     -6.70494    2.00000
   40     -6.44878    2.00000
   41     -5.93037    2.00000
   42     -5.83672    2.00000
   43     -5.39940    1.99992
   44     -5.36149    1.99989
   45     -4.99710    1.99563
   46     -4.78527    1.96425
   47     -4.45723    1.34774
   48     -4.31814    0.67918
   49     -3.88099    0.01291
   50     -3.51322    0.00033
   51     -3.41721    0.00013
   52     -3.28551    0.00003
   53     -2.68925    0.00000
   54     -2.54775    0.00000
   55     -2.18655    0.00000
   56     -1.84803    0.00000
   57     -1.16383    0.00000
   58     -0.93992    0.00000
   59     -0.69008    0.00000
   60      0.03623    0.00000
   61      0.51057    0.00000
   62      0.73437    0.00000
   63      1.32708    0.00000
   64      1.57292    0.00000
   65      2.58039    0.00000
   66      2.90508    0.00000
   67      3.05422    0.00000
   68      3.54809    0.00000
   69      3.66006    0.00000
   70      3.96667    0.00000
   71      4.49924    0.00000
   72      4.94253    0.00000
   73      5.54380    0.00000
   74      5.87740    0.00000
   75      6.17113    0.00000
   76      6.61597    0.00000
   77      7.22482    0.00000
   78      7.57741    0.00000
   79      7.63445    0.00000
   80      7.87873    0.00000
   81      8.09776    0.00000
   82      8.41422    0.00000
   83      8.62669    0.00000
   84      8.65012    0.00000
   85      8.75919    0.00000
   86      9.01456    0.00000
   87      9.10598    0.00000
   88      9.16707    0.00000
   89      9.31504    0.00000
   90      9.48827    0.00000
   91      9.58513    0.00000
   92      9.67143    0.00000
   93      9.73358    0.00000
   94      9.87214    0.00000
   95      9.93639    0.00000
   96      9.98967    0.00000
   97     10.25279    0.00000


Forces in eV/Ang:
  0 C    -5.19564   -1.12501    0.35333
  1 C     0.05546   -0.70199    0.21864
  2 C     0.14906   -2.05930    1.27554
  3 C    -1.05917   -0.60600   -0.19854
  4 C    -0.67464   -0.81176   -0.41943
  5 C    -0.60143   -1.02916    1.65153
  6 C     0.02410    0.50173   -1.54978
  7 C    -1.09421    0.02643   -0.77962
  8 C    -0.19944    0.00789   -0.06862
  9 C    -0.26652    0.09211    0.24420
 10 C    -1.31140   -0.16439    0.30559
 11 C    -0.35786    0.29407   -0.29602
 12 C     1.92933    0.00773   -1.09469
 13 C     0.12711   -0.12402    0.39962
 14 C     0.64296   -1.43541    0.27622
 15 C    -1.23282    1.34954   -0.10785
 16 C     2.62513    0.97064    0.00589
 17 C     0.29640   -0.84049   -0.74868
 18 C    -0.31970    0.88307    0.18256
 19 C     1.86814    0.86468   -0.20365
 20 C     1.13129    0.61372   -0.17425
 21 C     0.33268    0.10841   -0.03420
 22 C     1.24669    0.07805    0.43354
 23 C     1.83120    3.05939    0.38161

System changes: positions 

Initializing position-dependent things.

Density initialized from wave functions
           .--------------------------------------.  
          /|                                      |  
         / |                                      |  
        /  |                                      |  
       /   |                                      |  
      /    |                                      |  
     /     |                                      |  
    /      |                                      |  
   /       |             C                        |  
  /        |        C   C   C C                   |  
 *         |       C   C      C                   |  
 |         |    C   C   C   C    C C              |  
 |         .----C-C------C---C-C---C--------------.  
 |        /         C   C C  C                   /   
 |       /                                      /    
 |      /                                      /     
 |     /                                      /      
 |    /                                      /       
 |   /                                      /        
 |  /                                      /         
 | /                                      /          
 |/                                      /           
 *--------------------------------------*            

Positions:
   0 C      5.190486   10.355978    5.092029
   1 C     12.068150    6.969258    5.104710
   2 C      5.964772    7.278852    5.748351
   3 C      7.905317    5.256904    4.754137
   4 C      8.306255    6.576994    4.941609
   5 C      6.500179    5.247505    4.495871
   6 C      5.573036    5.988969    5.198287
   7 C     11.946781    8.335480    4.984054
   8 C     10.348120    4.965817    4.938982
   9 C     10.811029    6.312167    5.028891
  10 C      9.544703    7.174450    5.012321
  11 C      9.151267    4.533818    4.800155
  12 C      6.503482    9.222322    5.075809
  13 C      7.379533    8.121963    5.122096
  14 C      4.117499    7.931576    5.072740
  15 C      6.539348   10.693706    5.109506
  16 C      6.718988   12.113656    5.087915
  17 C      4.249057    6.629578    4.935895
  18 C      4.983899    9.002026    5.160684
  19 C      7.985874   11.539176    4.976435
  20 C      9.128284   10.934848    4.838609
  21 C      9.578437    9.623056    4.865707
  22 C      8.805200    8.462143    5.086298
  23 C     10.812582    8.905882    4.725450

Unit cell:
           periodic     x           y           z      points  spacing
  1. axis:    yes   16.000000    0.000000    0.000000    80     0.2000
  2. axis:    yes    0.000000   16.000000    0.000000    80     0.2000
  3. axis:    yes    0.000000    0.000000   10.000000    48     0.2083

Effective grid spacing dv^(1/3) = 0.2027

                     log10-error:    total        iterations:
           time      wfs    density  energy       fermi  poisson
iter:   1  15:14:14          +inf  -170.214245    3      5      
iter:   2  15:14:14         -2.02  -170.171515    2      2      
iter:   3  15:14:15         -2.20  -170.155182    3      2      
iter:   4  15:14:15         -2.35  -170.148849    2      2      
iter:   5  15:14:16         -2.52  -170.148548    2      2      
iter:   6  15:14:16         -2.60  -170.145756    2      2      
iter:   7  15:14:17         -2.82  -170.144774    2      1      
iter:   8  15:14:17         -2.90  -170.145783    2      2      
iter:   9  15:14:18         -3.13  -170.145247    2      1      
iter:  10  15:14:18         -3.33  -170.146254    2      1      
iter:  11  15:14:19         -3.41  -170.148509    2      1      
iter:  12  15:14:19         -3.63  -170.147040    2      1      
iter:  13  15:14:20         -3.51  -170.146784    2      1      
iter:  14  15:14:20         -3.81  -170.146500    2      1      
iter:  15  15:14:21         -3.92  -170.146449    2      1      
iter:  16  15:14:21         -4.27  -170.146314    2      1      

Converged after 16 iterations.

Dipole moment: (-0.359371, -0.299631, 0.019820) |e|*Ang

Energy contributions relative to reference atoms: (reference = -24663.074771)

Kinetic:       +133.494407
Potential:     -129.527752
External:        +0.000000
XC:            -176.883904
Entropy (-ST):   -0.287576
Local:           +2.914724
--------------------------
Free energy:   -170.290102
Extrapolated:  -170.146314

Fermi level: -4.39446

 Band  Eigenvalues  Occupancy
    0    -24.66870    2.00000
    1    -23.30992    2.00000
    2    -22.46271    2.00000
    3    -21.57174    2.00000
    4    -21.45185    2.00000
    5    -20.95663    2.00000
    6    -19.99123    2.00000
    7    -19.62870    2.00000
    8    -19.16896    2.00000
    9    -18.57017    2.00000
   10    -17.82946    2.00000
   11    -17.07108    2.00000
   12    -16.65919    2.00000
   13    -16.09270    2.00000
   14    -15.42270    2.00000
   15    -14.88597    2.00000
   16    -14.17719    2.00000
   17    -13.86596    2.00000
   18    -13.54539    2.00000
   19    -13.21815    2.00000
   20    -12.65403    2.00000
   21    -12.55399    2.00000
   22    -11.90627    2.00000
   23    -11.66021    2.00000
   24    -11.41530    2.00000
   25    -11.34710    2.00000
   26    -10.61509    2.00000
   27    -10.54158    2.00000
   28    -10.25188    2.00000
   29     -9.62821    2.00000
   30     -9.54715    2.00000
   31     -9.36436    2.00000
   32     -8.94181    2.00000
   33     -8.71013    2.00000
   34     -8.61547    2.00000
   35     -7.79451    2.00000
   36     -7.36676    2.00000
   37     -7.19868    2.00000
   38     -6.96469    2.00000
   39     -6.70777    2.00000
   40     -6.46393    2.00000
   41     -5.96531    2.00000
   42     -5.83974    2.00000
   43     -5.45187    1.99995
   44     -5.34916    1.99986
   45     -5.05034    1.99717
   46     -4.78564    1.96078
   47     -4.46234    1.32695
   48     -4.33281    0.70117
   49     -3.89698    0.01373
   50     -3.50147    0.00026
   51     -3.41260    0.00011
   52     -3.26236    0.00002
   53     -2.73463    0.00000
   54     -2.53770    0.00000
   55     -2.20717    0.00000
   56     -1.78283    0.00000
   57     -1.10644    0.00000
   58     -0.92647    0.00000
   59     -0.68228    0.00000
   60      0.03388    0.00000
   61      0.59177    0.00000
   62      0.77532    0.00000
   63      1.28267    0.00000
   64      1.59175    0.00000
   65      2.61523    0.00000
   66      2.94027    0.00000
   67      3.06532    0.00000
   68      3.59185    0.00000
   69      3.68385    0.00000
   70      3.95136    0.00000
   71      4.54544    0.00000
   72      4.92707    0.00000
   73      5.55849    0.00000
   74      5.91078    0.00000
   75      6.15168    0.00000
   76      6.67573    0.00000
   77      7.27702    0.00000
   78      7.60727    0.00000
   79      7.64597    0.00000
   80      7.86500    0.00000
   81      8.07192    0.00000
   82      8.44695    0.00000
   83      8.63712    0.00000
   84      8.67955    0.00000
   85      8.79264    0.00000
   86      9.00134    0.00000
   87      9.10752    0.00000
   88      9.18025    0.00000
   89      9.32551    0.00000
   90      9.47647    0.00000
   91      9.58149    0.00000
   92      9.66063    0.00000
   93      9.74314    0.00000
   94      9.88152    0.00000
   95      9.93279    0.00000
   96      9.99943    0.00000
   97     10.25089    0.00000


Forces in eV/Ang:
  0 C    -4.08709   -0.55158    0.37817
  1 C    -0.00038   -0.56946    0.15313
  2 C     0.05506   -1.69288    1.32339
  3 C    -0.85350   -0.59449   -0.16929
  4 C    -0.81749   -0.64718   -0.33538
  5 C    -0.47943   -1.19803    1.34407
  6 C    -0.03279    0.22318   -1.34754
  7 C    -0.87004   -0.20268   -0.64692
  8 C    -0.23273    0.04317   -0.07961
  9 C    -0.35551    0.21721    0.21847
 10 C    -1.06298   -0.27014    0.34225
 11 C    -0.37004    0.22485   -0.28016
 12 C     1.35362    0.36159   -1.02091
 13 C     0.24387   -0.08593    0.27903
 14 C     0.76817   -1.09476    0.38644
 15 C    -1.71203    1.25476   -0.12042
 16 C     2.29410    0.39882    0.00204
 17 C     0.26765   -0.85091   -0.74079
 18 C    -0.42922    0.39687    0.04589
 19 C     1.96345    0.86101   -0.22490
 20 C     0.99831    0.52689   -0.16810
 21 C     0.51594    0.23558   -0.00309
 22 C     1.17001   -0.07365    0.38553
 23 C     1.59559    3.05988    0.32945

System changes: positions 

Initializing position-dependent things.

Density initialized from wave functions
           .--------------------------------------.  
          /|                                      |  
         / |                                      |  
        /  |                                      |  
       /   |                                      |  
      /    |                                      |  
     /     |                                      |  
    /      |                                      |  
   /       |             C                        |  
  /        |        C   C   C C                   |  
 *         |       C   C      C                   |  
 |         |    C   C   C   CC   C C              |  
 |         .----C-C------C-----C---C--------------.  
 |        /         C   C C  C                   /   
 |       /                                      /    
 |      /                                      /     
 |     /                                      /      
 |    /                                      /       
 |   /                                      /        
 |  /                                      /         
 | /                                      /          
 |/                                      /           
 *--------------------------------------*            

Positions:
   0 C      5.151841   10.353500    5.096464
   1 C     12.068001    6.962897    5.106215
   2 C      5.965269    7.260119    5.763815
   3 C      7.895715    5.249945    4.752208
   4 C      8.296454    6.570144    4.938036
   5 C      6.494736    5.233002    4.510853
   6 C      5.572664    5.990910    5.182936
   7 C     11.936747    8.332971    4.976735
   8 C     10.345316    4.966556    4.938013
   9 C     10.806681    6.314623    5.031428
  10 C      9.532921    7.170921    5.016427
  11 C      9.147182    4.536205    4.796962
  12 C      6.518731    9.228542    5.064161
  13 C      7.382723    8.120865    5.124945
  14 C      4.126237    7.918699    5.077578
  15 C      6.512710   10.705454    5.108216
  16 C      6.744038   12.117268    5.088003
  17 C      4.252149    6.620371    4.927193
  18 C      4.977569    9.004295    5.160904
  19 C      8.008652   11.549731    4.973798
  20 C      9.140451   10.940302    4.836535
  21 C      9.584781    9.625744    4.865855
  22 C      8.818443    8.461905    5.090555
  23 C     10.831442    8.940947    4.729296

Unit cell:
           periodic     x           y           z      points  spacing
  1. axis:    yes   16.000000    0.000000    0.000000    80     0.2000
  2. axis:    yes    0.000000   16.000000    0.000000    80     0.2000
  3. axis:    yes    0.000000    0.000000   10.000000    48     0.2083

Effective grid spacing dv^(1/3) = 0.2027

                     log10-error:    total        iterations:
           time      wfs    density  energy       fermi  poisson
iter:   1  15:14:23          +inf  -170.937841    3      5      
iter:   2  15:14:23         -2.02  -170.894438    2      2      
iter:   3  15:14:24         -2.21  -170.879591    3      2      
iter:   4  15:14:24         -2.36  -170.876550    2      2      
iter:   5  15:14:25         -2.45  -170.873537    2      2      
iter:   6  15:14:25         -2.60  -170.870965    2      2      
iter:   7  15:14:26         -2.84  -170.869937    2      1      
iter:   8  15:14:26         -2.94  -170.870928    2      2      
iter:   9  15:14:27         -3.15  -170.870948    2      1      
iter:  10  15:14:27         -3.40  -170.871258    2      1      
iter:  11  15:14:28         -3.49  -170.871889    2      1      
iter:  12  15:14:28         -3.59  -170.871811    2      1      
iter:  13  15:14:29         -3.71  -170.871865    2      1      
iter:  14  15:14:29         -3.83  -170.871476    1      1      
iter:  15  15:14:30         -3.99  -170.871277    2      1      
iter:  16  15:14:30         -4.09  -170.871222    2      1      

Converged after 16 iterations.

Dipole moment: (-0.362188, -0.332131, 0.013803) |e|*Ang

Energy contributions relative to reference atoms: (reference = -24663.074771)

Kinetic:       +132.391643
Potential:     -129.349306
External:        +0.000000
XC:            -176.687555
Entropy (-ST):   -0.289517
Local:           +2.918754
--------------------------
Free energy:   -171.015981
Extrapolated:  -170.871222

Fermi level: -4.40061

 Band  Eigenvalues  Occupancy
    0    -24.38588    2.00000
    1    -23.27866    2.00000
    2    -22.44835    2.00000
    3    -21.58087    2.00000
    4    -21.27288    2.00000
    5    -20.92201    2.00000
    6    -20.00450    2.00000
    7    -19.61210    2.00000
    8    -19.10611    2.00000
    9    -18.54671    2.00000
   10    -17.82859    2.00000
   11    -17.02832    2.00000
   12    -16.67018    2.00000
   13    -16.07723    2.00000
   14    -15.46632    2.00000
   15    -14.85530    2.00000
   16    -14.14440    2.00000
   17    -13.89910    2.00000
   18    -13.53149    2.00000
   19    -13.20107    2.00000
   20    -12.68006    2.00000
   21    -12.55976    2.00000
   22    -11.87722    2.00000
   23    -11.66590    2.00000
   24    -11.38653    2.00000
   25    -11.25942    2.00000
   26    -10.60922    2.00000
   27    -10.48538    2.00000
   28    -10.24792    2.00000
   29     -9.60109    2.00000
   30     -9.56228    2.00000
   31     -9.37707    2.00000
   32     -8.94046    2.00000
   33     -8.71108    2.00000
   34     -8.62200    2.00000
   35     -7.80522    2.00000
   36     -7.38934    2.00000
   37     -7.22752    2.00000
   38     -7.01864    2.00000
   39     -6.71076    2.00000
   40     -6.47188    2.00000
   41     -6.02676    2.00000
   42     -5.85089    2.00000
   43     -5.50330    1.99997
   44     -5.32866    1.99981
   45     -5.07688    1.99769
   46     -4.79245    1.96103
   47     -4.46720    1.32119
   48     -4.33919    0.70220
   49     -3.92909    0.01776
   50     -3.49838    0.00024
   51     -3.41295    0.00010
   52     -3.23314    0.00002
   53     -2.79281    0.00000
   54     -2.53377    0.00000
   55     -2.22981    0.00000
   56     -1.72405    0.00000
   57     -1.06901    0.00000
   58     -0.91265    0.00000
   59     -0.67040    0.00000
   60      0.03305    0.00000
   61      0.62852    0.00000
   62      0.80771    0.00000
   63      1.24610    0.00000
   64      1.63589    0.00000
   65      2.62947    0.00000
   66      2.97900    0.00000
   67      3.08045    0.00000
   68      3.60785    0.00000
   69      3.72824    0.00000
   70      3.94794    0.00000
   71      4.55608    0.00000
   72      4.98724    0.00000
   73      5.55864    0.00000
   74      5.95570    0.00000
   75      6.12692    0.00000
   76      6.74361    0.00000
   77      7.27832    0.00000
   78      7.56271    0.00000
   79      7.67610    0.00000
   80      7.85207    0.00000
   81      8.05608    0.00000
   82      8.47269    0.00000
   83      8.63300    0.00000
   84      8.71367    0.00000
   85      8.82053    0.00000
   86      8.96799    0.00000
   87      9.10631    0.00000
   88      9.19496    0.00000
   89      9.32932    0.00000
   90      9.45661    0.00000
   91      9.54894    0.00000
   92      9.63014    0.00000
   93      9.76914    0.00000
   94      9.88189    0.00000
   95      9.93077    0.00000
   96     10.01348    0.00000
   97     10.25181    0.00000


Forces in eV/Ang:
  0 C    -3.17404   -0.11004    0.37705
  1 C    -0.04471   -0.43123    0.08138
  2 C    -0.01162   -1.36652    1.35147
  3 C    -0.64326   -0.56044   -0.13884
  4 C    -0.87104   -0.45031   -0.26812
  5 C    -0.39788   -1.31647    1.11149
  6 C    -0.04851   -0.00385   -1.17869
  7 C    -0.72603   -0.34927   -0.53984
  8 C    -0.35451    0.02777   -0.09547
  9 C    -0.41323    0.30674    0.20669
 10 C    -0.83444   -0.33436    0.34754
 11 C    -0.28507    0.18519   -0.25090
 12 C     0.82952    0.53390   -0.94250
 13 C     0.35752   -0.04972    0.15961
 14 C     0.86076   -0.74902    0.46264
 15 C    -2.00636    1.13814   -0.08233
 16 C     1.95409   -0.08659    0.00149
 17 C     0.22451   -0.81749   -0.71499
 18 C    -0.46605    0.07415   -0.07578
 19 C     1.96526    0.84451   -0.22946
 20 C     0.91130    0.46558   -0.19534
 21 C     0.64830    0.33784    0.02696
 22 C     1.05545   -0.17304    0.31636
 23 C     1.46336    2.91023    0.28923

System changes: positions 

Initializing position-dependent things.

Density initialized from wave functions
           .--------------------------------------.  
          /|                                      |  
         / |                                      |  
        /  |                                      |  
       /   |                                      |  
      /    |                                      |  
     /     |                                      |  
    /      |                                      |  
   /       |             C                        |  
  /        |        C   C   C C                   |  
[...]
    5    -20.43325    2.00000
    6    -19.75952    2.00000
    7    -19.26244    2.00000
    8    -18.23279    2.00000
    9    -18.15950    2.00000
   10    -17.78347    2.00000
   11    -16.67113    2.00000
   12    -16.60624    2.00000
   13    -16.13312    2.00000
   14    -15.02716    2.00000
   15    -14.52045    2.00000
   16    -14.40779    2.00000
   17    -14.28741    2.00000
   18    -13.18991    2.00000
   19    -12.82593    2.00000
   20    -12.58889    2.00000
   21    -12.43397    2.00000
   22    -11.98917    2.00000
   23    -10.99939    2.00000
   24    -10.94332    2.00000
   25    -10.59926    2.00000
   26    -10.48813    2.00000
   27    -10.40200    2.00000
   28     -9.94628    2.00000
   29     -9.73663    2.00000
   30     -9.47030    2.00000
   31     -9.36548    2.00000
   32     -9.14616    2.00000
   33     -9.10285    2.00000
   34     -8.44656    2.00000
   35     -8.18296    2.00000
   36     -7.62297    2.00000
   37     -7.46481    2.00000
   38     -7.06931    2.00000
   39     -6.87763    2.00000
   40     -6.54849    2.00000
   41     -6.50132    2.00000
   42     -5.92685    2.00000
   43     -5.71845    1.99999
   44     -5.66782    1.99999
   45     -5.09320    1.99739
   46     -4.74211    1.91631
   47     -4.69616    1.87066
   48     -4.20443    0.19143
   49     -3.98875    0.02420
   50     -3.23658    0.00001
   51     -2.91067    0.00000
   52     -2.85859    0.00000
   53     -2.06846    0.00000
   54     -1.94212    0.00000
   55     -1.71978    0.00000
   56     -1.58029    0.00000
   57     -1.54586    0.00000
   58     -1.42950    0.00000
   59     -1.21333    0.00000
   60     -0.25002    0.00000
   61      1.09765    0.00000
   62      1.59338    0.00000
   63      1.93759    0.00000
   64      2.65986    0.00000
   65      3.12134    0.00000
   66      3.86413    0.00000
   67      3.88726    0.00000
   68      4.63954    0.00000
   69      4.98033    0.00000
   70      5.05195    0.00000
   71      5.48208    0.00000
   72      5.93564    0.00000
   73      6.00025    0.00000
   74      6.04530    0.00000
   75      6.49979    0.00000
   76      6.78110    0.00000
   77      6.96586    0.00000
   78      7.38720    0.00000
   79      7.68006    0.00000
   80      7.84421    0.00000
   81      8.04244    0.00000
   82      8.25280    0.00000
   83      8.55434    0.00000
   84      8.72321    0.00000
   85      8.87030    0.00000
   86      8.92454    0.00000
   87      9.14853    0.00000
   88      9.35368    0.00000
   89      9.39469    0.00000
   90      9.41835    0.00000
   91      9.49648    0.00000
   92      9.61653    0.00000
   93      9.76917    0.00000
   94      9.84194    0.00000
   95     10.08759    0.00000
   96     10.17466    0.00000
   97     10.29046    0.00000


Forces in eV/Ang:
  0 C    -0.02201    0.03291    0.02015
  1 C    -0.01848    0.00960   -0.00226
  2 C     0.00088   -0.02999    0.02999
  3 C    -0.09451   -0.06453   -0.00856
  4 C    -0.01891   -0.04018    0.00633
  5 C     0.07234   -0.02448   -0.01566
  6 C    -0.00104    0.01544    0.01084
  7 C     0.05685    0.11609   -0.05039
  8 C     0.04932   -0.01534    0.03470
  9 C    -0.02622    0.01533   -0.01022
 10 C    -0.06172    0.01130    0.03441
 11 C    -0.06726   -0.00804    0.04725
 12 C     0.00349   -0.10721    0.00120
 13 C     0.07780    0.08554   -0.05330
 14 C     0.02807    0.02947    0.00582
 15 C     0.05507   -0.00493    0.04318
 16 C     0.07100    0.01735    0.01834
 17 C    -0.05150   -0.08839   -0.09567
 18 C     0.05851    0.07053   -0.03675
 19 C    -0.02393   -0.08027   -0.01645
 20 C    -0.01144   -0.05624    0.05455
 21 C    -0.04677   -0.02530    0.03959
 22 C    -0.07647    0.08143    0.02822
 23 C     0.01617    0.05656   -0.04460

System changes: positions 

Initializing position-dependent things.

Density initialized from wave functions
           .--------------------------------------.  
          /|                                      |  
         / |                                      |  
        /  |                                      |  
       /   |                                      |  
      /    |                                      |  
     /     |                                      |  
    /      |                                      |  
   /       |                                      |  
  /        |       C   C C   C C                  |  
 *         |    C  C   C        C  C              |  
 |         |     C       C   C     C              |  
 |         .-----C-------C---C-C---C--------------.  
 |        /     C   C  C  C  C                   /   
 |       /                                      /    
 |      /                                      /     
 |     /                                      /      
 |    /                                      /       
 |   /                                      /        
 |  /                                      /         
 | /                                      /          
 |/                                      /           
 *--------------------------------------*            

Positions:
   0 C      4.746199   10.212706    5.123940
   1 C     12.016380    6.946151    4.913569
   2 C      4.614078    6.470899    6.244871
   3 C      7.710565    5.534756    4.929136
   4 C      8.122913    6.931288    4.973573
   5 C      6.382289    5.112380    5.016665
   6 C      5.174147    5.527821    5.186604
   7 C     11.900449    8.268728    4.974281
   8 C     10.117571    5.115413    4.782783
   9 C     10.683291    6.425285    4.863435
  10 C      9.516115    7.306814    4.927185
  11 C      8.912131    4.752870    4.806792
  12 C      6.512600    9.101994    5.090380
  13 C      7.715044    8.414602    5.024705
  14 C      4.516697    7.529249    5.303309
  15 C      6.144382   10.653379    5.023720
  16 C      7.047055   11.610006    4.936117
  17 C      4.311050    6.468302    4.381045
  18 C      5.089121    8.840883    5.197068
  19 C      8.382261   11.630763    4.908623
  20 C      9.544792   11.138603    4.908194
  21 C     10.139541    9.839841    4.948740
  22 C      9.211447    8.729742    4.962109
  23 C     11.533130    9.518356    4.989264

Unit cell:
           periodic     x           y           z      points  spacing
  1. axis:    yes   16.000000    0.000000    0.000000    80     0.2000
  2. axis:    yes    0.000000   16.000000    0.000000    80     0.2000
  3. axis:    yes    0.000000    0.000000   10.000000    48     0.2083

Effective grid spacing dv^(1/3) = 0.2027

                     log10-error:    total        iterations:
           time      wfs    density  energy       fermi  poisson
iter:   1  15:22:33          +inf  -179.610966    2      5      
iter:   2  15:22:33         -2.79  -179.609570    2      1      
iter:   3  15:22:33         -2.87  -179.608098    2      1      
iter:   4  15:22:34         -2.98  -179.607080    2      1      
iter:   5  15:22:34         -3.16  -179.607651    2      1      
iter:   6  15:22:35         -3.35  -179.608169    2      1      
iter:   7  15:22:35         -3.46  -179.608258    2      1      
iter:   8  15:22:36         -3.75  -179.608559    2      1      
iter:   9  15:22:36         -3.82  -179.608768    2      1      
iter:  10  15:22:37         -3.91  -179.608604    2      1      
iter:  11  15:22:37         -3.73  -179.608745    2      1      
iter:  12  15:22:38         -4.14  -179.608754    2      1      

Converged after 12 iterations.

Dipole moment: (-0.198863, 0.002213, -0.026906) |e|*Ang

Energy contributions relative to reference atoms: (reference = -24663.074771)

Kinetic:       +113.898035
Potential:     -120.768359
External:        +0.000000
XC:            -175.607619
Entropy (-ST):   -0.163584
Local:           +2.950981
--------------------------
Free energy:   -179.690546
Extrapolated:  -179.608754

Fermi level: -4.43016

 Band  Eigenvalues  Occupancy
    0    -23.54331    2.00000
    1    -22.91659    2.00000
    2    -22.37160    2.00000
    3    -21.20374    2.00000
    4    -20.85159    2.00000
    5    -20.43789    2.00000
    6    -19.76528    2.00000
    7    -19.26270    2.00000
    8    -18.23763    2.00000
    9    -18.15695    2.00000
   10    -17.77970    2.00000
   11    -16.68045    2.00000
   12    -16.60933    2.00000
   13    -16.13300    2.00000
   14    -15.02620    2.00000
   15    -14.52781    2.00000
   16    -14.40270    2.00000
   17    -14.28375    2.00000
   18    -13.19284    2.00000
   19    -12.82896    2.00000
   20    -12.59604    2.00000
   21    -12.43232    2.00000
   22    -11.99496    2.00000
   23    -11.00102    2.00000
   24    -10.94558    2.00000
   25    -10.59535    2.00000
   26    -10.49468    2.00000
   27    -10.40604    2.00000
   28     -9.93060    2.00000
   29     -9.74706    2.00000
   30     -9.47282    2.00000
   31     -9.37728    2.00000
   32     -9.14865    2.00000
   33     -9.09996    2.00000
   34     -8.44334    2.00000
   35     -8.18447    2.00000
   36     -7.62337    2.00000
   37     -7.46867    2.00000
   38     -7.07391    2.00000
   39     -6.87627    2.00000
   40     -6.54875    2.00000
   41     -6.49497    2.00000
   42     -5.93329    2.00000
   43     -5.71377    1.99999
   44     -5.66265    1.99999
   45     -5.09451    1.99740
   46     -4.74059    1.91415
   47     -4.69524    1.86813
   48     -4.20754    0.19484
   49     -3.99517    0.02549
   50     -3.23906    0.00001
   51     -2.90747    0.00000
   52     -2.85813    0.00000
   53     -2.08391    0.00000
   54     -1.93462    0.00000
   55     -1.70730    0.00000
   56     -1.56432    0.00000
   57     -1.53942    0.00000
   58     -1.40979    0.00000
   59     -1.22526    0.00000
   60     -0.24417    0.00000
   61      1.09947    0.00000
   62      1.60057    0.00000
   63      1.94307    0.00000
   64      2.66476    0.00000
   65      3.10403    0.00000
   66      3.85714    0.00000
   67      3.89783    0.00000
   68      4.65014    0.00000
   69      4.98748    0.00000
   70      5.07444    0.00000
   71      5.47771    0.00000
   72      5.90448    0.00000
   73      5.99864    0.00000
   74      6.07203    0.00000
   75      6.54074    0.00000
   76      6.78775    0.00000
   77      6.98761    0.00000
   78      7.39158    0.00000
   79      7.65516    0.00000
   80      7.85414    0.00000
   81      8.05465    0.00000
   82      8.25533    0.00000
   83      8.55832    0.00000
   84      8.72390    0.00000
   85      8.87106    0.00000
   86      8.91684    0.00000
   87      9.15404    0.00000
   88      9.34389    0.00000
   89      9.39332    0.00000
   90      9.40967    0.00000
   91      9.49646    0.00000
   92      9.62054    0.00000
   93      9.77312    0.00000
   94      9.84065    0.00000
   95     10.09044    0.00000
   96     10.18676    0.00000
   97     10.28654    0.00000


Forces in eV/Ang:
  0 C    -0.01982    0.04819   -0.00180
  1 C     0.00770    0.03238   -0.00413
  2 C    -0.00064    0.02385    0.07353
  3 C    -0.01120   -0.01962   -0.01259
  4 C    -0.00342    0.00377    0.00197
  5 C     0.01635   -0.04250   -0.00038
  6 C     0.00589   -0.05116    0.01114
  7 C     0.03018    0.03502   -0.06302
  8 C     0.01180   -0.03087    0.02144
  9 C    -0.01710   -0.00171    0.00686
 10 C    -0.04176    0.00832    0.02234
 11 C    -0.00900   -0.00659    0.04092
 12 C     0.02986   -0.08455   -0.00770
 13 C     0.04264    0.05973   -0.03327
 14 C    -0.02099    0.00352    0.00292
 15 C     0.06006    0.03601    0.02531
 16 C    -0.01086   -0.00800    0.02533
 17 C    -0.07421   -0.04901   -0.13829
 18 C     0.06025    0.03609   -0.00337
 19 C    -0.00071   -0.03795   -0.01481
 20 C     0.00248   -0.03163    0.02618
 21 C    -0.04177   -0.03187    0.03446
 22 C    -0.05654    0.05596    0.02775
 23 C    -0.00954    0.03682   -0.03603

System changes: positions 

Initializing position-dependent things.

Density initialized from wave functions
           .--------------------------------------.  
          /|                                      |  
         / |                                      |  
        /  |                                      |  
       /   |                                      |  
      /    |                                      |  
     /     |                                      |  
    /      |                                      |  
   /       |                                      |  
  /        |       C   C C   C C                  |  
 *         |    C  C   C        C  C              |  
 |         |     C       C   C     C              |  
 |         .-----C-------C---C-C---C--------------.  
 |        /     C   C  C  C  C                   /   
 |       /                                      /    
 |      /                                      /     
 |     /                                      /      
 |    /                                      /       
 |   /                                      /        
 |  /                                      /         
 | /                                      /          
 |/                                      /           
 *--------------------------------------*            

Positions:
   0 C      4.746965   10.214345    5.117518
   1 C     12.014142    6.948417    4.920677
   2 C      4.634324    6.471863    6.251806
   3 C      7.707650    5.533797    4.916601
   4 C      8.121491    6.930736    4.969118
   5 C      6.380001    5.110682    4.995766
   6 C      5.174925    5.530250    5.179344
   7 C     11.902563    8.271432    4.971533
   8 C     10.116823    5.113463    4.793414
   9 C     10.681649    6.424834    4.873825
  10 C      9.514072    7.306385    4.932015
  11 C      8.910723    4.752755    4.803836
  12 C      6.513886    9.101121    5.088595
  13 C      7.716653    8.417074    5.016402
  14 C      4.519918    7.530032    5.313008
  15 C      6.144899   10.654433    5.020736
  16 C      7.048383   11.609126    4.936603
  17 C      4.294081    6.467948    4.392078
  18 C      5.091343    8.842322    5.197578
  19 C      8.383136   11.627414    4.907392
  20 C      9.545739   11.136336    4.913951
  21 C     10.140299    9.838825    4.947331
  22 C      9.210985    8.730753    4.960124
  23 C     11.535852    9.522133    4.981906

Unit cell:
           periodic     x           y           z      points  spacing
  1. axis:    yes   16.000000    0.000000    0.000000    80     0.2000
  2. axis:    yes    0.000000   16.000000    0.000000    80     0.2000
  3. axis:    yes    0.000000    0.000000   10.000000    48     0.2083

Effective grid spacing dv^(1/3) = 0.2027

                     log10-error:    total        iterations:
           time      wfs    density  energy       fermi  poisson
iter:   1  15:22:39          +inf  -179.614572    2      5      
iter:   2  15:22:40         -2.75  -179.612495    2      1      
iter:   3  15:22:40         -2.91  -179.610226    2      1      
iter:   4  15:22:41         -3.02  -179.608768    2      1      
iter:   5  15:22:41         -3.12  -179.608797    2      2      
iter:   6  15:22:42         -3.33  -179.609071    2      1      
iter:   7  15:22:42         -3.21  -179.609136    2      1      
iter:   8  15:22:43         -3.66  -179.608922    2      1      
iter:   9  15:22:43         -3.78  -179.609136    2      1      
iter:  10  15:22:43         -3.79  -179.609023    2      1      
iter:  11  15:22:44         -3.48  -179.608645    2      1      
iter:  12  15:22:44         -3.82  -179.608790    2      1      
iter:  13  15:22:45         -4.25  -179.608915    2      1      

Converged after 13 iterations.

Dipole moment: (-0.194558, 0.005646, -0.030088) |e|*Ang

Energy contributions relative to reference atoms: (reference = -24663.074771)

Kinetic:       +113.895450
Potential:     -120.780943
External:        +0.000000
XC:            -175.589177
Entropy (-ST):   -0.164113
Local:           +2.947812
--------------------------
Free energy:   -179.690971
Extrapolated:  -179.608915

Fermi level: -4.43283

 Band  Eigenvalues  Occupancy
    0    -23.52953    2.00000
    1    -22.91639    2.00000
    2    -22.37015    2.00000
    3    -21.20594    2.00000
    4    -20.84806    2.00000
    5    -20.44233    2.00000
    6    -19.76767    2.00000
    7    -19.26248    2.00000
    8    -18.23627    2.00000
    9    -18.15642    2.00000
   10    -17.78534    2.00000
   11    -16.67742    2.00000
   12    -16.61135    2.00000
   13    -16.13701    2.00000
   14    -15.02518    2.00000
   15    -14.53191    2.00000
   16    -14.40153    2.00000
   17    -14.27847    2.00000
   18    -13.19830    2.00000
   19    -12.82895    2.00000
   20    -12.60016    2.00000
   21    -12.43285    2.00000
   22    -11.98541    2.00000
   23    -11.00228    2.00000
   24    -10.94694    2.00000
   25    -10.59556    2.00000
   26    -10.48767    2.00000
   27    -10.40781    2.00000
   28     -9.91923    2.00000
   29     -9.75026    2.00000
   30     -9.47266    2.00000
   31     -9.37520    2.00000
   32     -9.15374    2.00000
   33     -9.09596    2.00000
   34     -8.44501    2.00000
   35     -8.18599    2.00000
   36     -7.62398    2.00000
   37     -7.46953    2.00000
   38     -7.07729    2.00000
   39     -6.87517    2.00000
   40     -6.55119    2.00000
   41     -6.49339    2.00000
   42     -5.93145    2.00000
   43     -5.71121    1.99999
   44     -5.66684    1.99999
   45     -5.09970    1.99746
   46     -4.74382    1.91459
   47     -4.69689    1.86686
   48     -4.21008    0.19461
   49     -4.00169    0.02647
   50     -3.24196    0.00001
   51     -2.90797    0.00000
   52     -2.85969    0.00000
   53     -2.09606    0.00000
   54     -1.92963    0.00000
   55     -1.71377    0.00000
   56     -1.54961    0.00000
   57     -1.53013    0.00000
   58     -1.39926    0.00000
   59     -1.23641    0.00000
   60     -0.24709    0.00000
   61      1.10220    0.00000
   62      1.59961    0.00000
   63      1.93774    0.00000
   64      2.66774    0.00000
   65      3.08941    0.00000
   66      3.85078    0.00000
   67      3.90109    0.00000
   68      4.65615    0.00000
   69      4.98793    0.00000
   70      5.06968    0.00000
   71      5.46422    0.00000
   72      5.86349    0.00000
   73      5.99694    0.00000
   74      6.08506    0.00000
   75      6.55513    0.00000
   76      6.79440    0.00000
   77      7.00455    0.00000
   78      7.39082    0.00000
   79      7.62180    0.00000
   80      7.85378    0.00000
   81      8.06438    0.00000
   82      8.25596    0.00000
   83      8.56041    0.00000
   84      8.72147    0.00000
   85      8.86603    0.00000
   86      8.90914    0.00000
   87      9.15885    0.00000
   88      9.33824    0.00000
   89      9.39206    0.00000
   90      9.40216    0.00000
   91      9.49474    0.00000
   92      9.61947    0.00000
   93      9.77728    0.00000
   94      9.84208    0.00000
   95     10.09195    0.00000
   96     10.19191    0.00000
   97     10.28436    0.00000


Forces in eV/Ang:
  0 C    -0.03523    0.02150    0.01227
  1 C     0.00096    0.02246   -0.01164
  2 C    -0.01377    0.02379    0.06809
  3 C     0.05939    0.01667    0.01396
  4 C    -0.00898    0.02056   -0.00129
  5 C    -0.01894   -0.06524    0.00203
  6 C    -0.02323   -0.03856    0.00975
  7 C    -0.00592    0.03147   -0.05131
  8 C     0.03900   -0.00211    0.01308
  9 C    -0.01587   -0.00634   -0.01286
 10 C    -0.00233   -0.00339    0.00976
 11 C    -0.02178   -0.00787    0.04076
 12 C     0.00018   -0.00708   -0.00998
 13 C     0.00187   -0.00795    0.00343
 14 C    -0.03394   -0.02343   -0.04105
 15 C     0.01422   -0.00089    0.01330
 16 C     0.01332    0.01621    0.01677
 17 C    -0.04746   -0.00994   -0.07520
 18 C     0.02615    0.00081    0.01507
 19 C     0.00582   -0.00568   -0.00742
 20 C    -0.01392   -0.00973    0.01150
 21 C    -0.00903   -0.03021    0.02168
 22 C    -0.02186   -0.00209    0.01774
 23 C    -0.00686   -0.02178   -0.01434

