
  ___ ___ ___ _ _ _  
 |   |   |_  | | | | 
 | | | | | . | | | | 
 |__ |  _|___|_____|  1.3.0b1
 |___|_|             

User:   esb@s65n64.grendel.cscaa.dk
Date:   Wed Nov  8 14:13:00 2017
Arch:   x86_64
Pid:    80090
Python: 2.7.13
gpaw:   /home/esb/DFT/gpaw_git/gpaw
_gpaw:  /home/esb/DFT/gpaw_git/build/bin.linux-x86_64-2.7/gpaw-python
ase:    /home/esb/DFT/ase_git/ase (version 3.15.0b1)
numpy:  /comm/swstack/core/python/2.7.13/lib/python2.7/site-packages/numpy (version 1.13.3)
scipy:  /comm/swstack/core/python/2.7.13/lib/python2.7/site-packages/scipy (version 0.19.1)
units:  Angstrom and eV
cores:  16
Extra parameters: {'blacs': True}

Input parameters:
  basis: dzp
  gpts: [80 80 48]
  kpts: [1 1 1]
  maxiter: 99
  mixer: {backend: pulay,
          beta: 0.05,
          method: separate,
          nmaxold: 5,
          weight: 75}
  mode: lcao
  nbands: -50
  occupations: {name: fermi-dirac,
                width: 0.1}
  poissonsolver: {eps: 1e-07,
                  name: fd,
                  nn: 3,
                  relax: GS}
  xc: PBE

System changes: positions, numbers, cell, pbc, initial_charges, initial_magmoms 

Initialize ...

C-setup:
  name: Carbon
  id: 4aa54d4b901d75f77cc0ea3eec22967b
  Z: 6
  valence: 4
  core: 2
  charge: 0.0
  file: /home/esb/DFT/gpaw-setups-0.8.7929/C.PBE.gz
  cutoffs: 0.64(comp), 1.14(filt), 1.14(core), lmax=2
  valence states:
                energy  radius
    2s(2.00)   -13.751   0.635
    2p(2.00)    -5.284   0.635
    *s          13.461   0.635
    *p          21.927   0.635
    *d           0.000   0.635

  LCAO basis set for C:
    Name: dzp
    File: /home/esb/DFT/gpaw-setups-0.8.7929/C.dzp.basis.gz
    Number of radial functions: 5
    Number of spherical harmonics: 13
      l=0, rc=5.5469 Bohr: 2s-sz confined orbital
      l=1, rc=6.6719 Bohr: 2p-sz confined orbital
      l=0, rc=3.0312 Bohr: 2s-dz split-valence wave
      l=1, rc=3.7500 Bohr: 2p-dz split-valence wave
      l=2, rc=6.6719 Bohr: d-type Gaussian polarization

Reference energy: -24663.074771

Spin-paired calculation

Occupation numbers:
  Fermi-Dirac: width=0.1000 eV

Convergence criteria:
  Maximum total energy change: 0.0005 eV / electron
  Maximum integral of absolute density change: 0.0001 electrons
  Maximum integral of absolute eigenstate change: 4e-08 eV^2
  Maximum number of iterations: 99

Symmetries present (total): 1

  ( 1  0  0)
  ( 0  1  0)
  ( 0  0  1)

1 k-point (Gamma)
1 k-point in the irreducible part of the Brillouin zone
       k-points in crystal coordinates                weights
   0:     0.00000000    0.00000000    0.00000000          1/1

Wave functions: LCAO
  Diagonalizer: Serial LAPACK
  Atomic Correction: dense with blas
  Datatype: float
  Eigensolver: None 

LCAO using direct dense diagonalizer 

Densities:
  Coarse grid: 80*80*48 grid
  Fine grid: 160*160*96 grid
  Total Charge: 0.000000 

Density mixing:
  Method: separate
  Backend: pulay
  Linear mixing parameter: 0.05
  Mixing with 5 old densities
  Damping of long wave oscillations: 75 

Hamiltonian:
  XC and Coulomb potentials evaluated on a 160*160*96 grid
  Using the PBE Exchange-Correlation functional
  Interpolation: tri-quintic (5. degree polynomial)
  Poisson solver: Gauss-Seidel solver with 6 multi-grid levels
    Coarsest grid: 5 x 5 x 3 points
    Stencil: 6*3+1=19 point O(h^6) finite-difference Laplacian
    Max iterations: 1000
    Tolerance: 1.000000e-07 

Memory estimate:
  Process memory now: 77.60 MiB
  Calculator: 15.59 MiB
    Density: 6.13 MiB
      Arrays: 3.81 MiB
      Localized functions: 0.86 MiB
      Mixer: 1.46 MiB
    Hamiltonian: 5.40 MiB
      Arrays: 2.49 MiB
      XC: 0.00 MiB
      Poisson: 2.85 MiB
      vbar: 0.07 MiB
    Wavefunctions: 4.05 MiB
      C [qnM]: 0.23 MiB
      S, T [2 x qmm]: 1.49 MiB
      P [aqMi]: 0.01 MiB
      TCI: 0.00 MiB
      BasisFunctions: 2.33 MiB
      Eigensolver: 0.00 MiB

Total number of cores used: 16
Domain decomposition: 2 x 4 x 2

Number of atoms: 24
Number of atomic orbitals: 312
Number of bands in calculation: 98
Bands to converge: occupied states only
Number of valence electrons: 96

... initialized

Initializing position-dependent things.

Density initialized from atomic densities
           .--------------------------------------.  
          /|                                      |  
         / |                                      |  
        /  |                                      |  
       /   |                                      |  
      /    |                                      |  
     /     |                                      |  
    /      |                                      |  
   /       |                                      |  
  /        |        C C          C                |  
 *         |             C  C   C                 |  
 |         |         C C  C       C               |  
 |         .---CC--C---------C-C---C--------------.  
 |        /         C C    C                     /   
 |       /            C      C                  /    
 |      /                                      /     
 |     /                                      /      
 |    /                                      /       
 |   /                                      /        
 |  /                                      /         
 | /                                      /          
 |/                                      /           
 *--------------------------------------*            

Positions:
   0 C      6.153914   10.074851    5.605881
   1 C     11.958561    7.235843    4.829316
   2 C      6.476349    6.641864    5.458125
   3 C      7.615203    4.375200    4.775445
   4 C      8.372706    6.843131    5.367507
   5 C      6.441684    5.014457    4.974388
   6 C      6.848147   11.488509    4.412143
   7 C      5.576066    6.592150    4.544647
   8 C      4.938239    5.392791    5.251203
   9 C     11.271095    9.612577    4.559146
  10 C     10.097358    9.991380    4.855971
  11 C      9.033431    8.746441    5.031994
  12 C     10.327123    4.928528    4.356307
  13 C     10.707258    6.624182    4.816461
  14 C      9.762734    6.956396    4.295487
  15 C      9.952364   11.228380    4.482118
  16 C      6.842290    6.390359    4.433457
  17 C      3.615501    8.122519    4.446510
  18 C      7.990078    8.921108    4.586773
  19 C      6.871443    7.747878    4.796411
  20 C      8.636116    9.888565    4.733251
  21 C      9.446179    4.139125    5.444349
  22 C     10.720795    9.821289    5.706419
  23 C      5.055048   10.667497    5.416739

Unit cell:
           periodic     x           y           z      points  spacing
  1. axis:    yes   16.000000    0.000000    0.000000    80     0.2000
  2. axis:    yes    0.000000   16.000000    0.000000    80     0.2000
  3. axis:    yes    0.000000    0.000000   10.000000    48     0.2083

Effective grid spacing dv^(1/3) = 0.2027

                     log10-error:    total        iterations:
           time      wfs    density  energy       fermi  poisson
iter:   1  14:13:02          +inf  -117.978869    2      6      
iter:   2  14:13:03         -0.79  -113.033449    3      3      
iter:   3  14:13:04         -0.85  -111.421726    33     3      
iter:   4  14:13:04         -0.84  -109.176015    4      2      
iter:   5  14:13:05         -0.91  -107.821595    4      3      
iter:   6  14:13:05         -1.03  -107.130829    3      3      
iter:   7  14:13:06         -1.11  -106.325963    4      3      
iter:   8  14:13:06         -1.27  -106.014929    4      3      
iter:   9  14:13:07         -1.52  -105.974721    3      3      
iter:  10  14:13:07         -1.71  -105.940678    3      3      
iter:  11  14:13:08         -1.85  -105.945851    3      2      
iter:  12  14:13:08         -1.87  -105.922061    3      2      
iter:  13  14:13:09         -2.02  -105.912626    3      2      
iter:  14  14:13:09         -2.21  -105.908320    3      2      
iter:  15  14:13:10         -2.36  -105.904650    3      2      
iter:  16  14:13:10         -2.63  -105.904145    3      2      
iter:  17  14:13:11         -2.82  -105.904537    2      1      
iter:  18  14:13:11         -2.88  -105.903338    2      2      
iter:  19  14:13:12         -3.02  -105.903118    2      1      
iter:  20  14:13:12         -3.13  -105.902493    2      1      
iter:  21  14:13:13         -3.21  -105.901493    2      1      
iter:  22  14:13:13         -3.36  -105.902124    2      1      
iter:  23  14:13:14         -3.44  -105.901770    2      1      
iter:  24  14:13:14         -3.53  -105.902237    2      1      
iter:  25  14:13:15         -3.66  -105.901839    2      1      
iter:  26  14:13:15         -3.90  -105.902854    2      1      
iter:  27  14:13:16         -4.02  -105.903074    2      1      

Converged after 27 iterations.

Dipole moment: (-0.285962, -0.038711, -0.283913) |e|*Ang

Energy contributions relative to reference atoms: (reference = -24663.074771)

Kinetic:       +293.322948
Potential:     -227.039875
External:        +0.000000
XC:            -174.705474
Entropy (-ST):   -0.516620
Local:           +2.777637
--------------------------
Free energy:   -106.161384
Extrapolated:  -105.903074

Fermi level: -4.84351

 Band  Eigenvalues  Occupancy
    0    -31.76239    2.00000
    1    -30.12641    2.00000
    2    -27.98170    2.00000
    3    -23.53742    2.00000
    4    -22.46212    2.00000
    5    -21.50730    2.00000
    6    -20.72537    2.00000
    7    -19.03486    2.00000
    8    -18.74965    2.00000
    9    -18.04658    2.00000
   10    -17.31987    2.00000
   11    -16.88124    2.00000
   12    -16.55053    2.00000
   13    -16.05228    2.00000
   14    -15.75148    2.00000
   15    -14.98603    2.00000
   16    -14.15974    2.00000
   17    -13.98559    2.00000
   18    -13.47318    2.00000
   19    -13.20019    2.00000
   20    -12.92707    2.00000
   21    -12.37693    2.00000
   22    -11.66729    2.00000
   23    -10.87652    2.00000
   24    -10.76266    2.00000
   25    -10.19914    2.00000
   26     -9.96519    2.00000
   27     -9.59589    2.00000
   28     -8.97834    2.00000
   29     -8.78834    2.00000
   30     -8.59805    2.00000
   31     -8.39495    2.00000
   32     -7.94553    2.00000
   33     -7.79794    2.00000
   34     -7.68727    2.00000
   35     -7.46713    2.00000
   36     -7.29983    2.00000
   37     -7.04686    2.00000
   38     -6.91670    2.00000
   39     -6.46911    2.00000
   40     -6.38204    2.00000
   41     -6.21557    2.00000
   42     -6.01764    1.99998
   43     -5.70683    1.99964
   44     -5.58544    1.99880
   45     -5.46162    1.99587
   46     -4.98820    1.61905
   47     -4.90246    1.28654
   48     -4.74581    0.54700
   49     -4.69415    0.36677
   50     -4.60102    0.16259
   51     -4.33715    0.01257
   52     -4.28051    0.00715
   53     -4.17246    0.00243
   54     -4.12552    0.00152
   55     -3.81425    0.00007
   56     -3.51862    0.00000
   57     -3.23574    0.00000
   58     -3.09707    0.00000
   59     -2.82339    0.00000
   60     -2.45838    0.00000
   61     -2.24974    0.00000
   62     -1.86205    0.00000
   63     -1.60605    0.00000
   64     -1.51391    0.00000
   65     -1.10472    0.00000
   66     -0.79890    0.00000
   67      0.03051    0.00000
   68      0.09403    0.00000
   69      0.32720    0.00000
   70      0.66612    0.00000
   71      1.33472    0.00000
   72      1.44762    0.00000
   73      1.92673    0.00000
   74      2.28789    0.00000
   75      2.90266    0.00000
   76      3.78319    0.00000
   77      4.54071    0.00000
   78      4.76042    0.00000
   79      5.01720    0.00000
   80      5.77769    0.00000
   81      5.91170    0.00000
   82      5.97299    0.00000
   83      6.40018    0.00000
   84      6.90840    0.00000
   85      7.24210    0.00000
   86      7.49379    0.00000
   87      7.84964    0.00000
   88      8.14057    0.00000
   89      8.38735    0.00000
   90      8.57963    0.00000
   91      8.72670    0.00000
   92      8.94459    0.00000
   93      9.10064    0.00000
   94      9.12641    0.00000
   95      9.44134    0.00000
   96      9.51977    0.00000
   97      9.64277    0.00000


Forces in eV/Ang:
  0 C     4.84261    0.77825   -1.16700
  1 C     0.32323    1.07539    0.34607
  2 C    -5.30947    6.51318   39.08589
  3 C     3.01569   -1.84730    0.82179
  4 C     2.74895    0.08752   -0.18336
  5 C     1.22904   -5.85693    1.05098
  6 C    -1.75413   -3.07577    3.00281
  7 C   -20.70919    1.42052   -8.09799
  8 C     2.07112    0.27125   -0.69527
  9 C    14.98623   -5.80511   -4.71577
 10 C   -28.67758    8.77819  -24.44721
 11 C    19.02723  -17.74929    9.59041
 12 C    -2.27593   -0.88110    3.82479
 13 C    19.84076   -8.94088    8.78711
 14 C   -22.14262    7.16026   -7.65298
 15 C    -2.74572    6.94763   -3.75171
 16 C    15.96510  -10.71536  -30.78670
 17 C     1.89287   -0.36672    0.21970
 18 C   -29.33606  -12.82466   -9.01596
 19 C     6.79214   11.72957   -1.64693
 20 C    -0.23194   25.40680   -2.45838
 21 C    -1.24495    3.55223   -4.76838
 22 C    25.38791   -7.61087   34.24156
 23 C    -3.50347    1.94255   -1.51164

System changes: positions 

Initializing position-dependent things.

Density initialized from wave functions
           .--------------------------------------.  
          /|                                      |  
         / |                                      |  
        /  |                                      |  
       /   |                                      |  
      /    |                                      |  
     /     |                                      |  
    /      |                                      |  
   /       |                                      |  
  /        |        C C          C                |  
 *         |             C  CC  C                 |  
 |         |         C C  C        C              |  
 |         .---CC--C-----------C---C--------------.  
 |        /         C C    C C                   /   
 |       /            C      C                  /    
 |      /                                      /     
 |     /                                      /      
 |    /                                      /       
 |   /                                      /        
 |  /                                      /         
 | /                                      /          
 |/                                      /           
 *--------------------------------------*            

Positions:
   0 C      6.158388   10.075570    5.604803
   1 C     11.958860    7.236836    4.829636
   2 C      6.471444    6.647881    5.494232
   3 C      7.617989    4.373494    4.776204
   4 C      8.375246    6.843212    5.367337
   5 C      6.442819    5.009047    4.975359
   6 C      6.846526   11.485668    4.414917
   7 C      5.556936    6.593462    4.537167
   8 C      4.940152    5.393042    5.250560
   9 C     11.284939    9.607214    4.554790
  10 C     10.070867    9.999489    4.833387
  11 C      9.051008    8.730045    5.040853
  12 C     10.325020    4.927714    4.359840
  13 C     10.725586    6.615923    4.824578
  14 C      9.742280    6.963010    4.288418
  15 C      9.949828   11.234798    4.478653
  16 C      6.857039    6.380460    4.405017
  17 C      3.617249    8.122180    4.446713
  18 C      7.962978    8.909261    4.578444
  19 C      6.877717    7.758714    4.794890
  20 C      8.635901    9.912036    4.730980
  21 C      9.445029    4.142406    5.439944
  22 C     10.744248    9.814259    5.738051
  23 C      5.051811   10.669291    5.415342

Unit cell:
           periodic     x           y           z      points  spacing
  1. axis:    yes   16.000000    0.000000    0.000000    80     0.2000
  2. axis:    yes    0.000000   16.000000    0.000000    80     0.2000
  3. axis:    yes    0.000000    0.000000   10.000000    48     0.2083

Effective grid spacing dv^(1/3) = 0.2027

                     log10-error:    total        iterations:
           time      wfs    density  energy       fermi  poisson
iter:   1  14:13:17          +inf  -114.846480    3      5      
iter:   2  14:13:18         -1.79  -114.775250    3      2      
iter:   3  14:13:18         -1.84  -114.762909    3      2      
iter:   4  14:13:19         -1.98  -114.740455    3      2      
iter:   5  14:13:19         -2.06  -114.699891    3      3      
iter:   6  14:13:20         -2.24  -114.696199    3      2      
iter:   7  14:13:21         -2.41  -114.689107    2      2      
iter:   8  14:13:21         -2.66  -114.685505    2      2      
iter:   9  14:13:22         -2.76  -114.684680    3      2      
iter:  10  14:13:22         -2.91  -114.687090    2      1      
iter:  11  14:13:23         -3.00  -114.684964    2      2      
iter:  12  14:13:23         -3.13  -114.685972    2      1      
iter:  13  14:13:24         -3.23  -114.684053    2      1      
iter:  14  14:13:24         -3.36  -114.683397    2      1      
iter:  15  14:13:24         -3.43  -114.682669    2      1      
iter:  16  14:13:25         -3.55  -114.682857    2      1      
iter:  17  14:13:25         -3.73  -114.683866    2      1      
iter:  18  14:13:26         -3.86  -114.684518    2      1      
iter:  19  14:13:26         -4.10  -114.684864    2      1      

Converged after 19 iterations.

Dipole moment: (-0.334704, -0.073901, -0.320583) |e|*Ang

Energy contributions relative to reference atoms: (reference = -24663.074771)

Kinetic:       +242.065837
Potential:     -192.182751
External:        +0.000000
XC:            -166.972357
Entropy (-ST):   -0.496805
Local:           +2.652811
--------------------------
Free energy:   -114.933266
Extrapolated:  -114.684864

Fermi level: -4.87755

 Band  Eigenvalues  Occupancy
    0    -30.91541    2.00000
    1    -29.49563    2.00000
    2    -27.13136    2.00000
    3    -23.16479    2.00000
    4    -22.26808    2.00000
    5    -21.38393    2.00000
    6    -20.52335    2.00000
    7    -19.01463    2.00000
    8    -18.70583    2.00000
    9    -17.90042    2.00000
   10    -17.34547    2.00000
   11    -16.74267    2.00000
   12    -16.43492    2.00000
   13    -15.66376    2.00000
   14    -15.51169    2.00000
   15    -14.90174    2.00000
   16    -14.04098    2.00000
   17    -13.99581    2.00000
   18    -13.48546    2.00000
   19    -12.90983    2.00000
   20    -12.66641    2.00000
   21    -12.27290    2.00000
   22    -11.65839    2.00000
   23    -10.89728    2.00000
   24    -10.78220    2.00000
   25    -10.07638    2.00000
   26     -9.94242    2.00000
   27     -9.55077    2.00000
   28     -8.88142    2.00000
   29     -8.78735    2.00000
   30     -8.57961    2.00000
   31     -8.38316    2.00000
   32     -7.86784    2.00000
   33     -7.75021    2.00000
   34     -7.68299    2.00000
   35     -7.43700    2.00000
   36     -7.25476    2.00000
   37     -7.06718    2.00000
   38     -6.90691    2.00000
   39     -6.53060    2.00000
   40     -6.34911    2.00000
   41     -6.20971    2.00000
   42     -6.03198    1.99998
   43     -5.76667    1.99972
   44     -5.64171    1.99904
   45     -5.53228    1.99714
   46     -5.03839    1.66638
   47     -4.93875    1.29680
   48     -4.77362    0.52256
   49     -4.71911    0.34035
   50     -4.63413    0.16120
   51     -4.33099    0.00842
   52     -4.30356    0.00641
   53     -4.14200    0.00128
   54     -4.07575    0.00066
   55     -3.84250    0.00006
   56     -3.55105    0.00000
   57     -3.30115    0.00000
   58     -3.07945    0.00000
   59     -2.77718    0.00000
   60     -2.54476    0.00000
   61     -2.29130    0.00000
   62     -1.86247    0.00000
   63     -1.63324    0.00000
   64     -1.51219    0.00000
   65     -1.13925    0.00000
   66     -0.81494    0.00000
   67     -0.11533    0.00000
   68      0.07148    0.00000
   69      0.28662    0.00000
   70      0.65700    0.00000
   71      1.24730    0.00000
   72      1.44210    0.00000
   73      1.94158    0.00000
   74      2.21893    0.00000
   75      2.86336    0.00000
   76      3.62053    0.00000
   77      4.51105    0.00000
   78      4.75139    0.00000
   79      4.88316    0.00000
   80      5.37240    0.00000
   81      5.69442    0.00000
   82      5.82011    0.00000
   83      6.27697    0.00000
   84      6.65299    0.00000
   85      7.09311    0.00000
   86      7.45452    0.00000
   87      7.67366    0.00000
   88      8.11615    0.00000
   89      8.37710    0.00000
   90      8.51324    0.00000
   91      8.59871    0.00000
   92      8.85362    0.00000
   93      9.06189    0.00000
   94      9.17147    0.00000
   95      9.36627    0.00000
   96      9.47884    0.00000
   97      9.57178    0.00000


Forces in eV/Ang:
  0 C     4.38279    1.04853   -1.28355
  1 C     0.63859    1.24455    0.30014
  2 C    -3.23116    4.78052   27.68148
  3 C     3.05897   -1.76960    0.80972
  4 C     2.39805    0.05593   -0.19150
  5 C     1.19414   -5.22226    1.00045
  6 C    -1.72384   -3.08561    3.00912
  7 C   -16.75576    1.25724   -6.56176
  8 C     2.02963    0.21404   -0.59802
  9 C    11.86492   -4.92138   -2.66854
 10 C   -18.54495    5.03671  -15.03870
 11 C    13.03972  -14.30705    6.55411
 12 C    -2.25140   -0.62494    3.88943
 13 C    14.09389   -7.39336    5.87156
 14 C   -16.75265    5.35652   -4.70642
 15 C    -2.45499    7.40257   -3.38745
 16 C    10.74379   -7.47078  -21.29596
 17 C     1.98567   -0.46240    0.20300
 18 C   -21.27760   -9.56628   -6.03657
 19 C     6.12791    9.81123   -1.37487
 20 C    -2.16244   18.74457   -2.31456
 21 C    -1.22202    3.48313   -4.78491
 22 C    17.88522   -5.36180   22.23508
 23 C    -3.02529    1.67836   -1.41852

System changes: positions 

Initializing position-dependent things.

Density initialized from wave functions
           .--------------------------------------.  
          /|                                      |  
         / |                                      |  
        /  |                                      |  
       /   |                                      |  
      /    |                                      |  
     /     |                                      |  
    /      |                                      |  
   /       |                                      |  
  /        |        C C          C                |  
 *         |             C  C   C                 |  
 |         |         C C  C  C     C              |  
 |         .---CC--C---------C-C---C--------------.  
 |        /         C C    C                     /   
 |       /            C      C                  /    
 |      /                                      /     
 |     /                                      /      
 |    /                                      /       
 |   /                                      /        
 |  /                                      /         
 | /                                      /          
 |/                                      /           
 *--------------------------------------*            

Positions:
   0 C      6.172202   10.081604    5.598954
   1 C     11.963617    7.242910    4.830478
   2 C      6.473745    6.654112    5.520467
   3 C      7.630245    4.367141    4.779279
   4 C      8.382092    6.843203    5.366531
   5 C      6.447232    4.993209    4.978903
   6 C      6.840012   11.473548    4.426713
   7 C      5.519882    6.597199    4.522570
   8 C      4.947780    5.393467    5.248923
   9 C     11.308867    9.594340    4.559064
  10 C     10.071181    9.992301    4.842195
  11 C      9.058950    8.698884    5.044653
  12 C     10.316405    4.927113    4.375493
  13 C     10.739372    6.598160    4.826579
  14 C      9.715550    6.970980    4.291190
  15 C      9.942328   11.266971    4.468039
  16 C      6.861514    6.374576    4.389981
  17 C      3.625670    8.119688    4.447385
  18 C      7.937732    8.895293    4.576257
  19 C      6.896879    7.783257    4.791474
  20 C      8.613600    9.937412    4.722974
  21 C      9.440422    4.155512    5.421140
  22 C     10.760235    9.809465    5.738696
  23 C      5.043430   10.673949    5.410471

Unit cell:
           periodic     x           y           z      points  spacing
  1. axis:    yes   16.000000    0.000000    0.000000    80     0.2000
  2. axis:    yes    0.000000   16.000000    0.000000    80     0.2000
  3. axis:    yes    0.000000    0.000000   10.000000    48     0.2083

Effective grid spacing dv^(1/3) = 0.2027

                     log10-error:    total        iterations:
           time      wfs    density  energy       fermi  poisson
iter:   1  14:13:28          +inf  -120.515983    4      5      
iter:   2  14:13:29         -1.68  -120.335592    3      2      
iter:   3  14:13:29         -1.86  -120.296432    2      2      
iter:   4  14:13:30         -1.96  -120.271283    3      2      
iter:   5  14:13:30         -2.06  -120.263475    2      2      
iter:   6  14:13:31         -2.17  -120.254196    3      2      
iter:   7  14:13:31         -2.44  -120.249553    2      2      
iter:   8  14:13:32         -2.57  -120.248609    2      2      
iter:   9  14:13:32         -2.79  -120.246754    2      2      
iter:  10  14:13:33         -2.93  -120.246476    1      2      
iter:  11  14:13:33         -3.10  -120.248665    2      1      
iter:  12  14:13:34         -3.19  -120.246610    2      1      
iter:  13  14:13:34         -3.32  -120.247429    2      1      
iter:  14  14:13:35         -3.45  -120.247480    2      1      
iter:  15  14:13:35         -3.56  -120.246251    2      1      
iter:  16  14:13:36         -3.68  -120.245912    2      1      
iter:  17  14:13:36         -3.74  -120.245198    2      1      
iter:  18  14:13:37         -4.07  -120.245954    2      1      

Converged after 18 iterations.

Dipole moment: (-0.311742, -0.060593, -0.305160) |e|*Ang

Energy contributions relative to reference atoms: (reference = -24663.074771)

Kinetic:       +205.273304
Potential:     -166.795288
External:        +0.000000
XC:            -161.142697
Entropy (-ST):   -0.482091
Local:           +2.659772
--------------------------
Free energy:   -120.487000
Extrapolated:  -120.245954

Fermi level: -4.88140

 Band  Eigenvalues  Occupancy
    0    -29.89969    2.00000
    1    -28.73819    2.00000
    2    -26.64269    2.00000
    3    -22.78272    2.00000
    4    -22.05317    2.00000
    5    -21.00365    2.00000
    6    -20.27497    2.00000
    7    -18.99060    2.00000
    8    -18.56514    2.00000
    9    -17.70746    2.00000
   10    -17.44389    2.00000
   11    -16.62038    2.00000
   12    -16.24555    2.00000
   13    -15.43579    2.00000
   14    -15.18564    2.00000
   15    -14.77046    2.00000
   16    -14.10871    2.00000
   17    -13.79933    2.00000
   18    -13.46170    2.00000
   19    -12.84633    2.00000
   20    -12.41310    2.00000
   21    -12.13035    2.00000
   22    -11.67087    2.00000
   23    -10.91052    2.00000
   24    -10.71108    2.00000
   25     -9.98681    2.00000
   26     -9.85304    2.00000
   27     -9.53549    2.00000
   28     -8.89908    2.00000
   29     -8.78130    2.00000
   30     -8.60332    2.00000
   31     -8.41127    2.00000
   32     -7.89087    2.00000
   33     -7.75651    2.00000
   34     -7.62802    2.00000
   35     -7.38684    2.00000
   36     -7.25558    2.00000
   37     -7.07215    2.00000
   38     -6.82790    2.00000
   39     -6.51397    2.00000
   40     -6.28359    2.00000
   41     -6.21538    2.00000
   42     -6.07076    1.99999
   43     -5.78475    1.99976
   44     -5.70798    1.99949
   45     -5.55801    1.99770
   46     -5.06668    1.72891
   47     -4.93743    1.27304
   48     -4.77006    0.49450
   49     -4.71543    0.31960
   50     -4.64415    0.17059
   51     -4.34699    0.00951
   52     -4.29226    0.00551
   53     -4.12452    0.00103
   54     -4.00774    0.00032
   55     -3.82508    0.00005
   56     -3.56790    0.00000
   57     -3.30364    0.00000
   58     -3.01305    0.00000
   59     -2.77791    0.00000
   60     -2.50452    0.00000
   61     -2.28810    0.00000
   62     -1.76129    0.00000
   63     -1.65474    0.00000
   64     -1.43162    0.00000
   65     -1.10032    0.00000
   66     -0.78652    0.00000
   67     -0.23403    0.00000
   68      0.06757    0.00000
   69      0.24136    0.00000
   70      0.74687    0.00000
   71      1.09242    0.00000
   72      1.49004    0.00000
   73      2.00196    0.00000
   74      2.22879    0.00000
   75      2.91507    0.00000
   76      3.51417    0.00000
   77      4.35503    0.00000
   78      4.59787    0.00000
   79      5.10071    0.00000
   80      5.26932    0.00000
   81      5.60479    0.00000
   82      5.65465    0.00000
   83      6.28473    0.00000
   84      6.58353    0.00000
   85      6.99409    0.00000
   86      7.43724    0.00000
   87      7.60288    0.00000
   88      7.93555    0.00000
   89      8.32528    0.00000
   90      8.43694    0.00000
   91      8.53471    0.00000
   92      8.77954    0.00000
   93      9.00875    0.00000
   94      9.15696    0.00000
   95      9.31042    0.00000
   96      9.41924    0.00000
   97      9.53362    0.00000


Forces in eV/Ang:
  0 C     3.22604    1.85623   -1.55488
  1 C     0.46224    1.21265    0.26585
  2 C    -2.95561    4.47841   20.77117
  3 C     2.97271   -1.54956    0.93300
  4 C     2.17238    0.17718   -0.24468
  5 C     1.27960   -4.52949    0.89868
  6 C    -1.69707   -3.18251    3.08519
  7 C   -12.88896    0.74016   -4.74564
  8 C     1.89942    0.08448   -0.55360
  9 C    10.38443   -4.28807   -2.36365
 10 C   -18.56522    6.14004  -15.41315
 11 C     9.49621  -10.59606    4.10139
 12 C    -2.15403   -0.40238    3.99826
 13 C    10.22670   -6.34300    3.50717
 14 C   -12.83894    4.45778   -2.18867
 15 C    -2.09770    4.57039   -2.53624
 16 C     7.06685   -5.17795  -16.67681
 17 C     2.15762   -0.64847    0.18624
 18 C   -15.87190   -7.10804   -4.21438
 19 C     5.37226    7.18733   -0.85417
 20 C    -1.93947   13.67244   -1.85077
 21 C    -1.34413    3.40292   -4.79825
 22 C    17.60032   -5.17241   21.38652
 23 C    -1.93902    1.02547   -1.18534

System changes: positions 

Initializing position-dependent things.

Density initialized from wave functions
           .--------------------------------------.  
          /|                                      |  
         / |                                      |  
        /  |                                      |  
       /   |                                      |  
      /    |                                      |  
     /     |                                      |  
    /      |                                      |  
   /       |                                      |  
  /        |        C C          C                |  
 *         |             C  C   C                 |  
 |         |         C C  C  C     C              |  
 |         .---CC--C---------C-C---C--------------.  
 |        /         C C    C                     /   
 |       /            C      C                  /    
 |      /                                      /     
 |     /                                      /      
 |    /                                      /       
 |   /                                      /        
 |  /                                      /         
 | /                                      /          
 |/                                      /           
 *--------------------------------------*            

Positions:
   0 C      6.181313   10.093723    5.590462
   1 C     11.967280    7.249439    4.831325
   2 C      6.473874    6.663046    5.527639
   3 C      7.643908    4.361065    4.783768
   4 C      8.389296    6.844107    5.365233
   5 C      6.453073    4.978115    4.982454
   6 C      6.832501   11.458694    4.441049
   7 C      5.494900    6.598325    4.514817
   8 C      4.955898    5.393185    5.247105
   9 C     11.333315    9.581764    4.561778
  10 C     10.049531    9.999651    4.829590
  11 C      9.056472    8.680822    5.038556
  12 C     10.306937    4.927407    4.394450
  13 C     10.740963    6.581332    4.818730
  14 C      9.699888    6.977945    4.305632
  15 C      9.935405   11.283932    4.460754
  16 C      6.852391    6.376666    4.384085
  17 C      3.636533    8.115677    4.448093
  18 C      7.928452    8.889036    4.579969
  19 C      6.915493    7.797856    4.790515
  20 C      8.593195    9.946156    4.716518
  21 C      9.434123    4.170456    5.399053
  22 C     10.793178    9.800313    5.759458
  23 C      5.040153   10.675423    5.406190

Unit cell:
           periodic     x           y           z      points  spacing
  1. axis:    yes   16.000000    0.000000    0.000000    80     0.2000
  2. axis:    yes    0.000000   16.000000    0.000000    80     0.2000
  3. axis:    yes    0.000000    0.000000   10.000000    48     0.2083

Effective grid spacing dv^(1/3) = 0.2027

                     log10-error:    total        iterations:
           time      wfs    density  energy       fermi  poisson
iter:   1  14:13:38          +inf  -124.444086    4      5      
iter:   2  14:13:39         -1.72  -124.304476    3      2      
iter:   3  14:13:39         -1.86  -124.239382    3      2      
iter:   4  14:13:40         -1.94  -124.220618    3      2      
iter:   5  14:13:40         -2.20  -124.215131    3      2      
iter:   6  14:13:41         -2.27  -124.211723    3      2      
iter:   7  14:13:41         -2.45  -124.208750    3      2      
iter:   8  14:13:42         -2.65  -124.206876    3      2      
iter:   9  14:13:42         -2.85  -124.206444    2      2      
iter:  10  14:13:43         -3.00  -124.207849    2      1      
iter:  11  14:13:43         -3.16  -124.206480    2      1      
iter:  12  14:13:44         -3.33  -124.205982    2      1      
iter:  13  14:13:44         -3.40  -124.205588    2      1      
iter:  14  14:13:45         -3.50  -124.206304    2      1      
iter:  15  14:13:45         -3.71  -124.206333    2      1      
iter:  16  14:13:46         -3.83  -124.206246    2      1      
iter:  17  14:13:46         -4.13  -124.206400    2      1      

Converged after 17 iterations.

Dipole moment: (-0.292564, -0.103110, -0.324696) |e|*Ang

Energy contributions relative to reference atoms: (reference = -24663.074771)

Kinetic:       +184.539132
Potential:     -152.845468
External:        +0.000000
XC:            -158.322821
Entropy (-ST):   -0.475887
Local:           +2.660701
--------------------------
Free energy:   -124.444343
Extrapolated:  -124.206400

Fermi level: -4.88430

 Band  Eigenvalues  Occupancy
    0    -29.38461    2.00000
    1    -28.37737    2.00000
    2    -25.98119    2.00000
    3    -22.61909    2.00000
    4    -22.00436    2.00000
    5    -20.78439    2.00000
    6    -20.13589    2.00000
    7    -19.08169    2.00000
    8    -18.52270    2.00000
    9    -17.70451    2.00000
   10    -17.54861    2.00000
   11    -16.50335    2.00000
   12    -16.13136    2.00000
   13    -15.35611    2.00000
   14    -14.90888    2.00000
   15    -14.57691    2.00000
   16    -14.18677    2.00000
   17    -13.71556    2.00000
   18    -13.41821    2.00000
   19    -12.88431    2.00000
   20    -12.32637    2.00000
   21    -12.07676    2.00000
   22    -11.73617    2.00000
   23    -10.97101    2.00000
   24    -10.71295    2.00000
   25     -9.97087    2.00000
   26     -9.80227    2.00000
   27     -9.56688    2.00000
   28     -8.92778    2.00000
   29     -8.73323    2.00000
   30     -8.59740    2.00000
   31     -8.38331    2.00000
   32     -7.91582    2.00000
   33     -7.76375    2.00000
   34     -7.59651    2.00000
   35     -7.38625    2.00000
   36     -7.23204    2.00000
   37     -7.12150    2.00000
   38     -6.77820    2.00000
   39     -6.56823    2.00000
   40     -6.31156    2.00000
   41     -6.20719    2.00000
   42     -6.08402    1.99999
   43     -5.78017    1.99974
   44     -5.76309    1.99969
   45     -5.61184    1.99862
   46     -5.09192    1.77714
   47     -4.92741    1.21229
   48     -4.77286    0.49413
   49     -4.71740    0.31714
   50     -4.65858    0.18947
   51     -4.33255    0.00800
   52     -4.23434    0.00300
   53     -4.06721    0.00057
   54     -3.95885    0.00019
   55     -3.78398    0.00003
   56     -3.58028    0.00000
   57     -3.27152    0.00000
   58     -2.96267    0.00000
   59     -2.78386    0.00000
   60     -2.46363    0.00000
   61     -2.25071    0.00000
   62     -1.68595    0.00000
   63     -1.67056    0.00000
   64     -1.31188    0.00000
   65     -1.06409    0.00000
   66     -0.75622    0.00000
   67     -0.27982    0.00000
   68      0.08685    0.00000
   69      0.25219    0.00000
   70      0.83212    0.00000
   71      1.04333    0.00000
   72      1.58364    0.00000
   73      2.12818    0.00000
   74      2.29381    0.00000
   75      3.00387    0.00000
   76      3.50861    0.00000
   77      4.19862    0.00000
   78      4.45405    0.00000
   79      5.08349    0.00000
   80      5.51473    0.00000
   81      5.59972    0.00000
   82      5.80586    0.00000
   83      6.29446    0.00000
   84      6.56645    0.00000
   85      6.99995    0.00000
   86      7.39211    0.00000
   87      7.66755    0.00000
   88      7.85839    0.00000
   89      8.25399    0.00000
   90      8.46066    0.00000
   91      8.56605    0.00000
   92      8.71641    0.00000
   93      8.97293    0.00000
   94      9.15178    0.00000
   95      9.26219    0.00000
   96      9.34834    0.00000
   97      9.52500    0.00000


Forces in eV/Ang:
  0 C     2.88029    2.23286   -1.70174
  1 C     0.14918    1.08787    0.20685
  2 C    -3.10960    4.49570   18.49940
  3 C     2.94753   -1.38479    1.05082
  4 C     2.17383    0.38471   -0.28978
  5 C     1.43302   -4.05468    0.80542
  6 C    -1.64510   -3.31710    3.17347
  7 C   -11.66866    0.31615   -3.86883
  8 C     1.77275   -0.05375   -0.53828
  9 C     7.86741   -3.59756   -1.23657
 10 C   -12.51156    4.47980  -10.17556
 11 C     9.35882   -9.66390    3.46859
 12 C    -1.97237   -0.27658    4.04461
 13 C     9.46695   -6.15545    2.60636
 14 C   -11.94494    4.59489   -1.24796
 15 C    -1.76221    3.88868   -2.08111
 16 C     5.76557   -4.26419  -15.43650
 17 C     2.30894   -0.81120    0.17270
 18 C   -14.72429   -6.43387   -3.90277
 19 C     5.16684    5.79171   -0.56038
 20 C    -1.54352   12.46665   -1.58676
 21 C    -1.58101    3.30672   -4.76410
 22 C    12.91797   -3.87014   14.43002
 23 C    -1.69825    0.82378   -1.07614

System changes: positions 

Initializing position-dependent things.

Density initialized from wave functions
           .--------------------------------------.  
          /|                                      |  
         / |                                      |  
        /  |                                      |  
       /   |                                      |  
      /    |                                      |  
     /     |                                      |  
    /      |                                      |  
   /       |                                      |  
  /        |        C C  C       C                |  
 *         |                C   C                 |  
 |         |         C C  C  C     C              |  
 |         .---CC-C----------C-C---C--------------.  
 |        /         C C    C                     /   
 |       /            C      C                  /    
 |      /                                      /     
 |     /                                      /      
 |    /                                      /       
 |   /                                      /        
 |  /                                      /         
 | /                                      /          
 |/                                      /           
 *--------------------------------------*            

Positions:
   0 C      6.191165   10.115332    5.576623
   1 C     11.968370    7.257200    4.832094
   2 C      6.466335    6.681383    5.543015
   3 C      7.663388    4.353826    4.791676
   4 C      8.400650    6.847698    5.362853
   5 C      6.463322    4.959556    4.986769
   6 C      6.821960   11.435573    4.462950
   7 C      5.462885    6.595689    4.509548
   8 C      4.966500    5.391444    5.244345
   9 C     11.352712    9.568090    4.570501
  10 C     10.043862   10.007864    4.831103
  11 C      9.065700    8.657566    5.029822
  12 C     10.294900    4.928541    4.422562
  13 C     10.748930    6.555056    4.804590
  14 C      9.673842    6.993955    4.329913
  15 C      9.928083   11.296784    4.454506
  16 C      6.838060    6.381362    4.363559
  17 C      3.653819    8.108291    4.449027
  18 C      7.907744    8.879403    4.581427
  19 C      6.941802    7.808232    4.791799
  20 C      8.573637    9.961532    4.709806
  21 C      9.422387    4.191491    5.367118
  22 C     10.819762    9.792570    5.759897
  23 C      5.037664   10.675573    5.401008

Unit cell:
           periodic     x           y           z      points  spacing
  1. axis:    yes   16.000000    0.000000    0.000000    80     0.2000
  2. axis:    yes    0.000000   16.000000    0.000000    80     0.2000
  3. axis:    yes    0.000000    0.000000   10.000000    48     0.2083

Effective grid spacing dv^(1/3) = 0.2027

                     log10-error:    total        iterations:
           time      wfs    density  energy       fermi  poisson
iter:   1  14:13:48          +inf  -128.672261    3      5      
iter:   2  14:13:48         -1.62  -128.441961    3      2      
iter:   3  14:13:49         -1.76  -128.295563    3      2      
iter:   4  14:13:49         -1.93  -128.288657    3      2      
iter:   5  14:13:50         -2.09  -128.281718    3      2      
iter:   6  14:13:50         -2.17  -128.274175    2      2      
iter:   7  14:13:51         -2.32  -128.269767    2      2      
iter:   8  14:13:51         -2.54  -128.268938    3      2      
iter:   9  14:13:52         -2.69  -128.267810    2      2      
iter:  10  14:13:52         -2.91  -128.268168    2      2      
iter:  11  14:13:53         -3.03  -128.267865    2      1      
iter:  12  14:13:53         -3.10  -128.268144    2      1      
iter:  13  14:13:54         -3.20  -128.268513    2      1      
iter:  14  14:13:54         -3.33  -128.268302    2      1      
iter:  15  14:13:55         -3.42  -128.268314    2      1      
iter:  16  14:13:55         -3.52  -128.268153    2      1      
iter:  17  14:13:56         -3.57  -128.268643    2      1      
iter:  18  14:13:56         -3.89  -128.268231    2      1      
iter:  19  14:13:57         -4.02  -128.268039    2      1      

Converged after 19 iterations.

Dipole moment: (-0.251155, -0.171058, -0.325756) |e|*Ang

Energy contributions relative to reference atoms: (reference = -24663.074771)

Kinetic:       +165.868806
Potential:     -140.261299
External:        +0.000000
XC:            -156.300869
Entropy (-ST):   -0.471202
Local:           +2.660924
--------------------------
Free energy:   -128.503640
Extrapolated:  -128.268039

Fermi level: -4.86927

 Band  Eigenvalues  Occupancy
    0    -28.67628    2.00000
    1    -27.83422    2.00000
    2    -25.55732    2.00000
    3    -22.44225    2.00000
    4    -21.86972    2.00000
    5    -20.59851    2.00000
    6    -19.96471    2.00000
    7    -19.26179    2.00000
    8    -18.52650    2.00000
    9    -17.95371    2.00000
   10    -17.58512    2.00000
   11    -16.33515    2.00000
   12    -15.91179    2.00000
   13    -15.28404    2.00000
   14    -14.73582    2.00000
   15    -14.33895    2.00000
   16    -14.24364    2.00000
   17    -13.65063    2.00000
   18    -13.28144    2.00000
   19    -12.91590    2.00000
   20    -12.32074    2.00000
   21    -11.94446    2.00000
   22    -11.84295    2.00000
   23    -11.06597    2.00000
   24    -10.77433    2.00000
   25     -9.92338    2.00000
   26     -9.80952    2.00000
   27     -9.58144    2.00000
   28     -8.98716    2.00000
   29     -8.70095    2.00000
   30     -8.56481    2.00000
   31     -8.33646    2.00000
   32     -7.99619    2.00000
   33     -7.78176    2.00000
   34     -7.54792    2.00000
   35     -7.38916    2.00000
   36     -7.24519    2.00000
   37     -7.17970    2.00000
   38     -6.71915    2.00000
   39     -6.56369    2.00000
   40     -6.43501    2.00000
   41     -6.16500    2.00000
   42     -6.07994    1.99999
   43     -5.82026    1.99985
   44     -5.75379    1.99971
   45     -5.65074    1.99919
   46     -5.08889    1.79980
   47     -4.90259    1.16504
   48     -4.77434    0.55801
   49     -4.68636    0.27668
   50     -4.64470    0.19144
   51     -4.31753    0.00800
   52     -4.15558    0.00159
   53     -4.05245    0.00057
   54     -3.88428    0.00011
   55     -3.69671    0.00002
   56     -3.59444    0.00001
   57     -3.19630    0.00000
   58     -2.87936    0.00000
   59     -2.78910    0.00000
   60     -2.36517    0.00000
   61     -2.19229    0.00000
   62     -1.65423    0.00000
   63     -1.55289    0.00000
   64     -1.13000    0.00000
   65     -0.98577    0.00000
   66     -0.65620    0.00000
   67     -0.29443    0.00000
   68      0.19301    0.00000
   69      0.30097    0.00000
   70      0.94290    0.00000
   71      1.09089    0.00000
   72      1.78090    0.00000
   73      2.34861    0.00000
   74      2.42656    0.00000
   75      3.17167    0.00000
   76      3.49903    0.00000
   77      4.08038    0.00000
   78      4.42805    0.00000
   79      5.14242    0.00000
   80      5.45806    0.00000
   81      5.58775    0.00000
   82      6.28402    0.00000
   83      6.37821    0.00000
   84      6.63772    0.00000
   85      7.05260    0.00000
   86      7.38290    0.00000
   87      7.72452    0.00000
   88      7.86030    0.00000
   89      8.15972    0.00000
   90      8.46130    0.00000
   91      8.61403    0.00000
   92      8.69078    0.00000
   93      8.90751    0.00000
   94      9.12489    0.00000
   95      9.21555    0.00000
   96      9.31776    0.00000
   97      9.52138    0.00000


Forces in eV/Ang:
  0 C     2.85807    2.62870   -1.85973
  1 C    -0.09356    0.88357    0.17745
  2 C    -3.03854    3.84592   14.39489
  3 C     3.10587   -1.17698    1.21774
  4 C     2.25783    0.61152   -0.44781
  5 C     1.60245   -3.23629    0.74515
  6 C    -1.62851   -3.45631    3.30641
  7 C   -10.40208   -0.02772   -2.98182
  8 C     1.58436   -0.33315   -0.51418
  9 C     6.91507   -3.34908   -1.29013
 10 C   -10.92701    3.95286   -8.72796
 11 C     7.62397   -8.13868    1.93024
 12 C    -1.61017   -0.06432    3.93748
 13 C     7.58492   -5.62345    1.13067
 14 C   -10.00602    4.67765    0.39003
 15 C    -1.64811    3.27855   -1.82316
 16 C     3.75612   -2.88743  -12.43378
 17 C     2.47863   -1.01986    0.14916
 18 C   -11.18159   -4.76279   -2.77401
 19 C     4.92871    3.89184   -0.22513
 20 C    -1.37983    9.98990   -1.40605
 21 C    -2.12461    3.11055   -4.62002
 22 C    11.26253   -3.52297   12.59277
 23 C    -1.84498    0.70781   -0.96660

System changes: positions 

Initializing position-dependent things.

Density initialized from wave functions
           .--------------------------------------.  
          /|                                      |  
         / |                                      |  
        /  |                                      |  
       /   |                                      |  
      /    |                                      |  
     /     |                                      |  
    /      |                                      |  
   /       |                                      |  
  /        |        C C  C        C               |  
 *         |                C   C                 |  
 |         |         C C  C  C     C              |  
 |         .---CC-C----------C-C---C--------------.  
 |        /         C C    C                     /   
 |       /            C      C                  /    
 |      /                                      /     
 |     /                                      /      
 |    /                                      /       
 |   /                                      /        
 |  /                                      /         
 | /                                      /          
 |/                                      /           
 *--------------------------------------*            

Positions:
   0 C      6.202947   10.136466    5.563334
   1 C     11.967308    7.262402    4.832688
   2 C      6.456937    6.695259    5.550133
   3 C      7.682691    4.348434    4.800089
   4 C      8.412644    6.852682    5.359431
   5 C      6.473984    4.947399    4.990484
   6 C      6.812363   11.413487    4.483929
   7 C      5.431640    6.591657    4.506640
   8 C      4.974898    5.387793    5.241817
   9 C     11.369953    9.555138    4.574367
  10 C     10.037313   10.014026    4.831846
  11 C      9.073592    8.637645    5.017315
  12 C     10.286772    4.930620    4.447000
  13 C     10.754946    6.531597    4.787465
  14 C      9.652119    7.013306    4.357365
  15 C      9.921193   11.308404    4.448751
  16 C      6.821756    6.388709    4.349422
  17 C      3.670583    8.100268    4.449734
  18 C      7.898481    8.875977    4.585138
  19 C      6.966161    7.809229    4.794424
  20 C      8.559074    9.972815    4.704062
  21 C      9.407220    4.209279    5.339232
  22 C     10.841519    9.784789    5.763892
  23 C      5.031289   10.676384    5.396614

Unit cell:
           periodic     x           y           z      points  spacing
  1. axis:    yes   16.000000    0.000000    0.000000    80     0.2000
  2. axis:    yes    0.000000   16.000000    0.000000    80     0.2000
  3. axis:    yes    0.000000    0.000000   10.000000    48     0.2083

Effective grid spacing dv^(1/3) = 0.2027

                     log10-error:    total        iterations:
           time      wfs    density  energy       fermi  poisson
iter:   1  14:13:58          +inf  -131.672137    3      5      
iter:   2  14:13:59         -1.69  -131.498321    3      2      
iter:   3  14:13:59         -1.82  -131.362756    3      2      
iter:   4  14:14:00         -2.04  -131.361922    3      1      
iter:   5  14:14:00         -2.13  -131.357349    3      2      
iter:   6  14:14:01         -2.24  -131.348280    3      2      
iter:   7  14:14:01         -2.40  -131.346400    2      2      
iter:   8  14:14:02         -2.61  -131.346541    2      2      
iter:   9  14:14:02         -2.72  -131.344594    2      2      
iter:  10  14:14:03         -2.96  -131.345970    2      1      
iter:  11  14:14:03         -3.02  -131.345406    2      1      
iter:  12  14:14:04         -3.21  -131.345500    2      1      
iter:  13  14:14:04         -3.30  -131.346494    2      1      
iter:  14  14:14:05         -3.47  -131.345466    2      1      
iter:  15  14:14:05         -3.48  -131.345746    2      1      
iter:  16  14:14:06         -3.75  -131.345544    2      1      
iter:  17  14:14:06         -3.89  -131.345167    2      1      
iter:  18  14:14:07         -4.11  -131.345474    2      1      

Converged after 18 iterations.

Dipole moment: (-0.219042, -0.241452, -0.328804) |e|*Ang

Energy contributions relative to reference atoms: (reference = -24663.074771)

Kinetic:       +153.770779
Potential:     -132.185093
External:        +0.000000
XC:            -155.359126
Entropy (-ST):   -0.456066
Local:           +2.655999
--------------------------
Free energy:   -131.573507
Extrapolated:  -131.345474

Fermi level: -4.84820

 Band  Eigenvalues  Occupancy
    0    -28.20321    2.00000
    1    -27.47683    2.00000
    2    -25.18701    2.00000
    3    -22.37493    2.00000
    4    -21.76487    2.00000
    5    -20.45371    2.00000
    6    -19.84796    2.00000
    7    -19.41464    2.00000
    8    -18.61334    2.00000
    9    -18.13289    2.00000
   10    -17.64500    2.00000
   11    -16.19433    2.00000
   12    -15.73258    2.00000
   13    -15.24192    2.00000
   14    -14.64054    2.00000
   15    -14.35139    2.00000
   16    -14.06612    2.00000
   17    -13.63053    2.00000
   18    -13.15458    2.00000
   19    -12.97737    2.00000
   20    -12.36677    2.00000
   21    -11.98838    2.00000
   22    -11.84111    2.00000
   23    -11.10350    2.00000
   24    -10.85878    2.00000
   25     -9.90827    2.00000
   26     -9.86889    2.00000
   27     -9.57858    2.00000
   28     -9.04306    2.00000
   29     -8.72723    2.00000
   30     -8.50515    2.00000
   31     -8.28188    2.00000
   32     -8.06689    2.00000
   33     -7.81734    2.00000
   34     -7.54800    2.00000
   35     -7.38842    2.00000
   36     -7.29436    2.00000
   37     -7.16217    2.00000
   38     -6.69594    2.00000
   39     -6.58844    2.00000
   40     -6.48483    2.00000
   41     -6.15827    2.00000
   42     -6.04427    1.99999
   43     -5.83814    1.99990
   44     -5.71834    1.99967
   45     -5.67522    1.99949
   46     -5.08564    1.82970
   47     -4.87600    1.13810
   48     -4.76850    0.62130
   49     -4.64361    0.22892
   50     -4.61365    0.17484
   51     -4.27607    0.00653
   52     -4.08321    0.00095
   53     -4.02783    0.00055
   54     -3.81143    0.00006
   55     -3.63198    0.00001
   56     -3.55674    0.00000
   57     -3.12552    0.00000
   58     -2.82006    0.00000
   59     -2.74629    0.00000
   60     -2.26912    0.00000
   61     -2.12842    0.00000
   62     -1.63383    0.00000
   63     -1.41742    0.00000
   64     -1.00706    0.00000
   65     -0.88777    0.00000
   66     -0.55535    0.00000
   67     -0.28425    0.00000
   68      0.26372    0.00000
   69      0.33648    0.00000
   70      0.97770    0.00000
   71      1.20018    0.00000
   72      1.93743    0.00000
   73      2.48533    0.00000
   74      2.72692    0.00000
   75      3.33885    0.00000
   76      3.53970    0.00000
   77      4.00094    0.00000
   78      4.51166    0.00000
   79      5.17770    0.00000
   80      5.41277    0.00000
   81      5.67894    0.00000
   82      6.44946    0.00000
   83      6.52358    0.00000
   84      6.77269    0.00000
   85      7.18441    0.00000
   86      7.39095    0.00000
   87      7.70358    0.00000
   88      7.97134    0.00000
   89      8.09642    0.00000
   90      8.45107    0.00000
   91      8.65694    0.00000
   92      8.68351    0.00000
   93      8.84191    0.00000
   94      9.08347    0.00000
   95      9.20592    0.00000
   96      9.30778    0.00000
   97      9.51524    0.00000


Forces in eV/Ang:
  0 C     2.42243    3.24030   -2.09997
  1 C    -0.26433    0.67007    0.15203
  2 C    -3.38906    3.33992   12.18135
  3 C     3.28658   -1.01931    1.42619
  4 C     2.30226    0.75472   -0.55735
  5 C     1.81182   -2.58370    0.62643
  6 C    -1.60444   -3.60020    3.42053
  7 C    -9.49865   -0.10643   -2.45420
  8 C     1.39000   -0.58778   -0.47454
  9 C     6.03505   -3.10490   -1.07176
 10 C    -9.31422    3.53741   -7.36453
 11 C     7.03962   -7.40836    0.92237
 12 C    -1.21525    0.09050    3.75379
 13 C     6.23389   -5.08532    0.07684
 14 C    -8.51554    4.84108    1.58700
 15 C    -1.56725    2.70088   -1.56892
 16 C     2.44089   -2.15455  -10.85361
 17 C     2.60081   -1.23602    0.14539
 18 C    -9.30355   -3.83772   -2.19519
 19 C     4.83715    2.51149    0.06931
 20 C    -1.09365    8.88540   -1.29587
 21 C    -2.73331    2.96685   -4.44144
 22 C     9.82671   -3.19773   10.70611
 23 C    -1.63912    0.41725   -0.78886

System changes: positions 

Initializing position-dependent things.

Density initialized from wave functions
           .--------------------------------------.  
          /|                                      |  
         / |                                      |  
        /  |                                      |  
       /   |                                      |  
      /    |                                      |  
     /     |                                      |  
    /      |                                      |  
   /       |                                      |  
  /        |        C C  C        C               |  
 *         |                C   C                 |  
 |         |         C C  C  C     C              |  
 |         .---C-CC----------C-C---C--------------.  
 |        /         C C    C                     /   
 |       /            C      C                  /    
 |      /                                      /     
 |     /                                      /      
 |    /                                      /       
 |   /                                      /        
 |  /                                      /         
 | /                                      /          
 |/                                      /           
 *--------------------------------------*            

Positions:
   0 C      6.211621   10.160090    5.549321
   1 C     11.965464    7.265852    4.833174
   2 C      6.443855    6.706073    5.556460
   3 C      7.702290    4.344037    4.809389
   4 C      8.424537    6.858011    5.355586
   5 C      6.485418    4.939043    4.993238
   6 C      6.803399   11.391791    4.504389
   7 C      5.402354    6.588524    4.504303
   8 C      4.981676    5.382832    5.239643
   9 C     11.384900    9.543155    4.577803
  10 C     10.032190   10.019696    4.832985
  11 C      9.084158    8.617742    5.002920
  12 C     10.281682    4.933197    4.468529
  13 C     10.757989    6.511623    4.768332
  14 C      9.635374    7.034203    4.387079
  15 C      9.914526   11.317602    4.443958
  16 C      6.804337    6.395863    4.336119
  17 C      3.686908    8.091471    4.450439
  18 C      7.891746    8.874236    4.588899
  19 C      6.989767    7.805208    4.798172
  20 C      8.547965    9.985567    4.698688
  21 C      9.388790    4.225332    5.314183
  22 C     10.860356    9.777309    5.766923
  23 C      5.026140   10.675555    5.393528

Unit cell:
           periodic     x           y           z      points  spacing
  1. axis:    yes   16.000000    0.000000    0.000000    80     0.2000
  2. axis:    yes    0.000000   16.000000    0.000000    80     0.2000
  3. axis:    yes    0.000000    0.000000   10.000000    48     0.2083

Effective grid spacing dv^(1/3) = 0.2027

                     log10-error:    total        iterations:
           time      wfs    density  energy       fermi  poisson
iter:   1  14:14:08          +inf  -134.332341    3      5      
iter:   2  14:14:09         -1.73  -134.193406    3      2      
iter:   3  14:14:09         -1.85  -134.071595    3      2      
iter:   4  14:14:10         -2.10  -134.071213    3      1      
iter:   5  14:14:10         -2.16  -134.064853    3      2      
iter:   6  14:14:11         -2.30  -134.056486    3      2      
iter:   7  14:14:11         -2.45  -134.055900    3      2      
iter:   8  14:14:12         -2.66  -134.056141    2      2      
iter:   9  14:14:12         -2.76  -134.055891    2      2      
iter:  10  14:14:13         -2.97  -134.054014    2      1      
iter:  11  14:14:13         -3.08  -134.053747    2      1      
iter:  12  14:14:14         -3.19  -134.055128    2      1      
iter:  13  14:14:14         -3.31  -134.056436    2      1      
iter:  14  14:14:15         -3.53  -134.055311    2      1      
iter:  15  14:14:15         -3.65  -134.055390    2      1      
iter:  16  14:14:16         -3.70  -134.055541    2      1      
iter:  17  14:14:16         -3.77  -134.056273    2      1      
iter:  18  14:14:17         -4.11  -134.055613    2      1      

Converged after 18 iterations.

Dipole moment: (-0.195233, -0.303636, -0.331278) |e|*Ang

Energy contributions relative to reference atoms: (reference = -24663.074771)

Kinetic:       +145.011603
Potential:     -126.499726
External:        +0.000000
XC:            -155.021513
Entropy (-ST):   -0.431268
Local:           +2.669657
--------------------------
Free energy:   -134.271247
Extrapolated:  -134.055613

Fermi level: -4.82381

 Band  Eigenvalues  Occupancy
    0    -27.83075    2.00000
    1    -27.15257    2.00000
    2    -24.87014    2.00000
    3    -22.36390    2.00000
    4    -21.68152    2.00000
    5    -20.34714    2.00000
    6    -19.76619    2.00000
    7    -19.61144    2.00000
    8    -18.76643    2.00000
    9    -18.20641    2.00000
   10    -17.71834    2.00000
   11    -16.08234    2.00000
   12    -15.58506    2.00000
   13    -15.20000    2.00000
   14    -14.62969    2.00000
   15    -14.35937    2.00000
   16    -13.88135    2.00000
   17    -13.62888    2.00000
   18    -13.06695    2.00000
   19    -13.03621    2.00000
   20    -12.43395    2.00000
   21    -12.10794    2.00000
   22    -11.77112    2.00000
   23    -11.12867    2.00000
   24    -10.94526    2.00000
   25    -10.05005    2.00000
   26     -9.82547    2.00000
   27     -9.58106    2.00000
   28     -9.08736    2.00000
   29     -8.75213    2.00000
   30     -8.46282    2.00000
   31     -8.23306    2.00000
   32     -8.12558    2.00000
   33     -7.85600    2.00000
   34     -7.57455    2.00000
   35     -7.43978    2.00000
   36     -7.32529    2.00000
   37     -7.13558    2.00000
   38     -6.72811    2.00000
   39     -6.60083    2.00000
   40     -6.47313    2.00000
   41     -6.18682    2.00000
   42     -6.00183    1.99998
   43     -5.82991    1.99991
   44     -5.71477    1.99973
   45     -5.66595    1.99956
   46     -5.09559    1.87614
   47     -4.85073    1.13378
   48     -4.74700    0.63379
   49     -4.61418    0.21893
   50     -4.55895    0.13215
   51     -4.21764    0.00465
   52     -4.06092    0.00097
   53     -3.96044    0.00036
   54     -3.74437    0.00004
   55     -3.59272    0.00001
   56     -3.47700    0.00000
   57     -3.06705    0.00000
   58     -2.80744    0.00000
   59     -2.64045    0.00000
   60     -2.17303    0.00000
   61     -2.05112    0.00000
   62     -1.60859    0.00000
   63     -1.27495    0.00000
   64     -0.92657    0.00000
   65     -0.78397    0.00000
   66     -0.45712    0.00000
   67     -0.25753    0.00000
   68      0.32844    0.00000
   69      0.38961    0.00000
   70      1.03230    0.00000
   71      1.31066    0.00000
   72      2.04810    0.00000
   73      2.58994    0.00000
   74      3.18115    0.00000
   75      3.44418    0.00000
   76      3.67585    0.00000
   77      3.97618    0.00000
   78      4.61137    0.00000
   79      5.14012    0.00000
   80      5.36947    0.00000
   81      5.82464    0.00000
   82      6.57679    0.00000
   83      6.62663    0.00000
   84      6.84530    0.00000
   85      7.34700    0.00000
   86      7.44072    0.00000
   87      7.68241    0.00000
   88      8.02984    0.00000
   89      8.09350    0.00000
   90      8.41784    0.00000
   91      8.66379    0.00000
   92      8.69057    0.00000
   93      8.82982    0.00000
   94      9.05356    0.00000
   95      9.20303    0.00000
   96      9.32363    0.00000
   97      9.48317    0.00000


Forces in eV/Ang:
  0 C     2.29298    3.66573   -2.28992
  1 C    -0.40362    0.42890    0.11956
  2 C    -3.72748    2.88821   10.36874
  3 C     3.44012   -0.86488    1.57322
  4 C     2.19448    0.79982   -0.56453
  5 C     2.08391   -1.99985    0.50490
  6 C    -1.56492   -3.68713    3.49288
  7 C    -8.74269    0.03319   -2.08440
  8 C     1.21915   -0.77317   -0.39736
  9 C     5.40759   -2.93472   -0.88935
 10 C    -8.06953    3.20431   -6.31362
 11 C     6.41718   -6.89785    0.04315
 12 C    -0.87751    0.20384    3.49872
 13 C     5.38888   -4.58335   -0.58710
 14 C    -7.37697    5.02963    2.35505
 15 C    -1.57395    2.23754   -1.38026
 16 C     1.38590   -1.65458   -9.54207
 17 C     2.67864   -1.43490    0.13154
 18 C    -7.52248   -2.92775   -1.67833
 19 C     4.69052    1.25194    0.43130
 20 C    -0.94065    7.89919   -1.24367
 21 C    -3.27368    2.88887   -4.26260
 22 C     8.70033   -2.95630    9.30224
 23 C    -1.75163    0.25749   -0.63020

System changes: positions 

Initializing position-dependent things.

Density initialized from wave functions
           .--------------------------------------.  
          /|                                      |  
         / |                                      |  
        /  |                                      |  
       /   |                                      |  
      /    |                                      |  
     /     |                                      |  
    /      |                                      |  
   /       |                                      |  
  /        |        C  C C        C               |  
 *         |                C   C                 |  
 |         |         C C  C  C     C              |  
 |         .---C-CC----------C-C---C--------------.  
 |        /         C C   C                      /   
 |       /             C     C                  /    
 |      /                                      /     
 |     /                                      /      
 |    /                                      /       
 |   /                                      /        
 |  /                                      /         
 | /                                      /          
 |/                                      /           
 *--------------------------------------*            

Positions:
   0 C      6.220753   10.184745    5.534764
   1 C     11.963147    7.267791    4.833495
   2 C      6.428087    6.715106    5.562351
   3 C      7.722358    4.340361    4.819089
   4 C      8.435202    6.862948    5.352228
   5 C      6.498371    4.933090    4.995275
   6 C      6.794839   11.370271    4.524667
   7 C      5.374022    6.587671    4.501760
   8 C      4.987560    5.377307    5.238044
   9 C     11.399369    9.531343    4.581261
  10 C     10.027759   10.025104    4.834330
  11 C      9.095060    8.596844    4.986795
  12 C     10.278291    4.935959    4.487846
  13 C     10.761855    6.493818    4.749624
  14 C      9.620368    7.056733    4.416528
  15 C      9.907258   11.325576    4.439505
  16 C      6.786179    6.402147    4.323230
  17 C      3.703036    8.081918    4.451054
  18 C      7.888483    8.874786    4.593117
  19 C      7.012614    7.797127    4.803724
  20 C      8.537874    9.998478    4.693121
  21 C      9.367957    4.241047    5.290603
  22 C     10.877834    9.769810    5.769953
  23 C      5.019068   10.674510    5.391241

Unit cell:
           periodic     x           y           z      points  spacing
  1. axis:    yes   16.000000    0.000000    0.000000    80     0.2000
  2. axis:    yes    0.000000   16.000000    0.000000    80     0.2000
  3. axis:    yes    0.000000    0.000000   10.000000    48     0.2083

Effective grid spacing dv^(1/3) = 0.2027

                     log10-error:    total        iterations:
           time      wfs    density  energy       fermi  poisson
iter:   1  14:14:18          +inf  -136.843063    3      5      
iter:   2  14:14:19         -1.76  -136.726344    3      2      
iter:   3  14:14:19         -1.88  -136.623838    2      2      
iter:   4  14:14:20         -2.16  -136.613731    3      2      
iter:   5  14:14:20         -2.22  -136.611345    3      2      
iter:   6  14:14:21         -2.34  -136.605048    2      2      
iter:   7  14:14:21         -2.51  -136.604252    3      2      
iter:   8  14:14:22         -2.69  -136.604900    2      2      
iter:   9  14:14:22         -2.78  -136.603974    2      2      
iter:  10  14:14:23         -3.09  -136.602720    2      1      
iter:  11  14:14:23         -3.18  -136.605133    2      1      
iter:  12  14:14:24         -3.28  -136.603807    2      1      
iter:  13  14:14:24         -3.43  -136.605095    2      1      
iter:  14  14:14:25         -3.59  -136.604468    2      1      
iter:  15  14:14:25         -3.67  -136.603542    2      1      
iter:  16  14:14:26         -3.84  -136.604349    2      1      
iter:  17  14:14:26         -3.93  -136.604698    2      1      
iter:  18  14:14:27         -4.09  -136.604129    2      1      

Converged after 18 iterations.

Dipole moment: (-0.189123, -0.351413, -0.327370) |e|*Ang

Energy contributions relative to reference atoms: (reference = -24663.074771)

Kinetic:       +137.893561
Potential:     -122.028523
External:        +0.000000
XC:            -154.948837
Entropy (-ST):   -0.402667
Local:           +2.681003
--------------------------
Free energy:   -136.805463
Extrapolated:  -136.604129

Fermi level: -4.79991

 Band  Eigenvalues  Occupancy
    0    -27.53323    2.00000
    1    -26.86653    2.00000
    2    -24.58949    2.00000
    3    -22.37941    2.00000
    4    -21.59431    2.00000
    5    -20.25666    2.00000
    6    -19.83227    2.00000
    7    -19.71480    2.00000
    8    -18.93274    2.00000
    9    -18.22622    2.00000
   10    -17.78251    2.00000
   11    -16.00041    2.00000
   12    -15.48855    2.00000
   13    -15.13954    2.00000
   14    -14.67684    2.00000
   15    -14.32838    2.00000
   16    -13.72348    2.00000
   17    -13.64382    2.00000
   18    -13.16298    2.00000
   19    -12.94185    2.00000
   20    -12.50927    2.00000
   21    -12.20360    2.00000
   22    -11.71837    2.00000
   23    -11.14403    2.00000
   24    -11.02072    2.00000
   25    -10.23179    2.00000
   26     -9.78821    2.00000
   27     -9.59507    2.00000
   28     -9.12183    2.00000
   29     -8.78463    2.00000
   30     -8.44623    2.00000
   31     -8.19790    2.00000
   32     -8.17268    2.00000
   33     -7.89092    2.00000
   34     -7.61309    2.00000
   35     -7.54811    2.00000
   36     -7.32250    2.00000
   37     -7.10129    2.00000
   38     -6.77100    2.00000
   39     -6.59179    2.00000
   40     -6.46281    2.00000
   41     -6.23454    2.00000
   42     -5.96800    1.99998
   43     -5.82427    1.99993
   44     -5.72162    1.99980
   45     -5.63450    1.99953
   46     -5.12394    1.92465
   47     -4.82970    1.14786
   48     -4.71689    0.60724
   49     -4.59508    0.22845
   50     -4.49248    0.08837
   51     -4.14525    0.00287
   52     -4.04909    0.00110
   53     -3.87963    0.00020
   54     -3.68652    0.00003
   55     -3.54086    0.00001
   56     -3.39407    0.00000
   57     -3.01199    0.00000
   58     -2.78686    0.00000
   59     -2.52873    0.00000
   60     -2.09375    0.00000
   61     -1.94650    0.00000
   62     -1.58292    0.00000
   63     -1.13258    0.00000
   64     -0.86902    0.00000
   65     -0.70126    0.00000
   66     -0.35588    0.00000
   67     -0.22056    0.00000
   68      0.37086    0.00000
   69      0.44671    0.00000
   70      1.09625    0.00000
   71      1.40595    0.00000
   72      2.11122    0.00000
   73      2.64119    0.00000
   74      3.55041    0.00000
   75      3.66880    0.00000
   76      3.85694    0.00000
   77      4.09235    0.00000
   78      4.71420    0.00000
   79      5.05664    0.00000
   80      5.33234    0.00000
   81      5.95517    0.00000
   82      6.61674    0.00000
   83      6.80906    0.00000
   84      6.88162    0.00000
   85      7.39925    0.00000
   86      7.54341    0.00000
   87      7.72279    0.00000
   88      7.99942    0.00000
   89      8.18692    0.00000
   90      8.36321    0.00000
   91      8.62955    0.00000
   92      8.68414    0.00000
   93      8.86901    0.00000
   94      9.05162    0.00000
   95      9.19574    0.00000
   96      9.35717    0.00000
   97      9.41246    0.00000


Forces in eV/Ang:
  0 C     1.99023    4.07959   -2.46650
  1 C    -0.47973    0.19363    0.07705
  2 C    -3.94784    2.52156    8.86782
  3 C     3.52678   -0.70152    1.71678
  4 C     1.90062    0.73838   -0.44887
  5 C     2.29979   -1.44256    0.30940
  6 C    -1.47913   -3.70400    3.49500
  7 C    -8.03623    0.24742   -1.79935
  8 C     1.09517   -0.89398   -0.27877
  9 C     4.84337   -2.79743   -0.69855
 10 C    -6.96511    2.90168   -5.40772
 11 C     5.91144   -6.47325   -0.71055
 12 C    -0.60463    0.30546    3.24189
 13 C     4.43549   -3.98704   -1.07085
 14 C    -6.06920    5.00704    2.87963
 15 C    -1.65311    1.83084   -1.22453
 16 C     0.50931   -1.36110   -8.41164
 17 C     2.73127   -1.62056    0.10919
 18 C    -6.14532   -2.21951   -1.28602
 19 C     4.50878    0.15924    0.79484
 20 C    -0.73148    7.21797   -1.24827
 21 C    -3.67682    2.84250   -4.05530
 22 C     7.75691   -2.74812    8.10108
 23 C    -1.72537    0.03813   -0.42642

System changes: positions 

Initializing position-dependent things.

Density initialized from wave functions
           .--------------------------------------.  
          /|                                      |  
         / |                                      |  
        /  |                                      |  
       /   |                                      |  
      /    |                                      |  
     /     |                                      |  
    /      |                                      |  
   /       |                                      |  
  /        |        C  C C        C               |  
 *         |                C   C                 |  
 |         |         C C  C  C     C              |  
 |         .---C-CC----------C-C---C--------------.  
 |        /         CC C  C                      /   
 |       /                   C                  /    
 |      /                                      /     
 |     /                                      /      
 |    /                                      /       
 |   /                                      /        
 |  /                                      /         
 | /                                      /          
 |/                                      /           
 *--------------------------------------*            

Positions:
   0 C      6.228882   10.212651    5.518498
   1 C     11.960757    7.268550    4.833567
   2 C      6.410009    6.723923    5.568826
   3 C      7.743897    4.337226    4.830057
   4 C      8.443722    6.866959    5.350247
   5 C      6.513212    4.928941    4.995996
   6 C      6.786419   11.347724    4.545845
   7 C      5.344645    6.589236    4.498593
   8 C      4.993574    5.371352    5.237270
   9 C     11.414367    9.518583    4.585324
  10 C     10.023836   10.030588    4.835981
  11 C      9.107334    8.573527    4.968114
  12 C     10.275586    4.939139    4.506868
  13 C     10.764031    6.477805    4.730526
  14 C      9.608980    7.080222    4.446836
  15 C      9.898192   11.333239    4.434857
  16 C      6.766268    6.406968    4.309727
  17 C      3.720224    8.070895    4.451538
  18 C      7.885797    8.876218    4.597474
  19 C      7.036202    7.785380    4.811542
  20 C      8.528564   10.014238    4.686443
  21 C      9.344449    4.258033    5.266661
  22 C     10.896021    9.761695    5.773286
  23 C      5.011424   10.672346    5.390042

Unit cell:
           periodic     x           y           z      points  spacing
  1. axis:    yes   16.000000    0.000000    0.000000    80     0.2000
  2. axis:    yes    0.000000   16.000000    0.000000    80     0.2000
  3. axis:    yes    0.000000    0.000000   10.000000    48     0.2083

Effective grid spacing dv^(1/3) = 0.2027

                     log10-error:    total        iterations:
           time      wfs    density  energy       fermi  poisson
iter:   1  14:14:28          +inf  -139.427258    3      5      
iter:   2  14:14:29         -1.73  -139.294440    3      2      
iter:   3  14:14:29         -1.85  -139.235098    3      2      
iter:   4  14:14:30         -1.95  -139.180929    3      2      
iter:   5  14:14:30         -2.18  -139.169682    3      2      
iter:   6  14:14:31         -2.34  -139.165840    3      2      
iter:   7  14:14:31         -2.46  -139.163541    3      2      
iter:   8  14:14:32         -2.69  -139.161950    2      1      
iter:   9  14:14:32         -2.77  -139.163143    3      2      
iter:  10  14:14:33         -3.02  -139.162995    2      1      
iter:  11  14:14:33         -3.13  -139.163304    2      1      
iter:  12  14:14:34         -3.28  -139.163056    2      1      
iter:  13  14:14:34         -3.39  -139.163514    2      1      
iter:  14  14:14:35         -3.57  -139.164301    2      1      
iter:  15  14:14:35         -3.66  -139.164422    2      1      
iter:  16  14:14:36         -3.74  -139.164047    2      1      
iter:  17  14:14:36         -3.98  -139.164344    1      1      
iter:  18  14:14:37         -4.14  -139.164085    2      1      

Converged after 18 iterations.

Dipole moment: (-0.196877, -0.389403, -0.315343) |e|*Ang

Energy contributions relative to reference atoms: (reference = -24663.074771)

Kinetic:       +131.869528
Potential:     -118.440122
External:        +0.000000
XC:            -155.089738
Entropy (-ST):   -0.378551
Local:           +2.685523
--------------------------
Free energy:   -139.353360
Extrapolated:  -139.164085

Fermi level: -4.77532

 Band  Eigenvalues  Occupancy
    0    -27.26933    2.00000
    1    -26.56084    2.00000
    2    -24.31189    2.00000
    3    -22.40953    2.00000
    4    -21.51010    2.00000
    5    -20.17914    2.00000
    6    -20.09985    2.00000
    7    -19.70559    2.00000
    8    -19.07574    2.00000
    9    -18.22781    2.00000
   10    -17.81196    2.00000
   11    -15.94450    2.00000
   12    -15.46045    2.00000
   13    -15.05939    2.00000
   14    -14.71414    2.00000
   15    -14.29508    2.00000
   16    -13.67678    2.00000
   17    -13.57136    2.00000
   18    -13.27510    2.00000
   19    -12.85327    2.00000
   20    -12.60685    2.00000
   21    -12.25106    2.00000
   22    -11.66628    2.00000
   23    -11.15246    2.00000
   24    -11.08755    2.00000
   25    -10.43954    2.00000
   26     -9.75363    2.00000
   27     -9.61828    2.00000
   28     -9.15463    2.00000
   29     -8.81495    2.00000
   30     -8.45770    2.00000
   31     -8.23570    2.00000
   32     -8.15836    2.00000
   33     -7.92156    2.00000
   34     -7.70780    2.00000
   35     -7.63683    2.00000
   36     -7.32557    2.00000
   37     -7.05847    2.00000
   38     -6.81247    2.00000
   39     -6.58045    2.00000
   40     -6.45899    2.00000
   41     -6.29276    2.00000
   42     -5.97684    1.99999
   43     -5.83112    1.99995
   44     -5.69205    1.99979
   45     -5.59692    1.99946
   46     -5.16261    1.95925
   47     -4.80722    1.15814
   48     -4.68720    0.58584
   49     -4.57626    0.24039
   50     -4.41764    0.05441
   51     -4.05642    0.00151
   52     -4.02830    0.00114
   53     -3.79708    0.00011
   54     -3.64371    0.00002
   55     -3.46259    0.00000
   56     -3.32259    0.00000
   57     -2.94789    0.00000
   58     -2.74096    0.00000
   59     -2.41433    0.00000
   60     -2.03210    0.00000
   61     -1.80375    0.00000
   62     -1.55416    0.00000
   63     -0.98631    0.00000
   64     -0.81257    0.00000
   65     -0.63458    0.00000
   66     -0.25326    0.00000
   67     -0.16348    0.00000
   68      0.40595    0.00000
   69      0.51434    0.00000
   70      1.15707    0.00000
   71      1.51378    0.00000
   72      2.15485    0.00000
   73      2.61187    0.00000
   74      3.68015    0.00000
   75      3.99204    0.00000
   76      4.07997    0.00000
   77      4.53653    0.00000
   78      4.81972    0.00000
   79      4.99575    0.00000
   80      5.32687    0.00000
   81      6.07012    0.00000
   82      6.62634    0.00000
   83      6.88254    0.00000
   84      7.00818    0.00000
   85      7.44528    0.00000
   86      7.55609    0.00000
   87      7.81392    0.00000
   88      8.01396    0.00000
   89      8.24540    0.00000
   90      8.32968    0.00000
   91      8.59601    0.00000
   92      8.67870    0.00000
   93      8.90372    0.00000
   94      9.09300    0.00000
   95      9.18499    0.00000
   96      9.35525    0.00000
   97      9.41220    0.00000


[...]
Local:           +2.961292
--------------------------
Free energy:   -180.861439
Extrapolated:  -180.748365

Fermi level: -4.26897

 Band  Eigenvalues  Occupancy
    0    -26.12844    2.00000
    1    -22.88411    2.00000
    2    -21.89655    2.00000
    3    -21.15505    2.00000
    4    -20.83298    2.00000
    5    -20.22775    2.00000
    6    -19.62443    2.00000
    7    -19.39781    2.00000
    8    -18.55151    2.00000
    9    -17.84244    2.00000
   10    -17.55291    2.00000
   11    -17.02334    2.00000
   12    -16.11406    2.00000
   13    -15.76369    2.00000
   14    -15.25914    2.00000
   15    -14.83402    2.00000
   16    -14.41058    2.00000
   17    -13.90804    2.00000
   18    -13.46853    2.00000
   19    -12.99797    2.00000
   20    -12.54306    2.00000
   21    -11.94873    2.00000
   22    -11.75165    2.00000
   23    -11.36695    2.00000
   24    -11.23552    2.00000
   25    -10.69248    2.00000
   26    -10.49679    2.00000
   27    -10.39588    2.00000
   28    -10.01232    2.00000
   29     -9.73171    2.00000
   30     -9.60136    2.00000
   31     -9.32391    2.00000
   32     -9.10244    2.00000
   33     -8.84123    2.00000
   34     -8.59360    2.00000
   35     -8.43691    2.00000
   36     -7.96726    2.00000
   37     -7.66082    2.00000
   38     -7.16998    2.00000
   39     -7.01147    2.00000
   40     -6.79842    2.00000
   41     -6.31857    2.00000
   42     -6.25078    2.00000
   43     -5.72900    2.00000
   44     -5.37981    1.99997
   45     -5.06878    1.99933
   46     -4.87276    1.99524
   47     -4.39315    1.55175
   48     -4.14063    0.43396
   49     -3.80791    0.01970
   50     -3.22228    0.00006
   51     -2.76238    0.00000
   52     -2.67354    0.00000
   53     -2.15702    0.00000
   54     -1.70934    0.00000
   55     -1.54382    0.00000
   56     -1.45873    0.00000
   57     -1.12484    0.00000
   58     -1.01740    0.00000
   59      0.39695    0.00000
   60      0.72872    0.00000
   61      1.71537    0.00000
   62      2.78419    0.00000
   63      2.97832    0.00000
   64      3.27168    0.00000
   65      3.47454    0.00000
   66      3.70042    0.00000
   67      3.91881    0.00000
   68      4.08490    0.00000
   69      4.26915    0.00000
   70      4.59303    0.00000
   71      5.11643    0.00000
   72      5.26858    0.00000
   73      5.67596    0.00000
   74      6.03061    0.00000
   75      6.37658    0.00000
   76      6.60987    0.00000
   77      7.08512    0.00000
   78      7.62448    0.00000
   79      7.66152    0.00000
   80      7.99200    0.00000
   81      8.13584    0.00000
   82      8.26875    0.00000
   83      8.41088    0.00000
   84      8.73644    0.00000
   85      8.92053    0.00000
   86      9.01759    0.00000
   87      9.13315    0.00000
   88      9.23901    0.00000
   89      9.35165    0.00000
   90      9.44346    0.00000
   91      9.46413    0.00000
   92      9.58742    0.00000
   93      9.75921    0.00000
   94      9.82547    0.00000
   95     10.07897    0.00000
   96     10.16583    0.00000
   97     10.30025    0.00000


Forces in eV/Ang:
  0 C     0.05116   -0.02324   -0.02312
  1 C    -0.02380    0.09005   -0.01959
  2 C     0.04806   -0.03598    0.00367
  3 C    -0.01544   -0.03952    0.00103
  4 C     0.01354    0.00710   -0.02117
  5 C    -0.03311   -0.01574    0.00239
  6 C    -0.19778    0.07784    0.02864
  7 C    -0.09556   -0.01249    0.01278
  8 C    -0.05402    0.01582   -0.02734
  9 C     0.01140   -0.03786   -0.04830
 10 C     0.01117    0.07400    0.00486
 11 C     0.00115   -0.05529   -0.03805
 12 C    -0.02884   -0.02930    0.02681
 13 C     0.03118   -0.04811    0.03414
 14 C    -0.02731   -0.02124   -0.02486
 15 C     0.10974    0.08926    0.03644
 16 C     0.05767   -0.02687    0.00953
 17 C    -0.01011    0.01001    0.01526
 18 C     0.00149    0.03045    0.00140
 19 C     0.00073   -0.00325    0.00813
 20 C     0.05172   -0.05674    0.04171
 21 C    -0.04846   -0.01526    0.02151
 22 C     0.03582   -0.00041    0.02051
 23 C    -0.02224    0.00189   -0.04203

System changes: positions 

Initializing position-dependent things.

Density initialized from wave functions
           .--------------------------------------.  
          /|                                      |  
         / |                                      |  
        /  |                                      |  
       /   |                                      |  
      /    |                                      |  
     /     |                                      |  
    /      |                                      |  
   /       |                                      |  
  /        |         C  C     C                   |  
 *         |      C        C    C  C              |  
 |         |      C C  C  C  C      C             |  
 |         .-----CC------C---C-C---C--------------.  
 |        /         C   C C  C                   /   
 |       /                                      /    
 |      /                                      /     
 |     /                                      /      
 |    /                                      /       
 |   /                                      /        
 |  /                                      /         
 | /                                      /          
 |/                                      /           
 *--------------------------------------*            

Positions:
   0 C      5.455603   10.436358    5.077550
   1 C     12.066015    7.008681    5.092164
   2 C      5.944963    7.409894    5.691052
   3 C      7.977523    5.285855    4.767979
   4 C      8.324711    6.625638    4.971205
   5 C      6.543355    5.286686    4.385190
   6 C      6.614353   10.904541    4.779083
   7 C      4.764169    6.880375    4.508431
   8 C      5.566043    5.936200    5.297617
   9 C     12.027233    8.314639    5.035464
  10 C     10.198818    9.827525    4.915309
  11 C      9.380896    8.590070    4.862343
  12 C     10.353926    4.967314    4.939619
  13 C     10.814287    6.325304    5.011413
  14 C      9.627803    7.172841    5.003228
  15 C      9.241183   10.873888    4.784231
  16 C      6.172937    6.615760    3.875142
  17 C      4.713886    8.150273    5.275361
  18 C      8.007339    8.888642    4.693685
  19 C      7.234149    7.644662    4.809565
  20 C      7.909888   10.371603    4.733898
  21 C      9.173913    4.515617    4.815278
  22 C     11.573579    9.548476    5.004710
  23 C      4.575825    9.447109    4.916371

Unit cell:
           periodic     x           y           z      points  spacing
  1. axis:    yes   16.000000    0.000000    0.000000    80     0.2000
  2. axis:    yes    0.000000   16.000000    0.000000    80     0.2000
  3. axis:    yes    0.000000    0.000000   10.000000    48     0.2083

Effective grid spacing dv^(1/3) = 0.2027

                     log10-error:    total        iterations:
           time      wfs    density  energy       fermi  poisson
iter:   1  14:30:44          +inf  -180.749670    2      4      
iter:   2  14:30:44         -3.01  -180.749719    2      1      
iter:   3  14:30:45         -3.31  -180.749829    2      1      
iter:   4  14:30:45         -3.41  -180.749600    2      1      
iter:   5  14:30:46         -3.57  -180.750357    2      1      
iter:   6  14:30:46         -3.37  -180.749697    2      1      
iter:   7  14:30:47         -3.56  -180.749481    2      1      
iter:   8  14:30:47         -3.70  -180.749772    2      1      
iter:   9  14:30:48         -3.86  -180.749670    2      1      
iter:  10  14:30:48         -4.43  -180.749602    2      1      

Converged after 10 iterations.

Dipole moment: (-0.305406, -0.290792, 0.102804) |e|*Ang

Energy contributions relative to reference atoms: (reference = -24663.074771)

Kinetic:       +116.906325
Potential:     -120.555477
External:        +0.000000
XC:            -179.941311
Entropy (-ST):   -0.226749
Local:           +2.954235
--------------------------
Free energy:   -180.862976
Extrapolated:  -180.749602

Fermi level: -4.26949

 Band  Eigenvalues  Occupancy
    0    -26.13499    2.00000
    1    -22.88385    2.00000
    2    -21.89448    2.00000
    3    -21.15354    2.00000
    4    -20.83253    2.00000
    5    -20.22741    2.00000
    6    -19.62645    2.00000
    7    -19.39671    2.00000
    8    -18.55341    2.00000
    9    -17.84279    2.00000
   10    -17.55434    2.00000
   11    -17.02669    2.00000
   12    -16.11354    2.00000
   13    -15.76231    2.00000
   14    -15.25975    2.00000
   15    -14.83781    2.00000
   16    -14.41275    2.00000
   17    -13.90663    2.00000
   18    -13.46692    2.00000
   19    -12.99837    2.00000
   20    -12.54414    2.00000
   21    -11.94658    2.00000
   22    -11.75317    2.00000
   23    -11.36900    2.00000
   24    -11.23592    2.00000
   25    -10.69281    2.00000
   26    -10.49371    2.00000
   27    -10.39342    2.00000
   28    -10.01442    2.00000
   29     -9.73166    2.00000
   30     -9.60278    2.00000
   31     -9.32438    2.00000
   32     -9.09982    2.00000
   33     -8.84705    2.00000
   34     -8.59551    2.00000
   35     -8.43872    2.00000
   36     -7.96861    2.00000
   37     -7.66060    2.00000
   38     -7.17168    2.00000
   39     -7.01387    2.00000
   40     -6.80022    2.00000
   41     -6.31893    2.00000
   42     -6.24854    2.00000
   43     -5.72805    2.00000
   44     -5.38252    1.99997
   45     -5.06780    1.99932
   46     -4.87351    1.99525
   47     -4.39316    1.54997
   48     -4.14155    0.43529
   49     -3.81072    0.02015
   50     -3.22229    0.00006
   51     -2.76016    0.00000
   52     -2.67593    0.00000
   53     -2.15314    0.00000
   54     -1.70860    0.00000
   55     -1.54391    0.00000
   56     -1.45270    0.00000
   57     -1.11526    0.00000
   58     -1.01695    0.00000
   59      0.39966    0.00000
   60      0.72926    0.00000
   61      1.71291    0.00000
   62      2.79509    0.00000
   63      2.97373    0.00000
   64      3.26565    0.00000
   65      3.47283    0.00000
   66      3.69958    0.00000
   67      3.91487    0.00000
   68      4.07558    0.00000
   69      4.26352    0.00000
   70      4.58103    0.00000
   71      5.12116    0.00000
   72      5.25569    0.00000
   73      5.67321    0.00000
   74      6.02854    0.00000
   75      6.37819    0.00000
   76      6.60968    0.00000
   77      7.07881    0.00000
   78      7.62179    0.00000
   79      7.66030    0.00000
   80      7.99180    0.00000
   81      8.13556    0.00000
   82      8.26795    0.00000
   83      8.40617    0.00000
   84      8.73732    0.00000
   85      8.91943    0.00000
   86      9.01446    0.00000
   87      9.12702    0.00000
   88      9.23855    0.00000
   89      9.35126    0.00000
   90      9.44228    0.00000
   91      9.46129    0.00000
   92      9.58683    0.00000
   93      9.75510    0.00000
   94      9.82298    0.00000
   95     10.07404    0.00000
   96     10.16489    0.00000
   97     10.29320    0.00000


Forces in eV/Ang:
  0 C     0.04685   -0.00568   -0.01244
  1 C    -0.02762    0.05941   -0.01046
  2 C     0.00359    0.01270    0.01791
  3 C    -0.02503   -0.02583    0.00687
  4 C     0.01359   -0.01695   -0.01654
  5 C    -0.04575   -0.01153    0.00884
  6 C    -0.10379    0.06888    0.01331
  7 C    -0.06092   -0.00885    0.00159
  8 C    -0.04499   -0.00378   -0.02062
  9 C     0.00963   -0.02090   -0.05246
 10 C     0.00203    0.04896   -0.00282
 11 C     0.00230   -0.01830   -0.01984
 12 C    -0.01411   -0.03247    0.02989
 13 C     0.02250   -0.03318    0.02465
 14 C    -0.01691   -0.01399   -0.02674
 15 C     0.05968    0.05136    0.02662
 16 C     0.01788   -0.01686   -0.02600
 17 C     0.01783   -0.02312    0.02618
 18 C    -0.00904    0.02087   -0.00822
 19 C     0.01592   -0.00880    0.00820
 20 C     0.04855   -0.03059    0.05220
 21 C    -0.01249   -0.04407    0.00827
 22 C     0.02817    0.00761    0.02403
 23 C    -0.05946   -0.00822   -0.03919

System changes: positions 

Initializing position-dependent things.

Density initialized from wave functions
           .--------------------------------------.  
          /|                                      |  
         / |                                      |  
        /  |                                      |  
       /   |                                      |  
      /    |                                      |  
     /     |                                      |  
    /      |                                      |  
   /       |                                      |  
  /        |         C  C     C                   |  
 *         |      C        C    C  C              |  
 |         |      C C  C  C  C      C             |  
 |         .-----CC------C---C-C---C--------------.  
 |        /         C   C C  C                   /   
 |       /                                      /    
 |      /                                      /     
 |     /                                      /      
 |    /                                      /       
 |   /                                      /        
 |  /                                      /         
 | /                                      /          
 |/                                      /           
 *--------------------------------------*            

Positions:
   0 C      5.456213   10.433322    5.077592
   1 C     12.064704    7.009948    5.090786
   2 C      5.945653    7.408359    5.690607
   3 C      7.976040    5.286059    4.767983
   4 C      8.324622    6.625510    4.969951
   5 C      6.542179    5.285819    4.384965
   6 C      6.612482   10.907152    4.779063
   7 C      4.761659    6.879339    4.508748
   8 C      5.564648    5.936087    5.296974
   9 C     12.027224    8.314764    5.034292
  10 C     10.200646    9.828596    4.916491
  11 C      9.381889    8.589747    4.859864
  12 C     10.351991    4.966336    4.940739
  13 C     10.814364    6.323872    5.012344
  14 C      9.628146    7.171908    5.001978
  15 C      9.242723   10.874408    4.785717
  16 C      6.173700    6.615899    3.877040
  17 C      4.712895    8.149683    5.275256
  18 C      8.008354    8.889651    4.693992
  19 C      7.234121    7.644537    4.809608
  20 C      7.910171   10.371894    4.735445
  21 C      9.171731    4.515423    4.816799
  22 C     11.575147    9.549582    5.005885
  23 C      4.574548    9.445945    4.913698

Unit cell:
           periodic     x           y           z      points  spacing
  1. axis:    yes   16.000000    0.000000    0.000000    80     0.2000
  2. axis:    yes    0.000000   16.000000    0.000000    80     0.2000
  3. axis:    yes    0.000000    0.000000   10.000000    48     0.2083

Effective grid spacing dv^(1/3) = 0.2027

                     log10-error:    total        iterations:
           time      wfs    density  energy       fermi  poisson
iter:   1  14:30:50          +inf  -180.754340    2      4      
iter:   2  14:30:50         -2.93  -180.752874    2      1      
iter:   3  14:30:51         -3.16  -180.751733    2      1      
iter:   4  14:30:51         -3.37  -180.751895    2      1      
iter:   5  14:30:51         -3.51  -180.751713    2      1      
iter:   6  14:30:52         -3.63  -180.751975    2      1      
iter:   7  14:30:52         -3.83  -180.751607    2      1      
iter:   8  14:30:53         -3.87  -180.750849    2      1      
iter:   9  14:30:53         -3.72  -180.751170    2      1      
iter:  10  14:30:54         -4.35  -180.751192    2      1      

Converged after 10 iterations.

Dipole moment: (-0.299051, -0.295874, 0.104277) |e|*Ang

Energy contributions relative to reference atoms: (reference = -24663.074771)

Kinetic:       +116.629541
Potential:     -120.344546
External:        +0.000000
XC:            -179.872460
Entropy (-ST):   -0.226164
Local:           +2.949354
--------------------------
Free energy:   -180.864274
Extrapolated:  -180.751192

Fermi level: -4.27227

 Band  Eigenvalues  Occupancy
    0    -26.14075    2.00000
    1    -22.88241    2.00000
    2    -21.89230    2.00000
    3    -21.15293    2.00000
    4    -20.83366    2.00000
    5    -20.22213    2.00000
    6    -19.62765    2.00000
    7    -19.39721    2.00000
    8    -18.55369    2.00000
    9    -17.84308    2.00000
   10    -17.55542    2.00000
   11    -17.03225    2.00000
   12    -16.10884    2.00000
   13    -15.76054    2.00000
   14    -15.25720    2.00000
   15    -14.84075    2.00000
   16    -14.41428    2.00000
   17    -13.90337    2.00000
   18    -13.46362    2.00000
   19    -12.99555    2.00000
   20    -12.54117    2.00000
   21    -11.94483    2.00000
   22    -11.75862    2.00000
   23    -11.37014    2.00000
   24    -11.23575    2.00000
   25    -10.69054    2.00000
   26    -10.48981    2.00000
   27    -10.39174    2.00000
   28    -10.01787    2.00000
   29     -9.73165    2.00000
   30     -9.60523    2.00000
   31     -9.32452    2.00000
   32     -9.09643    2.00000
   33     -8.85442    2.00000
   34     -8.59613    2.00000
   35     -8.43820    2.00000
   36     -7.96833    2.00000
   37     -7.65738    2.00000
   38     -7.17642    2.00000
   39     -7.01669    2.00000
   40     -6.80034    2.00000
   41     -6.32061    2.00000
   42     -6.24649    2.00000
   43     -5.72778    2.00000
   44     -5.38570    1.99997
   45     -5.06849    1.99930
   46     -4.87617    1.99524
   47     -4.39680    1.55295
   48     -4.14332    0.43187
   49     -3.81580    0.02061
   50     -3.22293    0.00006
   51     -2.75973    0.00000
   52     -2.68018    0.00000
   53     -2.14849    0.00000
   54     -1.70748    0.00000
   55     -1.54425    0.00000
   56     -1.44847    0.00000
   57     -1.10330    0.00000
   58     -1.01691    0.00000
   59      0.40073    0.00000
   60      0.72962    0.00000
   61      1.70909    0.00000
   62      2.79402    0.00000
   63      2.96348    0.00000
   64      3.25656    0.00000
   65      3.46997    0.00000
   66      3.69722    0.00000
   67      3.90752    0.00000
   68      4.06379    0.00000
   69      4.25717    0.00000
   70      4.56809    0.00000
   71      5.12026    0.00000
   72      5.24218    0.00000
   73      5.66127    0.00000
   74      6.02525    0.00000
   75      6.37763    0.00000
   76      6.59517    0.00000
   77      7.06733    0.00000
   78      7.62134    0.00000
   79      7.66110    0.00000
   80      7.98744    0.00000
   81      8.13587    0.00000
   82      8.26804    0.00000
   83      8.39941    0.00000
   84      8.73731    0.00000
   85      8.91667    0.00000
   86      9.00951    0.00000
   87      9.11438    0.00000
   88      9.23788    0.00000
   89      9.35147    0.00000
   90      9.43960    0.00000
   91      9.45610    0.00000
   92      9.58288    0.00000
   93      9.74982    0.00000
   94      9.81610    0.00000
   95     10.06766    0.00000
   96     10.16214    0.00000
   97     10.28456    0.00000


Forces in eV/Ang:
  0 C     0.03150   -0.00175   -0.01039
  1 C    -0.02817    0.00481   -0.00444
  2 C    -0.04459    0.03853    0.02785
  3 C    -0.01870   -0.03757    0.01076
  4 C     0.01237   -0.00535   -0.01119
  5 C    -0.03098   -0.00179    0.01782
  6 C     0.00347    0.03154    0.01002
  7 C    -0.02858    0.00529   -0.00659
  8 C    -0.02762   -0.01844   -0.00265
  9 C     0.01737    0.00727   -0.05003
 10 C    -0.01347    0.02519   -0.01556
 11 C     0.01497    0.00107    0.00526
 12 C     0.00860   -0.02405    0.03235
 13 C     0.00310   -0.02581    0.00924
 14 C    -0.02289    0.00774   -0.03041
 15 C     0.00617    0.04640    0.02525
 16 C    -0.02827   -0.01056   -0.06048
 17 C     0.03937   -0.04483    0.02569
 18 C    -0.02665   -0.00359   -0.01294
 19 C     0.03169    0.00191   -0.00200
 20 C     0.02280    0.01517    0.05708
 21 C     0.00025   -0.05669    0.00445
 22 C     0.02746    0.01204    0.02453
 23 C    -0.05843   -0.00822   -0.01615

