
  ___ ___ ___ _ _ _  
 |   |   |_  | | | | 
 | | | | | . | | | | 
 |__ |  _|___|_____|  1.3.0b1
 |___|_|             

User:   esb@s65n24.grendel.cscaa.dk
Date:   Wed Nov  8 14:13:01 2017
Arch:   x86_64
Pid:    38949
Python: 2.7.13
gpaw:   /home/esb/DFT/gpaw_git/gpaw
_gpaw:  /home/esb/DFT/gpaw_git/build/bin.linux-x86_64-2.7/gpaw-python
ase:    /home/esb/DFT/ase_git/ase (version 3.15.0b1)
numpy:  /comm/swstack/core/python/2.7.13/lib/python2.7/site-packages/numpy (version 1.13.3)
scipy:  /comm/swstack/core/python/2.7.13/lib/python2.7/site-packages/scipy (version 0.19.1)
units:  Angstrom and eV
cores:  16
Extra parameters: {'blacs': True}

Input parameters:
  basis: dzp
  gpts: [80 80 48]
  kpts: [1 1 1]
  maxiter: 99
  mixer: {backend: pulay,
          beta: 0.05,
          method: separate,
          nmaxold: 5,
          weight: 75}
  mode: lcao
  nbands: -50
  occupations: {name: fermi-dirac,
                width: 0.1}
  poissonsolver: {eps: 1e-07,
                  name: fd,
                  nn: 3,
                  relax: GS}
  xc: PBE

System changes: positions, numbers, cell, pbc, initial_charges, initial_magmoms 

Initialize ...

C-setup:
  name: Carbon
  id: 4aa54d4b901d75f77cc0ea3eec22967b
  Z: 6
  valence: 4
  core: 2
  charge: 0.0
  file: /home/esb/DFT/gpaw-setups-0.8.7929/C.PBE.gz
  cutoffs: 0.64(comp), 1.14(filt), 1.14(core), lmax=2
  valence states:
                energy  radius
    2s(2.00)   -13.751   0.635
    2p(2.00)    -5.284   0.635
    *s          13.461   0.635
    *p          21.927   0.635
    *d           0.000   0.635

  LCAO basis set for C:
    Name: dzp
    File: /home/esb/DFT/gpaw-setups-0.8.7929/C.dzp.basis.gz
    Number of radial functions: 5
    Number of spherical harmonics: 13
      l=0, rc=5.5469 Bohr: 2s-sz confined orbital
      l=1, rc=6.6719 Bohr: 2p-sz confined orbital
      l=0, rc=3.0312 Bohr: 2s-dz split-valence wave
      l=1, rc=3.7500 Bohr: 2p-dz split-valence wave
      l=2, rc=6.6719 Bohr: d-type Gaussian polarization

Reference energy: -24663.074771

Spin-paired calculation

Occupation numbers:
  Fermi-Dirac: width=0.1000 eV

Convergence criteria:
  Maximum total energy change: 0.0005 eV / electron
  Maximum integral of absolute density change: 0.0001 electrons
  Maximum integral of absolute eigenstate change: 4e-08 eV^2
  Maximum number of iterations: 99

Symmetries present (total): 1

  ( 1  0  0)
  ( 0  1  0)
  ( 0  0  1)

1 k-point (Gamma)
1 k-point in the irreducible part of the Brillouin zone
       k-points in crystal coordinates                weights
   0:     0.00000000    0.00000000    0.00000000          1/1

Wave functions: LCAO
  Diagonalizer: Serial LAPACK
  Atomic Correction: dense with blas
  Datatype: float
  Eigensolver: None 

LCAO using direct dense diagonalizer 

Densities:
  Coarse grid: 80*80*48 grid
  Fine grid: 160*160*96 grid
  Total Charge: 0.000000 

Density mixing:
  Method: separate
  Backend: pulay
  Linear mixing parameter: 0.05
  Mixing with 5 old densities
  Damping of long wave oscillations: 75 

Hamiltonian:
  XC and Coulomb potentials evaluated on a 160*160*96 grid
  Using the PBE Exchange-Correlation functional
  Interpolation: tri-quintic (5. degree polynomial)
  Poisson solver: Gauss-Seidel solver with 6 multi-grid levels
    Coarsest grid: 5 x 5 x 3 points
    Stencil: 6*3+1=19 point O(h^6) finite-difference Laplacian
    Max iterations: 1000
    Tolerance: 1.000000e-07 

Memory estimate:
  Process memory now: 77.60 MiB
  Calculator: 15.59 MiB
    Density: 6.13 MiB
      Arrays: 3.81 MiB
      Localized functions: 0.86 MiB
      Mixer: 1.46 MiB
    Hamiltonian: 5.40 MiB
      Arrays: 2.49 MiB
      XC: 0.00 MiB
      Poisson: 2.85 MiB
      vbar: 0.07 MiB
    Wavefunctions: 4.05 MiB
      C [qnM]: 0.23 MiB
      S, T [2 x qmm]: 1.49 MiB
      P [aqMi]: 0.01 MiB
      TCI: 0.00 MiB
      BasisFunctions: 2.33 MiB
      Eigensolver: 0.00 MiB

Total number of cores used: 16
Domain decomposition: 2 x 4 x 2

Number of atoms: 24
Number of atomic orbitals: 312
Number of bands in calculation: 98
Bands to converge: occupied states only
Number of valence electrons: 96

... initialized

Initializing position-dependent things.

Density initialized from atomic densities
           .--------------------------------------.  
          /|                                      |  
         / |                                      |  
        /  |                                      |  
       /   |                                      |  
      /    |                                      |  
     /     |                                      |  
    /      |                                      |  
   /       |             C                        |  
  /        |           C   C                      |  
 *         |      C     C     C                   |  
 |         |          CC  C  C C                  |  
 |         .-C----C---C----CCC-C------------------.  
 |        /   C CC                               /   
 |       /          C     C                     /    
 |      /                                      /     
 |     /                                      /      
 |    /                                      /       
 |   /                                      /        
 |  /                                      /         
 | /                                      /          
 |/                                      /           
 *--------------------------------------*            

Positions:
   0 C      6.781648   10.346228    4.748672
   1 C      4.025316    5.414944    4.953887
   2 C      7.091754    9.010871    5.580397
   3 C      9.642172    8.714117    5.619752
   4 C     10.326692    5.109300    5.552936
   5 C      7.282272    7.553460    4.904508
   6 C      9.032256    4.301893    4.485142
   7 C      4.760774    9.278411    4.900272
   8 C      7.868642   10.685752    5.196114
   9 C      5.186598    7.749587    4.332153
  10 C      7.020164    6.334322    4.934634
  11 C      9.044081    8.900278    4.453657
  12 C      4.350190    6.308530    4.390845
  13 C     10.218861    8.751845    4.651162
  14 C      3.261253    6.697183    4.955293
  15 C      6.620452    4.010669    4.721947
  16 C      9.025271    7.576670    4.451885
  17 C     10.922217    6.142907    4.957984
  18 C      5.483645    4.524972    5.226003
  19 C      7.884826    9.125199    4.456027
  20 C      6.773981   11.715606    5.247974
  21 C      6.375960   10.425814    5.740410
  22 C      9.136703    6.161832    4.941912
  23 C      6.329489    8.337031    5.064746

Unit cell:
           periodic     x           y           z      points  spacing
  1. axis:    yes   16.000000    0.000000    0.000000    80     0.2000
  2. axis:    yes    0.000000   16.000000    0.000000    80     0.2000
  3. axis:    yes    0.000000    0.000000   10.000000    48     0.2083

Effective grid spacing dv^(1/3) = 0.2027

                     log10-error:    total        iterations:
           time      wfs    density  energy       fermi  poisson
iter:   1  14:13:04          +inf  -122.127080    2      6      
iter:   2  14:13:04         -0.85  -119.562471    3      3      
iter:   3  14:13:05         -0.90  -116.209928    32     3      
iter:   4  14:13:06         -1.00  -115.059391    4      3      
iter:   5  14:13:06         -1.08  -113.952387    4      4      
iter:   6  14:13:07         -1.31  -113.821677    3      3      
iter:   7  14:13:07         -1.48  -113.735667    3      3      
iter:   8  14:13:08         -1.63  -113.650383    2      3      
iter:   9  14:13:08         -1.82  -113.623949    3      3      
iter:  10  14:13:09         -1.95  -113.615139    3      2      
iter:  11  14:13:09         -2.17  -113.600098    2      2      
iter:  12  14:13:10         -2.29  -113.593411    3      2      
iter:  13  14:13:11         -2.57  -113.591881    2      2      
iter:  14  14:13:11         -2.68  -113.588588    2      2      
iter:  15  14:13:12         -2.85  -113.585307    2      1      
iter:  16  14:13:12         -2.94  -113.589912    2      2      
iter:  17  14:13:13         -3.14  -113.599038    2      1      
iter:  18  14:13:13         -3.26  -113.590382    2      1      
iter:  19  14:13:14         -3.41  -113.589249    2      1      
iter:  20  14:13:14         -3.53  -113.590480    2      1      
iter:  21  14:13:15         -3.69  -113.589975    2      1      
iter:  22  14:13:15         -3.83  -113.589649    2      1      
iter:  23  14:13:16         -3.90  -113.589758    2      1      
iter:  24  14:13:16         -3.96  -113.590219    2      1      
iter:  25  14:13:17         -4.17  -113.589914    2      1      

Converged after 25 iterations.

Dipole moment: (-0.162372, -0.302493, -0.539556) |e|*Ang

Energy contributions relative to reference atoms: (reference = -24663.074771)

Kinetic:       +350.244659
Potential:     -268.834896
External:        +0.000000
XC:            -197.816874
Entropy (-ST):   -0.206950
Local:           +2.920671
--------------------------
Free energy:   -113.693389
Extrapolated:  -113.589914

Fermi level: -4.65949

 Band  Eigenvalues  Occupancy
    0    -31.26593    2.00000
    1    -29.83589    2.00000
    2    -27.88888    2.00000
    3    -25.83494    2.00000
    4    -23.07670    2.00000
    5    -22.42523    2.00000
    6    -21.64066    2.00000
    7    -20.22571    2.00000
    8    -19.86415    2.00000
    9    -19.39766    2.00000
   10    -18.48149    2.00000
   11    -17.69336    2.00000
   12    -16.43782    2.00000
   13    -15.96638    2.00000
   14    -15.71042    2.00000
   15    -15.58527    2.00000
   16    -15.23648    2.00000
   17    -14.67336    2.00000
   18    -14.19672    2.00000
   19    -13.44383    2.00000
   20    -12.71744    2.00000
   21    -12.02549    2.00000
   22    -11.88905    2.00000
   23    -11.72193    2.00000
   24    -10.95113    2.00000
   25    -10.76922    2.00000
   26    -10.21986    2.00000
   27    -10.08216    2.00000
   28     -9.61055    2.00000
   29     -9.22076    2.00000
   30     -9.06519    2.00000
   31     -8.85060    2.00000
   32     -8.28729    2.00000
   33     -8.06661    2.00000
   34     -7.89463    2.00000
   35     -7.74383    2.00000
   36     -7.46786    2.00000
   37     -7.23835    2.00000
   38     -7.09209    2.00000
   39     -6.55574    2.00000
   40     -6.50713    2.00000
   41     -6.37863    2.00000
   42     -6.30152    2.00000
   43     -6.23233    2.00000
   44     -6.11065    2.00000
   45     -5.29937    1.99668
   46     -5.12063    1.98032
   47     -4.82503    1.67924
   48     -4.49062    0.31191
   49     -4.18256    0.01683
   50     -4.16794    0.01456
   51     -3.78906    0.00033
   52     -3.69445    0.00013
   53     -3.31264    0.00000
   54     -2.95440    0.00000
   55     -2.81734    0.00000
   56     -2.59043    0.00000
   57     -2.06349    0.00000
   58     -1.81297    0.00000
   59     -1.51552    0.00000
   60     -1.48000    0.00000
   61     -0.98590    0.00000
   62     -0.65908    0.00000
   63     -0.55507    0.00000
   64      0.19899    0.00000
   65      0.24566    0.00000
   66      0.57267    0.00000
   67      0.88410    0.00000
   68      1.18441    0.00000
   69      1.61374    0.00000
   70      2.10868    0.00000
   71      2.34378    0.00000
   72      2.66275    0.00000
   73      3.17337    0.00000
   74      3.37106    0.00000
   75      4.09198    0.00000
   76      4.23670    0.00000
   77      4.78661    0.00000
   78      5.71750    0.00000
   79      5.84805    0.00000
   80      6.06637    0.00000
   81      6.42004    0.00000
   82      6.76677    0.00000
   83      7.35219    0.00000
   84      7.49145    0.00000
   85      7.73051    0.00000
   86      7.74793    0.00000
   87      8.09457    0.00000
   88      8.36825    0.00000
   89      8.49502    0.00000
   90      8.80646    0.00000
   91      8.97060    0.00000
   92      9.00733    0.00000
   93      9.26081    0.00000
   94      9.30469    0.00000
   95      9.56939    0.00000
   96      9.81209    0.00000
   97      9.83391    0.00000


Forces in eV/Ang:
  0 C     2.64781   -5.36127  -44.75920
  1 C    -2.19855  -24.98191   14.02701
  2 C     9.74947   11.20949   18.14435
  3 C    -4.80749   -2.95133   27.82592
  4 C    -3.34382   -1.10631   -1.47400
  5 C     8.47358   -7.59275   -2.54488
  6 C     1.17316    3.35523    1.50364
  7 C    -0.24347   -5.08375   -2.81682
  8 C    15.19311    9.91874    3.43727
  9 C    -3.60281    4.45696    2.64878
 10 C     1.47111   -8.79781    1.04153
 11 C    -2.88686    3.22620  -13.34764
 12 C    13.34209   25.87637  -17.22083
 13 C    29.81534    2.19275  -15.38552
 14 C    -7.38424    1.01185    3.27435
 15 C    -1.31674    1.45804    1.34684
 16 C    -0.87091  -11.51802    2.00075
 17 C     0.60537    0.17492    0.02343
 18 C    -1.22603   -0.21138   -0.95048
 19 C   -12.68618   10.75821   -4.95041
 20 C     1.68485    5.88162    2.13303
 21 C   -17.75686    0.77624   35.87170
 22 C     0.66941   -1.02768   -1.96905
 23 C   -26.42733  -11.70560   -7.92083

System changes: positions 

Initializing position-dependent things.

Density initialized from wave functions
           .--------------------------------------.  
          /|                                      |  
         / |                                      |  
        /  |                                      |  
       /   |                                      |  
      /    |                                      |  
     /     |                                      |  
    /      |                                      |  
   /       |             C                        |  
  /        |           C   C                      |  
 *         |      C     C     C                   |  
 |         |          CC  C  C C                  |  
 |         .-C----C---C----CCC-C------------------.  
 |        /   C CC                               /   
 |       /          C     C                     /    
 |      /                                      /     
 |     /                                      /      
 |    /                                      /       
 |   /                                      /        
 |  /                                      /         
 | /                                      /          
 |/                                      /           
 *--------------------------------------*            

Positions:
   0 C      6.783994   10.341479    4.709024
   1 C      4.023369    5.392815    4.966313
   2 C      7.100390    9.020801    5.596469
   3 C      9.637913    8.711503    5.644401
   4 C     10.323730    5.108320    5.551630
   5 C      7.289778    7.546735    4.902254
   6 C      9.033295    4.304865    4.486474
   7 C      4.760558    9.273908    4.897777
   8 C      7.882100   10.694538    5.199158
   9 C      5.183407    7.753535    4.334500
  10 C      7.021467    6.326529    4.935557
  11 C      9.041524    8.903136    4.441834
  12 C      4.362009    6.331451    4.375591
  13 C     10.245272    8.753787    4.637534
  14 C      3.254712    6.698080    4.958193
  15 C      6.619286    4.011960    4.723140
  16 C      9.024500    7.566467    4.453657
  17 C     10.922753    6.143062    4.958005
  18 C      5.482559    4.524785    5.225162
  19 C      7.873588    9.134728    4.451642
  20 C      6.775474   11.720816    5.249864
  21 C      6.360231   10.426502    5.772185
  22 C      9.137296    6.160921    4.940168
  23 C      6.306080    8.326662    5.057730

Unit cell:
           periodic     x           y           z      points  spacing
  1. axis:    yes   16.000000    0.000000    0.000000    80     0.2000
  2. axis:    yes    0.000000   16.000000    0.000000    80     0.2000
  3. axis:    yes    0.000000    0.000000   10.000000    48     0.2083

Effective grid spacing dv^(1/3) = 0.2027

                     log10-error:    total        iterations:
           time      wfs    density  energy       fermi  poisson
iter:   1  14:13:19          +inf  -121.816578    3      5      
iter:   2  14:13:19         -1.82  -121.736550    3      2      
iter:   3  14:13:20         -1.93  -121.665882    3      2      
iter:   4  14:13:20         -2.09  -121.646288    3      2      
iter:   5  14:13:21         -2.22  -121.631630    3      2      
iter:   6  14:13:21         -2.39  -121.625486    2      2      
iter:   7  14:13:22         -2.50  -121.621515    2      2      
iter:   8  14:13:22         -2.77  -121.619200    2      2      
iter:   9  14:13:23         -2.88  -121.618667    2      2      
iter:  10  14:13:23         -3.05  -121.621839    2      1      
iter:  11  14:13:24         -3.17  -121.620086    2      1      
iter:  12  14:13:24         -3.28  -121.612698    2      1      
iter:  13  14:13:25         -3.55  -121.616372    2      1      
iter:  14  14:13:25         -3.81  -121.618566    2      1      
iter:  15  14:13:26         -3.89  -121.619548    2      1      
iter:  16  14:13:26         -4.04  -121.619475    2      1      

Converged after 16 iterations.

Dipole moment: (-0.199558, -0.323998, -0.532470) |e|*Ang

Energy contributions relative to reference atoms: (reference = -24663.074771)

Kinetic:       +304.075408
Potential:     -237.597186
External:        +0.000000
XC:            -190.788813
Entropy (-ST):   -0.172099
Local:           +2.777166
--------------------------
Free energy:   -121.705524
Extrapolated:  -121.619475

Fermi level: -4.68730

 Band  Eigenvalues  Occupancy
    0    -30.75166    2.00000
    1    -29.14240    2.00000
    2    -27.40098    2.00000
    3    -25.34096    2.00000
    4    -22.92773    2.00000
    5    -22.19205    2.00000
    6    -21.60033    2.00000
    7    -20.25666    2.00000
    8    -19.61625    2.00000
    9    -19.24027    2.00000
   10    -18.51097    2.00000
   11    -17.48055    2.00000
   12    -16.23153    2.00000
   13    -15.89885    2.00000
   14    -15.60350    2.00000
   15    -15.32987    2.00000
   16    -15.19461    2.00000
   17    -14.62908    2.00000
   18    -14.10086    2.00000
   19    -13.23705    2.00000
   20    -12.45121    2.00000
   21    -11.82057    2.00000
   22    -11.67674    2.00000
   23    -11.51882    2.00000
   24    -10.90339    2.00000
   25    -10.70835    2.00000
   26    -10.19647    2.00000
   27    -10.06135    2.00000
   28     -9.56511    2.00000
   29     -9.20345    2.00000
   30     -9.02428    2.00000
   31     -8.87856    2.00000
   32     -8.32415    2.00000
   33     -8.09817    2.00000
   34     -7.89167    2.00000
   35     -7.81879    2.00000
   36     -7.51626    2.00000
   37     -7.24737    2.00000
   38     -7.09479    2.00000
   39     -6.54485    2.00000
   40     -6.45798    2.00000
   41     -6.39579    2.00000
   42     -6.29080    2.00000
   43     -6.22497    2.00000
   44     -6.07649    2.00000
   45     -5.32085    1.99646
   46     -5.15369    1.98132
   47     -4.88989    1.76698
   48     -4.48313    0.22978
   49     -4.20166    0.01544
   50     -4.15235    0.00946
   51     -3.85128    0.00047
   52     -3.69145    0.00009
   53     -3.39701    0.00000
   54     -2.98045    0.00000
   55     -2.85174    0.00000
   56     -2.60111    0.00000
   57     -2.08707    0.00000
   58     -1.85935    0.00000
   59     -1.52703    0.00000
   60     -1.48332    0.00000
   61     -1.00434    0.00000
   62     -0.69786    0.00000
   63     -0.58104    0.00000
   64      0.15133    0.00000
   65      0.22132    0.00000
   66      0.53382    0.00000
   67      0.75076    0.00000
   68      1.10707    0.00000
   69      1.51616    0.00000
   70      2.06991    0.00000
   71      2.32407    0.00000
   72      2.66839    0.00000
   73      3.15145    0.00000
   74      3.39419    0.00000
   75      3.79445    0.00000
   76      4.01104    0.00000
   77      4.74724    0.00000
   78      5.57580    0.00000
   79      5.73621    0.00000
   80      5.98141    0.00000
   81      6.22923    0.00000
   82      6.63898    0.00000
   83      7.22577    0.00000
   84      7.35208    0.00000
   85      7.66259    0.00000
   86      7.71148    0.00000
   87      8.05615    0.00000
   88      8.31766    0.00000
   89      8.37718    0.00000
   90      8.76175    0.00000
   91      8.91561    0.00000
   92      8.96713    0.00000
   93      9.21378    0.00000
   94      9.26656    0.00000
   95      9.54590    0.00000
   96      9.79149    0.00000
   97      9.79695    0.00000


Forces in eV/Ang:
  0 C    -0.18274   -3.98543  -32.37361
  1 C     0.31993  -17.52572    9.49470
  2 C     5.78001    8.27961   15.22749
  3 C    -2.46529   -2.68970   20.46654
  4 C    -3.32614   -1.05431   -1.49670
  5 C     7.56503   -6.41324   -2.23804
  6 C     1.23025    3.33456    1.51670
  7 C    -0.23927   -4.71315   -2.74066
  8 C    12.54899    9.12526    3.23949
  9 C    -3.91854    4.18990    2.48327
 10 C     1.51838   -8.63281    1.16002
 11 C    -0.32804    2.00265  -11.67021
 12 C     9.90733   18.99839  -12.13484
 13 C    23.69939    2.19820  -10.18632
 14 C    -6.21980    0.34797    2.79311
 15 C    -1.22456    1.42748    1.30761
 16 C    -0.83100  -10.09513    2.21474
 17 C     0.54842    0.08585    0.06914
 18 C    -1.52058   -0.02260   -0.97952
 19 C   -12.20363   10.65686   -4.64027
 20 C     1.60231    4.30949    2.07720
 21 C   -12.07211    0.31222   23.92708
 22 C     0.75359   -1.25361   -1.97894
 23 C   -20.81084   -8.91437   -5.52671

System changes: positions 

Initializing position-dependent things.

Density initialized from wave functions
           .--------------------------------------.  
          /|                                      |  
         / |                                      |  
        /  |                                      |  
       /   |                                      |  
      /    |                                      |  
     /     |                                      |  
    /      |                                      |  
   /       |             C                        |  
  /        |           C   C                      |  
 *         |      C     C     C                   |  
 |         |          C C C  C  C                 |  
 |         .-C----C---C----CCC-C------------------.  
 |        /   C CC                               /   
 |       /          C     C                     /    
 |      /                                      /     
 |     /                                      /      
 |    /                                      /       
 |   /                                      /        
 |  /                                      /         
 | /                                      /          
 |/                                      /           
 *--------------------------------------*            

Positions:
   0 C      6.768870   10.338543    4.691441
   1 C      4.037223    5.387188    4.966808
   2 C      7.094422    9.026529    5.619809
   3 C      9.643821    8.706066    5.657955
   4 C     10.315423    5.105927    5.547734
   5 C      7.304173    7.536651    4.898193
   6 C      9.036697    4.313178    4.490372
   7 C      4.759976    9.263927    4.891251
   8 C      7.900089   10.713469    5.206313
   9 C      5.171877    7.762731    4.339912
  10 C      7.025546    6.305586    4.939100
  11 C      9.053951    8.901854    4.421056
  12 C      4.369232    6.343792    4.371297
  13 C     10.273431    8.759366    4.638746
  14 C      3.245039    6.695519    4.962753
  15 C      6.616672    4.015406    4.726239
  16 C      9.022608    7.548348    4.460358
  17 C     10.923843    6.142818    4.958416
  18 C      5.477194    4.525706    5.222538
  19 C      7.845274    9.161112    4.441531
  20 C      6.779092   11.723554    5.254819
  21 C      6.359197   10.424886    5.770725
  22 C      9.139635    6.156585    4.935120
  23 C      6.282627    8.318612    5.056177

Unit cell:
           periodic     x           y           z      points  spacing
  1. axis:    yes   16.000000    0.000000    0.000000    80     0.2000
  2. axis:    yes    0.000000   16.000000    0.000000    80     0.2000
  3. axis:    yes    0.000000    0.000000   10.000000    48     0.2083

Effective grid spacing dv^(1/3) = 0.2027

                     log10-error:    total        iterations:
           time      wfs    density  energy       fermi  poisson
iter:   1  14:13:28          +inf  -126.650757    3      5      
iter:   2  14:13:29         -1.79  -126.516837    2      2      
iter:   3  14:13:29         -1.99  -126.459026    2      2      
iter:   4  14:13:30         -2.14  -126.443411    2      2      
iter:   5  14:13:30         -2.28  -126.434194    2      2      
iter:   6  14:13:31         -2.42  -126.435808    2      2      
iter:   7  14:13:31         -2.55  -126.433011    2      2      
iter:   8  14:13:32         -2.80  -126.432391    2      2      
iter:   9  14:13:32         -2.97  -126.431847    2      2      
iter:  10  14:13:33         -3.18  -126.433779    2      1      
iter:  11  14:13:34         -3.32  -126.432444    2      1      
iter:  12  14:13:34         -3.41  -126.430404    2      1      
iter:  13  14:13:35         -3.63  -126.431471    2      1      
iter:  14  14:13:35         -3.81  -126.430613    2      1      
iter:  15  14:13:36         -3.93  -126.430947    2      1      
iter:  16  14:13:36         -4.04  -126.431654    2      1      

Converged after 16 iterations.

Dipole moment: (-0.228106, -0.333199, -0.534945) |e|*Ang

Energy contributions relative to reference atoms: (reference = -24663.074771)

Kinetic:       +275.699899
Potential:     -218.323090
External:        +0.000000
XC:            -186.472296
Entropy (-ST):   -0.165758
Local:           +2.746712
--------------------------
Free energy:   -126.514533
Extrapolated:  -126.431654

Fermi level: -4.66148

 Band  Eigenvalues  Occupancy
    0    -30.43108    2.00000
    1    -28.54501    2.00000
    2    -26.94119    2.00000
    3    -25.11490    2.00000
    4    -22.67450    2.00000
    5    -22.06648    2.00000
    6    -21.50630    2.00000
    7    -20.24772    2.00000
    8    -19.34128    2.00000
    9    -19.13750    2.00000
   10    -18.55841    2.00000
   11    -17.30897    2.00000
   12    -16.00227    2.00000
   13    -15.87638    2.00000
   14    -15.54403    2.00000
   15    -15.19782    2.00000
   16    -15.13277    2.00000
   17    -14.54813    2.00000
   18    -13.98877    2.00000
   19    -13.09725    2.00000
   20    -12.25325    2.00000
   21    -11.78217    2.00000
   22    -11.55089    2.00000
   23    -11.38822    2.00000
   24    -10.89444    2.00000
   25    -10.68539    2.00000
   26    -10.17195    2.00000
   27    -10.07828    2.00000
   28     -9.50463    2.00000
   29     -9.19376    2.00000
   30     -9.02597    2.00000
   31     -8.87715    2.00000
   32     -8.32001    2.00000
   33     -8.13023    2.00000
   34     -7.92582    2.00000
   35     -7.84518    2.00000
   36     -7.55232    2.00000
   37     -7.26186    2.00000
   38     -7.11591    2.00000
   39     -6.55684    2.00000
   40     -6.47656    2.00000
   41     -6.41458    2.00000
   42     -6.29856    2.00000
   43     -6.19422    2.00000
   44     -6.04738    2.00000
   45     -5.29332    1.99640
   46     -5.15715    1.98603
   47     -4.86899    1.77692
   48     -4.44764    0.21084
   49     -4.21209    0.02211
   50     -4.09609    0.00698
   51     -3.85465    0.00063
   52     -3.65959    0.00009
   53     -3.40609    0.00001
   54     -2.96888    0.00000
   55     -2.83425    0.00000
   56     -2.58917    0.00000
   57     -2.04024    0.00000
   58     -1.86816    0.00000
   59     -1.59718    0.00000
   60     -1.40181    0.00000
   61     -0.92469    0.00000
   62     -0.62310    0.00000
   63     -0.55505    0.00000
   64      0.12080    0.00000
   65      0.21516    0.00000
   66      0.51460    0.00000
   67      0.72847    0.00000
   68      1.09997    0.00000
   69      1.49754    0.00000
   70      2.11933    0.00000
   71      2.41015    0.00000
   72      2.76725    0.00000
   73      3.17103    0.00000
   74      3.36463    0.00000
   75      3.72928    0.00000
   76      3.81234    0.00000
   77      4.75851    0.00000
   78      5.43298    0.00000
   79      5.68719    0.00000
   80      6.12064    0.00000
   81      6.14226    0.00000
   82      6.59816    0.00000
   83      7.13482    0.00000
   84      7.26989    0.00000
   85      7.57546    0.00000
   86      7.68381    0.00000
   87      7.99348    0.00000
   88      8.27469    0.00000
   89      8.32671    0.00000
   90      8.72914    0.00000
   91      8.87597    0.00000
   92      8.93620    0.00000
   93      9.17915    0.00000
   94      9.21986    0.00000
   95      9.54324    0.00000
   96      9.75304    0.00000
   97      9.78507    0.00000


Forces in eV/Ang:
  0 C     1.53239   -3.01224  -30.03043
  1 C     0.90456  -15.76701    8.46247
  2 C     4.08757    6.40093   13.17921
  3 C    -2.15634   -2.61265   16.99027
  4 C    -3.19118   -0.91643   -1.57122
  5 C     6.10702   -5.65842   -1.97919
  6 C     1.34768    3.36881    1.53665
  7 C    -0.34326   -4.59249   -2.76293
  8 C     9.78315    8.06835    2.38893
  9 C    -4.09725    3.91056    2.28615
 10 C     1.67821   -7.61474    1.16914
 11 C    -2.59572    1.07329  -10.50505
 12 C     8.40217   17.68699  -10.67460
 13 C    20.76652    2.58104   -8.10806
 14 C    -5.33552   -0.19796    2.39196
 15 C    -1.20578    1.44559    1.28302
 16 C    -1.34647   -8.30731    2.27733
 17 C     0.48575   -0.10036    0.16312
 18 C    -1.65631    0.09658   -0.99981
 19 C    -8.43020    9.97911   -3.89104
 20 C     1.82546    3.66433    1.79130
 21 C   -10.99023    0.08305   22.70979
 22 C     0.84122   -1.64473   -1.90643
 23 C   -16.27541   -7.95791   -4.21695

System changes: positions 

Initializing position-dependent things.

Density initialized from wave functions
           .--------------------------------------.  
          /|                                      |  
         / |                                      |  
        /  |                                      |  
       /   |                                      |  
      /    |                                      |  
     /     |                                      |  
    /      |                                      |  
   /       |             C                        |  
  /        |           C   C                      |  
 *         |      C     C     C                   |  
 |         |         C  C C  C  C                 |  
 |         .-C----C---C----CCC-C------------------.  
 |        /   C CC                               /   
 |       /          C     C                     /    
 |      /                                      /     
 |     /                                      /      
 |    /                                      /       
 |   /                                      /        
 |  /                                      /         
 | /                                      /          
 |/                                      /           
 *--------------------------------------*            

Positions:
   0 C      6.767719   10.340451    4.657399
   1 C      4.060636    5.378589    4.967510
   2 C      7.076188    9.023582    5.644612
   3 C      9.651484    8.697139    5.661943
   4 C     10.302844    5.103214    5.540486
   5 C      7.315405    7.524783    4.893337
   6 C      9.043477    4.327515    4.497081
   7 C      4.757919    9.247577    4.879905
   8 C      7.907905   10.736167    5.210014
   9 C      5.151438    7.775892    4.347342
  10 C      7.033920    6.280569    4.944859
  11 C      9.045521    8.892974    4.394329
  12 C      4.373804    6.366912    4.367350
  13 C     10.304617    8.772647    4.650131
  14 C      3.235227    6.687145    4.967383
  15 C      6.612268    4.021441    4.731271
  16 C      9.014039    7.533075    4.471741
  17 C     10.925157    6.140697    4.959967
  18 C      5.467484    4.528039    5.217997
  19 C      7.835522    9.198605    4.431574
  20 C      6.787646   11.725143    5.260315
  21 C      6.355436   10.420894    5.783406
  22 C      9.144263    6.145814    4.927426
  23 C      6.276982    8.308498    5.061510

Unit cell:
           periodic     x           y           z      points  spacing
  1. axis:    yes   16.000000    0.000000    0.000000    80     0.2000
  2. axis:    yes    0.000000   16.000000    0.000000    80     0.2000
  3. axis:    yes    0.000000    0.000000   10.000000    48     0.2083

Effective grid spacing dv^(1/3) = 0.2027

                     log10-error:    total        iterations:
           time      wfs    density  energy       fermi  poisson
iter:   1  14:13:38          +inf  -131.514339    2      5      
iter:   2  14:13:38         -1.77  -131.387242    2      2      
iter:   3  14:13:39         -1.92  -131.319880    3      2      
iter:   4  14:13:40         -2.07  -131.299475    3      2      
iter:   5  14:13:40         -2.20  -131.286547    2      2      
iter:   6  14:13:41         -2.32  -131.289686    2      2      
iter:   7  14:13:41         -2.50  -131.285722    2      2      
iter:   8  14:13:42         -2.66  -131.286786    2      2      
iter:   9  14:13:42         -2.93  -131.288241    2      1      
iter:  10  14:13:43         -3.04  -131.288114    2      1      
iter:  11  14:13:43         -3.19  -131.287231    2      1      
iter:  12  14:13:44         -3.32  -131.287048    2      1      
iter:  13  14:13:44         -3.53  -131.286274    1      1      
iter:  14  14:13:45         -3.68  -131.285727    2      1      
iter:  15  14:13:45         -3.75  -131.285955    2      1      
iter:  16  14:13:46         -3.89  -131.285694    2      1      
iter:  17  14:13:46         -4.01  -131.285906    2      1      

Converged after 17 iterations.

Dipole moment: (-0.263164, -0.345701, -0.522237) |e|*Ang

Energy contributions relative to reference atoms: (reference = -24663.074771)

Kinetic:       +251.443698
Potential:     -202.328946
External:        +0.000000
XC:            -183.054015
Entropy (-ST):   -0.153372
Local:           +2.730043
--------------------------
Free energy:   -131.362592
Extrapolated:  -131.285906

Fermi level: -4.63658

 Band  Eigenvalues  Occupancy
    0    -30.02926    2.00000
    1    -27.89119    2.00000
    2    -26.48205    2.00000
    3    -24.85980    2.00000
    4    -22.46256    2.00000
    5    -22.06215    2.00000
    6    -21.39843    2.00000
    7    -20.25058    2.00000
    8    -19.11761    2.00000
    9    -19.03534    2.00000
   10    -18.61955    2.00000
   11    -17.16302    2.00000
   12    -15.95940    2.00000
   13    -15.83470    2.00000
   14    -15.43908    2.00000
   15    -15.19709    2.00000
   16    -14.96432    2.00000
   17    -14.47632    2.00000
   18    -13.91720    2.00000
   19    -12.89745    2.00000
   20    -12.12518    2.00000
   21    -11.77245    2.00000
   22    -11.43867    2.00000
   23    -11.30550    2.00000
   24    -10.88519    2.00000
   25    -10.66280    2.00000
   26    -10.16674    2.00000
   27    -10.09279    2.00000
   28     -9.49917    2.00000
   29     -9.18754    2.00000
   30     -9.08105    2.00000
   31     -8.86470    2.00000
   32     -8.35997    2.00000
   33     -8.17999    2.00000
   34     -7.99323    2.00000
   35     -7.85351    2.00000
   36     -7.61435    2.00000
   37     -7.31176    2.00000
   38     -7.14722    2.00000
   39     -6.57230    2.00000
   40     -6.50044    2.00000
   41     -6.44124    2.00000
   42     -6.28998    2.00000
   43     -6.12246    2.00000
   44     -6.00587    2.00000
   45     -5.38083    1.99883
   46     -5.14840    1.98810
   47     -4.85388    1.79560
   48     -4.41061    0.18904
   49     -4.19063    0.02287
   50     -4.03754    0.00499
   51     -3.80890    0.00051
   52     -3.58628    0.00005
   53     -3.40714    0.00001
   54     -2.96440    0.00000
   55     -2.80660    0.00000
   56     -2.56169    0.00000
   57     -2.06042    0.00000
   58     -1.83789    0.00000
   59     -1.65969    0.00000
   60     -1.24976    0.00000
   61     -0.80454    0.00000
   62     -0.63543    0.00000
   63     -0.38385    0.00000
   64      0.08786    0.00000
   65      0.20728    0.00000
   66      0.50345    0.00000
   67      0.69411    0.00000
   68      1.22510    0.00000
   69      1.53537    0.00000
   70      2.20563    0.00000
   71      2.55135    0.00000
   72      2.83997    0.00000
   73      3.14486    0.00000
   74      3.23673    0.00000
   75      3.64868    0.00000
   76      3.88382    0.00000
   77      4.83171    0.00000
   78      5.36543    0.00000
   79      5.75600    0.00000
   80      6.04657    0.00000
   81      6.19169    0.00000
   82      6.60469    0.00000
   83      6.96627    0.00000
   84      7.16121    0.00000
   85      7.51722    0.00000
   86      7.67949    0.00000
   87      7.93187    0.00000
   88      8.24336    0.00000
   89      8.27252    0.00000
   90      8.64819    0.00000
   91      8.86134    0.00000
   92      8.92492    0.00000
   93      9.18111    0.00000
   94      9.19480    0.00000
   95      9.54349    0.00000
   96      9.73977    0.00000
   97      9.76786    0.00000


Forces in eV/Ang:
  0 C     0.87439   -2.02246  -24.18440
  1 C     1.70629  -13.42078    6.98436
  2 C     4.41820    6.74675   11.72917
  3 C    -2.64565   -2.67034   15.00920
  4 C    -3.04959   -0.86240   -1.60769
  5 C     5.16027   -5.94004   -1.76455
  6 C     1.52598    3.40124    1.52403
  7 C    -0.58986   -4.54416   -2.76191
  8 C     8.36847    6.98843    2.05106
  9 C    -3.84059    4.02138    2.32713
 10 C     1.91298   -6.57006    1.14602
 11 C     0.18657   -0.34119   -9.28622
 12 C     6.92458   15.63875   -8.86867
 13 C    17.08079    3.21776   -7.71114
 14 C    -4.75247   -0.71391    2.16802
 15 C    -1.19721    1.46735    1.25725
 16 C    -1.81687   -6.94411    2.35472
 17 C     0.50997   -0.24742    0.24392
 18 C    -1.82004    0.31007   -1.04648
 19 C    -8.21390   10.05486   -2.29303
 20 C     1.64627    3.07668    1.56634
 21 C    -8.50005   -0.52512   17.34513
 22 C     0.76613   -1.92761   -1.85478
 23 C   -14.48804   -8.24924   -4.31937

System changes: positions 

Initializing position-dependent things.

Density initialized from wave functions
           .--------------------------------------.  
          /|                                      |  
         / |                                      |  
        /  |                                      |  
       /   |                                      |  
      /    |                                      |  
     /     |                                      |  
    /      |                                      |  
   /       |             C                        |  
  /        |           C   C                      |  
 *         |      C     C     C                   |  
 |         |         C  C C  C  C                 |  
 |         .-C----C---C----CCC-C------------------.  
 |        /   C CC                               /   
 |       /          C     C                     /    
 |      /                                      /     
 |     /                                      /      
 |    /                                      /       
 |   /                                      /        
 |  /                                      /         
 | /                                      /          
 |/                                      /           
 *--------------------------------------*            

Positions:
   0 C      6.767134   10.346213    4.638427
   1 C      4.084267    5.370424    4.967556
   2 C      7.069469    9.030124    5.665935
   3 C      9.650496    8.687207    5.668624
   4 C     10.291199    5.100727    5.533052
   5 C      7.322296    7.508064    4.889279
   6 C      9.051381    4.342118    4.503663
   7 C      4.754109    9.230740    4.868412
   8 C      7.912204   10.753154    5.212028
   9 C      5.133601    7.790536    4.355500
  10 C      7.043830    6.262361    4.950196
  11 C      9.052714    8.876820    4.372395
  12 C      4.375580    6.390348    4.365085
  13 C     10.323286    8.790375    4.652500
  14 C      3.226807    6.676663    4.971575
  15 C      6.607723    4.027691    4.736211
  16 C      9.002184    7.523935    4.483204
  17 C     10.926792    6.137776    4.961969
  18 C      5.457268    4.531470    5.213188
  19 C      7.824798    9.237135    4.432233
  20 C      6.794988   11.726078    5.264414
  21 C      6.357191   10.413574    5.783115
  22 C      9.148133    6.133630    4.920097
  23 C      6.270522    8.289953    5.060485

Unit cell:
           periodic     x           y           z      points  spacing
  1. axis:    yes   16.000000    0.000000    0.000000    80     0.2000
  2. axis:    yes    0.000000   16.000000    0.000000    80     0.2000
  3. axis:    yes    0.000000    0.000000   10.000000    48     0.2083

Effective grid spacing dv^(1/3) = 0.2027

                     log10-error:    total        iterations:
           time      wfs    density  energy       fermi  poisson
iter:   1  14:13:48          +inf  -135.129393    2      5      
iter:   2  14:13:49         -1.80  -135.006287    2      2      
iter:   3  14:13:49         -1.96  -134.943430    3      2      
iter:   4  14:13:50         -2.11  -134.926513    3      2      
iter:   5  14:13:50         -2.24  -134.912923    2      2      
iter:   6  14:13:51         -2.35  -134.916054    2      2      
iter:   7  14:13:51         -2.55  -134.913520    2      2      
iter:   8  14:13:52         -2.67  -134.914476    2      2      
iter:   9  14:13:52         -2.94  -134.915201    2      1      
iter:  10  14:13:53         -3.06  -134.914499    2      2      
iter:  11  14:13:53         -3.25  -134.914736    2      1      
iter:  12  14:13:54         -3.35  -134.916376    2      1      
iter:  13  14:13:54         -3.59  -134.914787    2      1      
iter:  14  14:13:55         -3.69  -134.914428    2      1      
iter:  15  14:13:55         -3.83  -134.914697    2      1      
iter:  16  14:13:56         -4.05  -134.914257    2      1      

Converged after 16 iterations.

Dipole moment: (-0.278411, -0.346925, -0.517510) |e|*Ang

Energy contributions relative to reference atoms: (reference = -24663.074771)

Kinetic:       +236.101178
Potential:     -192.393353
External:        +0.000000
XC:            -181.290588
Entropy (-ST):   -0.151057
Local:           +2.744034
--------------------------
Free energy:   -134.989785
Extrapolated:  -134.914257

Fermi level: -4.60874

 Band  Eigenvalues  Occupancy
    0    -29.86856    2.00000
    1    -27.49695    2.00000
    2    -26.09748    2.00000
    3    -24.63085    2.00000
    4    -22.40761    2.00000
    5    -22.07281    2.00000
    6    -21.33104    2.00000
    7    -20.20013    2.00000
    8    -19.03473    2.00000
    9    -18.99314    2.00000
   10    -18.65272    2.00000
   11    -17.07711    2.00000
   12    -16.00239    2.00000
   13    -15.88847    2.00000
   14    -15.36301    2.00000
   15    -15.23156    2.00000
   16    -14.82240    2.00000
   17    -14.38487    2.00000
   18    -13.88572    2.00000
   19    -12.83581    2.00000
   20    -12.10234    2.00000
   21    -11.73592    2.00000
   22    -11.37667    2.00000
   23    -11.19912    2.00000
   24    -10.87637    2.00000
   25    -10.62864    2.00000
   26    -10.21277    2.00000
   27    -10.07303    2.00000
   28     -9.51321    2.00000
   29     -9.20514    2.00000
   30     -9.13203    2.00000
   31     -8.84560    2.00000
   32     -8.42437    2.00000
   33     -8.21444    2.00000
   34     -8.06867    2.00000
   35     -7.88624    2.00000
   36     -7.66881    2.00000
   37     -7.34420    2.00000
   38     -7.16765    2.00000
   39     -6.59727    2.00000
   40     -6.54765    2.00000
   41     -6.46514    2.00000
   42     -6.29253    2.00000
   43     -6.08736    2.00000
   44     -5.97624    2.00000
   45     -5.42032    1.99940
   46     -5.13284    1.98947
   47     -4.82739    1.79806
   48     -4.37858    0.18199
   49     -4.17758    0.02647
   50     -3.98961    0.00409
   51     -3.77531    0.00048
   52     -3.51991    0.00004
   53     -3.39172    0.00001
   54     -2.94560    0.00000
   55     -2.76319    0.00000
   56     -2.49381    0.00000
   57     -2.04688    0.00000
   58     -1.77961    0.00000
   59     -1.72768    0.00000
   60     -1.10336    0.00000
   61     -0.65494    0.00000
   62     -0.57998    0.00000
   63     -0.20927    0.00000
   64      0.07004    0.00000
   65      0.22284    0.00000
   66      0.49787    0.00000
   67      0.67622    0.00000
   68      1.31013    0.00000
   69      1.62542    0.00000
   70      2.28297    0.00000
   71      2.62193    0.00000
   72      2.86704    0.00000
   73      3.10000    0.00000
   74      3.28965    0.00000
   75      3.65187    0.00000
   76      4.00362    0.00000
   77      4.92595    0.00000
   78      5.41520    0.00000
   79      5.88921    0.00000
   80      6.03859    0.00000
   81      6.22329    0.00000
   82      6.72617    0.00000
   83      6.96414    0.00000
   84      7.11932    0.00000
   85      7.49634    0.00000
   86      7.69841    0.00000
   87      7.92677    0.00000
   88      8.25334    0.00000
   89      8.28071    0.00000
   90      8.56617    0.00000
   91      8.84502    0.00000
   92      8.92298    0.00000
   93      9.17851    0.00000
   94      9.21303    0.00000
   95      9.54877    0.00000
   96      9.73734    0.00000
   97      9.77472    0.00000


Forces in eV/Ang:
  0 C     0.69087   -1.51014  -22.18310
  1 C     2.29793  -11.39734    5.77850
  2 C     3.10023    5.57977    9.86960
  3 C    -2.26481   -2.78609   12.88376
  4 C    -2.86157   -0.81406   -1.58226
  5 C     4.69101   -5.61770   -1.70764
  6 C     1.61866    3.45390    1.49677
  7 C    -0.80521   -4.32246   -2.69539
  8 C     7.81529    6.26124    1.93037
  9 C    -3.77094    3.88967    2.20429
 10 C     1.93548   -6.52692    1.16315
 11 C    -0.97865   -0.37083   -8.81672
 12 C     5.79933   13.79262   -7.43843
 13 C    15.24505    3.64869   -6.29991
 14 C    -4.38383   -1.10484    2.03262
 15 C    -1.18628    1.51403    1.23287
 16 C    -2.36312   -6.45805    2.48424
 17 C     0.54047   -0.33081    0.30606
 18 C    -1.89098    0.51641   -1.06635
 19 C    -6.09868    9.57436   -1.47499
 20 C     1.49623    2.91784    1.40524
 21 C    -7.72741   -0.81676   15.65008
 22 C     0.68024   -2.08536   -1.90522
 23 C   -11.49669   -7.01009   -3.28432

System changes: positions 

Initializing position-dependent things.

Density initialized from wave functions
           .--------------------------------------.  
          /|                                      |  
         / |                                      |  
        /  |                                      |  
       /   |                                      |  
      /    |                                      |  
     /     |                                      |  
    /      |                                      |  
   /       |             C                        |  
  /        |           C   C                      |  
 *         |      C     C     C                   |  
 |         |         C  C C  C  C                 |  
 |         .-C----C---C----CCC-C------------------.  
 |        /   C CC                               /   
 |       /          C     C                     /    
 |      /                                      /     
 |     /                                      /      
 |    /                                      /       
 |   /                                      /        
 |  /                                      /         
 | /                                      /          
 |/                                      /           
 *--------------------------------------*            

Positions:
   0 C      6.763642   10.353095    4.615475
   1 C      4.111151    5.367067    4.964358
   2 C      7.058685    9.034544    5.680660
   3 C      9.649552    8.674769    5.673711
   4 C     10.279840    5.098036    5.525385
   5 C      7.330371    7.489522    4.884327
   6 C      9.060501    4.358509    4.510540
   7 C      4.748219    9.213664    4.856440
   8 C      7.922100   10.768694    5.215573
   9 C      5.115547    7.806334    4.363966
  10 C      7.054381    6.239903    4.956034
  11 C      9.052301    8.862858    4.347723
  12 C      4.374997    6.410206    4.366175
  13 C     10.341553    8.812724    4.656907
  14 C      3.217356    6.663778    4.976510
  15 C      6.602700    4.034949    4.741495
  16 C      8.985451    7.512064    4.496536
  17 C     10.929092    6.134402    4.964434
  18 C      5.446142    4.536604    5.207836
  19 C      7.822510    9.276631    4.438133
  20 C      6.801147   11.729157    5.268219
  21 C      6.356735   10.404035    5.784389
  22 C      9.151245    6.120137    4.911429
  23 C      6.273058    8.275632    5.062925

Unit cell:
           periodic     x           y           z      points  spacing
  1. axis:    yes   16.000000    0.000000    0.000000    80     0.2000
  2. axis:    yes    0.000000   16.000000    0.000000    80     0.2000
  3. axis:    yes    0.000000    0.000000   10.000000    48     0.2083

Effective grid spacing dv^(1/3) = 0.2027

                     log10-error:    total        iterations:
           time      wfs    density  energy       fermi  poisson
iter:   1  14:13:58          +inf  -138.403508    2      5      
iter:   2  14:13:58         -1.76  -138.257399    2      2      
iter:   3  14:13:59         -1.96  -138.200047    2      2      
iter:   4  14:13:59         -2.10  -138.184997    3      2      
iter:   5  14:14:00         -2.22  -138.167864    2      2      
iter:   6  14:14:01         -2.33  -138.173441    3      2      
iter:   7  14:14:01         -2.56  -138.169243    2      2      
iter:   8  14:14:02         -2.66  -138.168544    2      2      
iter:   9  14:14:02         -2.96  -138.169228    2      1      
iter:  10  14:14:03         -3.06  -138.169284    2      2      
iter:  11  14:14:03         -3.25  -138.169586    2      1      
iter:  12  14:14:04         -3.37  -138.170147    2      1      
iter:  13  14:14:04         -3.55  -138.170176    2      1      
iter:  14  14:14:05         -3.71  -138.169492    2      1      
iter:  15  14:14:05         -3.80  -138.169270    2      1      
iter:  16  14:14:06         -3.95  -138.169046    2      1      
iter:  17  14:14:06         -4.01  -138.168947    2      1      

Converged after 17 iterations.

Dipole moment: (-0.293907, -0.366661, -0.501595) |e|*Ang

Energy contributions relative to reference atoms: (reference = -24663.074771)

Kinetic:       +223.376952
Potential:     -184.362912
External:        +0.000000
XC:            -179.849439
Entropy (-ST):   -0.153529
Local:           +2.743217
--------------------------
Free energy:   -138.245712
Extrapolated:  -138.168947

Fermi level: -4.58904

 Band  Eigenvalues  Occupancy
    0    -29.63959    2.00000
    1    -27.05437    2.00000
    2    -25.72147    2.00000
    3    -24.48583    2.00000
    4    -22.44406    2.00000
    5    -22.01706    2.00000
    6    -21.29654    2.00000
    7    -20.12708    2.00000
    8    -19.01687    2.00000
    9    -18.96374    2.00000
   10    -18.64298    2.00000
   11    -16.99444    2.00000
   12    -16.06767    2.00000
   13    -15.97318    2.00000
   14    -15.29280    2.00000
   15    -15.26838    2.00000
   16    -14.69563    2.00000
   17    -14.28718    2.00000
   18    -13.85197    2.00000
   19    -12.74326    2.00000
   20    -12.16288    2.00000
   21    -11.73465    2.00000
   22    -11.35559    2.00000
   23    -11.10528    2.00000
   24    -10.87027    2.00000
   25    -10.57356    2.00000
   26    -10.25902    2.00000
   27    -10.05429    2.00000
   28     -9.54376    2.00000
   29     -9.26803    2.00000
   30     -9.11705    2.00000
   31     -8.84584    2.00000
   32     -8.50711    2.00000
   33     -8.25677    2.00000
   34     -8.13423    2.00000
   35     -7.91182    2.00000
   36     -7.72304    2.00000
   37     -7.36010    2.00000
   38     -7.19862    2.00000
   39     -6.64234    2.00000
   40     -6.57722    2.00000
   41     -6.48512    2.00000
   42     -6.30250    2.00000
   43     -6.06449    2.00000
   44     -5.93869    2.00000
   45     -5.46643    1.99969
   46     -5.12504    1.99064
   47     -4.80381    1.79091
   48     -4.36043    0.18457
   49     -4.17084    0.03008
   50     -3.95949    0.00368
   51     -3.73590    0.00039
   52     -3.47781    0.00003
   53     -3.34002    0.00001
   54     -2.93288    0.00000
   55     -2.71804    0.00000
   56     -2.40257    0.00000
   57     -2.06284    0.00000
   58     -1.78545    0.00000
   59     -1.72129    0.00000
   60     -0.96453    0.00000
   61     -0.57461    0.00000
   62     -0.44267    0.00000
   63     -0.06621    0.00000
   64      0.06826    0.00000
   65      0.21867    0.00000
   66      0.51099    0.00000
   67      0.67565    0.00000
   68      1.43592    0.00000
   69      1.73270    0.00000
   70      2.30134    0.00000
   71      2.58929    0.00000
   72      2.76763    0.00000
   73      3.20386    0.00000
   74      3.31685    0.00000
   75      3.79747    0.00000
   76      3.99807    0.00000
   77      4.92670    0.00000
   78      5.51009    0.00000
   79      5.94556    0.00000
   80      6.10446    0.00000
   81      6.40564    0.00000
   82      6.71491    0.00000
   83      6.96881    0.00000
   84      7.18612    0.00000
   85      7.47367    0.00000
   86      7.70551    0.00000
   87      7.94007    0.00000
   88      8.26422    0.00000
   89      8.30209    0.00000
   90      8.50789    0.00000
   91      8.81447    0.00000
   92      8.92577    0.00000
   93      9.16475    0.00000
   94      9.24375    0.00000
   95      9.54533    0.00000
   96      9.72473    0.00000
   97      9.78672    0.00000


Forces in eV/Ang:
  0 C     0.53744   -0.70067  -19.67209
  1 C     2.41118  -10.39439    5.18266
  2 C     2.78688    5.41290    8.75358
  3 C    -1.99695   -2.89789   10.94513
  4 C    -2.65595   -0.76561   -1.56433
  5 C     4.16912   -5.56420   -1.68841
  6 C     1.69640    3.48995    1.46955
  7 C    -0.97068   -4.01581   -2.57210
  8 C     6.82717    5.42709    1.69416
  9 C    -3.43383    3.72630    2.16174
 10 C     1.94201   -6.38753    1.16793
 11 C    -0.50009   -0.71291   -8.14330
 12 C     5.06266   12.97805   -6.66844
 13 C    13.03985    3.94212   -5.25807
 14 C    -4.06230   -1.41817    1.89295
 15 C    -1.17360    1.57500    1.19848
 16 C    -2.86178   -5.64097    2.56557
 17 C     0.56608   -0.41020    0.37550
 18 C    -1.86210    0.66267   -1.07618
 19 C    -4.85607    9.17512   -0.68294
 20 C     1.38740    2.51084    1.22680
 21 C    -6.75486   -0.93355   13.61142
 22 C     0.58878   -2.25853   -1.88466
 23 C    -9.85642   -6.80726   -3.06687

System changes: positions 

Initializing position-dependent things.

Density initialized from wave functions
           .--------------------------------------.  
          /|                                      |  
         / |                                      |  
        /  |                                      |  
       /   |                                      |  
      /    |                                      |  
     /     |                                      |  
    /      |                                      |  
   /       |             C                        |  
  /        |           C   C                      |  
 *         |      C     C     C                   |  
 |         |         C  C C  C  C                 |  
 |         .-C----C---C----CCC-C------------------.  
 |        /   C CC                               /   
 |       /          C     C                     /    
 |      /                                      /     
 |     /                                      /      
 |    /                                      /       
 |   /                                      /        
 |  /                                      /         
 | /                                      /          
 |/                                      /           
 *--------------------------------------*            

Positions:
   0 C      6.759481   10.364530    4.594972
   1 C      4.136145    5.360590    4.962941
   2 C      7.049957    9.042647    5.693661
   3 C      9.649772    8.660529    5.673604
   4 C     10.269405    5.095369    5.517643
   5 C      7.337826    7.468955    4.878403
   6 C      9.070306    4.375954    4.517506
   7 C      4.741117    9.198184    4.845043
   8 C      7.930031   10.780749    5.218637
   9 C      5.100037    7.821714    4.372861
  10 C      7.064908    6.214751    4.962145
  11 C      9.055212    8.848746    4.323848
  12 C      4.374572    6.434381    4.365508
  13 C     10.353364    8.837191    4.664108
  14 C      3.207574    6.649395    4.981550
  15 C      6.597447    4.043111    4.746814
  16 C      8.964741    7.502340    4.510876
  17 C     10.931803    6.130652    4.967398
  18 C      5.435473    4.542635    5.202255
  19 C      7.825054    9.315350    4.447851
  20 C      6.806771   11.731013    5.271299
  21 C      6.356530   10.394753    5.784295
  22 C      9.153641    6.105418    4.902454
  23 C      6.276905    8.258471    5.063370

Unit cell:
           periodic     x           y           z      points  spacing
  1. axis:    yes   16.000000    0.000000    0.000000    80     0.2000
  2. axis:    yes    0.000000   16.000000    0.000000    80     0.2000
  3. axis:    yes    0.000000    0.000000   10.000000    48     0.2083

Effective grid spacing dv^(1/3) = 0.2027

                     log10-error:    total        iterations:
           time      wfs    density  energy       fermi  poisson
iter:   1  14:14:08          +inf  -141.304462    2      5      
iter:   2  14:14:09         -1.78  -141.178978    2      2      
iter:   3  14:14:09         -1.98  -141.132341    2      2      
iter:   4  14:14:10         -2.11  -141.119916    2      2      
iter:   5  14:14:10         -2.22  -141.102588    2      2      
iter:   6  14:14:11         -2.36  -141.110668    3      2      
iter:   7  14:14:11         -2.59  -141.104435    2      1      
iter:   8  14:14:12         -2.69  -141.102739    2      2      
iter:   9  14:14:12         -2.93  -141.105971    2      1      
iter:  10  14:14:13         -3.06  -141.104864    2      1      
iter:  11  14:14:13         -3.26  -141.105563    2      1      
iter:  12  14:14:14         -3.37  -141.105350    2      1      
iter:  13  14:14:14         -3.44  -141.105160    2      1      
iter:  14  14:14:15         -3.68  -141.105275    2      1      
iter:  15  14:14:15         -3.83  -141.105200    2      1      
iter:  16  14:14:16         -4.00  -141.104676    2      1      

Converged after 16 iterations.

Dipole moment: (-0.290351, -0.389298, -0.480125) |e|*Ang

Energy contributions relative to reference atoms: (reference = -24663.074771)

Kinetic:       +213.105332
Potential:     -177.983761
External:        +0.000000
XC:            -178.892145
Entropy (-ST):   -0.163140
Local:           +2.747468
--------------------------
Free energy:   -141.186246
Extrapolated:  -141.104676

Fermi level: -4.57223

 Band  Eigenvalues  Occupancy
    0    -29.46743    2.00000
    1    -26.72518    2.00000
    2    -25.38613    2.00000
    3    -24.27037    2.00000
    4    -22.56111    2.00000
    5    -21.93504    2.00000
    6    -21.30655    2.00000
    7    -20.03531    2.00000
    8    -19.08932    2.00000
    9    -18.94631    2.00000
   10    -18.58941    2.00000
   11    -16.93115    2.00000
   12    -16.16286    2.00000
   13    -16.05628    2.00000
   14    -15.32675    2.00000
   15    -15.22916    2.00000
   16    -14.62005    2.00000
   17    -14.17868    2.00000
   18    -13.83098    2.00000
   19    -12.68181    2.00000
   20    -12.23343    2.00000
   21    -11.75741    2.00000
   22    -11.37265    2.00000
   23    -11.05145    2.00000
   24    -10.85234    2.00000
   25    -10.51118    2.00000
   26    -10.28086    2.00000
   27    -10.03758    2.00000
   28     -9.59524    2.00000
   29     -9.35894    2.00000
   30     -9.09634    2.00000
   31     -8.86897    2.00000
   32     -8.60006    2.00000
   33     -8.30503    2.00000
   34     -8.19276    2.00000
   35     -7.95343    2.00000
   36     -7.77680    2.00000
   37     -7.36765    2.00000
   38     -7.23315    2.00000
   39     -6.69550    2.00000
   40     -6.59928    2.00000
   41     -6.50036    2.00000
   42     -6.32209    2.00000
   43     -6.04529    2.00000
   44     -5.91055    2.00000
   45     -5.49718    1.99981
   46     -5.12844    1.99235
   47     -4.77601    1.76944
   48     -4.34900    0.19378
   49     -4.18551    0.04098
   50     -3.93051    0.00326
   51     -3.70687    0.00035
   52     -3.47797    0.00004
   53     -3.26633    0.00000
   54     -2.91970    0.00000
   55     -2.67681    0.00000
   56     -2.29808    0.00000
   57     -2.09429    0.00000
   58     -1.83296    0.00000
   59     -1.66275    0.00000
   60     -0.84846    0.00000
   61     -0.52592    0.00000
   62     -0.26381    0.00000
   63     -0.05938    0.00000
   64      0.16767    0.00000
   65      0.23300    0.00000
   66      0.59551    0.00000
   67      0.72345    0.00000
   68      1.57750    0.00000
   69      1.86629    0.00000
   70      2.26486    0.00000
   71      2.60655    0.00000
   72      2.65161    0.00000
   73      3.31521    0.00000
   74      3.38156    0.00000
   75      3.96192    0.00000
   76      4.03082    0.00000
   77      4.89903    0.00000
   78      5.55464    0.00000
   79      5.99052    0.00000
   80      6.26018    0.00000
   81      6.65707    0.00000
   82      6.72949    0.00000
   83      6.93052    0.00000
   84      7.36328    0.00000
   85      7.49804    0.00000
   86      7.71649    0.00000
   87      8.01389    0.00000
   88      8.25685    0.00000
   89      8.33023    0.00000
   90      8.48485    0.00000
   91      8.77934    0.00000
   92      8.92772    0.00000
   93      9.15852    0.00000
   94      9.27255    0.00000
   95      9.53692    0.00000
   96      9.70854    0.00000
   97      9.79631    0.00000


Forces in eV/Ang:
  0 C     0.28595   -0.15497  -17.84755
  1 C     2.56058   -8.67851    4.21977
  2 C     2.15041    4.93386    7.50248
  3 C    -2.00655   -3.13417    9.91912
  4 C    -2.40043   -0.71179   -1.48953
  5 C     3.72680   -5.50609   -1.69947
  6 C     1.72871    3.49043    1.39897
  7 C    -1.13164   -3.51682   -2.35843
  8 C     6.10912    4.71705    1.55456
  9 C    -3.08620    3.41290    2.06427
 10 C     1.93195   -6.32991    1.11286
 11 C    -0.49691   -0.79774   -7.64889
 12 C     4.16129   11.39008   -5.51143
 13 C    11.76539    4.25301   -4.80749
 14 C    -3.64783   -1.69667    1.71175
 15 C    -1.05121    1.61704    1.14046
 16 C    -3.35141   -5.02328    2.61666
 17 C     0.59935   -0.45493    0.44157
 18 C    -1.81672    0.83179   -1.04296
 19 C    -3.64553    8.61366   -0.05670
 20 C     1.25651    2.30004    1.10688
 21 C    -6.09957   -0.92907   12.11820
 22 C     0.52716   -2.37149   -1.94575
 23 C    -8.03816   -6.21368   -2.55914

System changes: positions 

Initializing position-dependent things.

Density initialized from wave functions
           .--------------------------------------.  
          /|                                      |  
         / |                                      |  
        /  |                                      |  
       /   |                                      |  
      /    |                                      |  
     /     |                                      |  
    /      |                                      |  
   /       |             C                        |  
  /        |           CC  C                      |  
 *         |      C     C     C                   |  
 |         |         C    C  C  C                 |  
 |         .-C----C---C-C--C-C-C------------------.  
 |        /   C CC                               /   
 |       /          C     C                     /    
 |      /                                      /     
 |     /                                      /      
 |    /                                      /       
 |   /                                      /        
 |  /                                      /         
 | /                                      /          
 |/                                      /           
 *--------------------------------------*            

Positions:
   0 C      6.753515   10.378281    4.572879
   1 C      4.160839    5.359825    4.958483
   2 C      7.040112    9.051577    5.703685
   3 C      9.647511    8.642977    5.677616
   4 C     10.260088    5.092758    5.510177
   5 C      7.344962    7.445796    4.871302
   6 C      9.080600    4.394425    4.524281
   7 C      4.732723    9.185789    4.834815
   8 C      7.937719   10.790685    5.221969
   9 C      5.086674    7.835570    4.381861
  10 C      7.075720    6.186653    4.967984
  11 C      9.058810    8.835506    4.299114
  12 C      4.371689    6.453991    4.368287
  13 C     10.367233    8.864680    4.667527
  14 C      3.198709    6.633377    4.986162
  15 C      6.593056    4.052098    4.752036
  16 C      8.939874    7.493422    4.526166
  17 C     10.935021    6.126734    4.970902
  18 C      5.425009    4.549935    5.196763
  19 C      7.831193    9.352859    4.460316
  20 C      6.811857   11.733335    5.274307
  21 C      6.354980   10.386486    5.785177
  22 C      9.155810    6.089629    4.892173
  23 C      6.284376    8.241592    5.064654

Unit cell:
           periodic     x           y           z      points  spacing
  1. axis:    yes   16.000000    0.000000    0.000000    80     0.2000
  2. axis:    yes    0.000000   16.000000    0.000000    80     0.2000
  3. axis:    yes    0.000000    0.000000   10.000000    48     0.2083

Effective grid spacing dv^(1/3) = 0.2027

                     log10-error:    total        iterations:
           time      wfs    density  energy       fermi  poisson
iter:   1  14:14:18          +inf  -144.109273    3      5      
iter:   2  14:14:18         -1.74  -143.931852    2      2      
iter:   3  14:14:19         -1.95  -143.866570    3      2      
iter:   4  14:14:19         -2.12  -143.863972    2      2      
iter:   5  14:14:20         -2.18  -143.838266    3      2      
iter:   6  14:14:20         -2.36  -143.850078    3      2      
iter:   7  14:14:21         -2.57  -143.844253    2      1      
iter:   8  14:14:21         -2.66  -143.838348    2      2      
iter:   9  14:14:22         -2.89  -143.840944    2      1      
iter:  10  14:14:22         -3.04  -143.840278    2      2      
iter:  11  14:14:23         -3.27  -143.841015    2      1      
iter:  12  14:14:23         -3.33  -143.841958    2      1      
iter:  13  14:14:24         -3.54  -143.841015    2      1      
iter:  14  14:14:24         -3.67  -143.841016    2      1      
iter:  15  14:14:25         -3.84  -143.841301    2      1      
iter:  16  14:14:25         -4.06  -143.840514    2      1      

Converged after 16 iterations.

Dipole moment: (-0.292877, -0.421578, -0.451609) |e|*Ang

Energy contributions relative to reference atoms: (reference = -24663.074771)

Kinetic:       +203.648417
Potential:     -172.160771
External:        +0.000000
XC:            -177.997820
Entropy (-ST):   -0.175633
Local:           +2.757478
--------------------------
Free energy:   -143.928330
Extrapolated:  -143.840514

Fermi level: -4.56720

 Band  Eigenvalues  Occupancy
    0    -29.28365    2.00000
    1    -26.36491    2.00000
    2    -25.05399    2.00000
    3    -24.15888    2.00000
    4    -22.70968    2.00000
    5    -21.81363    2.00000
    6    -21.33177    2.00000
    7    -19.91628    2.00000
    8    -19.20280    2.00000
    9    -18.91828    2.00000
   10    -18.48755    2.00000
   11    -16.87124    2.00000
   12    -16.28570    2.00000
   13    -16.11982    2.00000
   14    -15.37973    2.00000
   15    -15.18069    2.00000
   16    -14.53719    2.00000
   17    -14.07958    2.00000
   18    -13.80059    2.00000
   19    -12.62709    2.00000
   20    -12.31182    2.00000
   21    -11.81841    2.00000
   22    -11.42374    2.00000
   23    -11.01319    2.00000
   24    -10.82468    2.00000
   25    -10.47962    2.00000
   26    -10.25913    2.00000
   27    -10.02500    2.00000
   28     -9.64410    2.00000
   29     -9.46015    2.00000
   30     -9.07665    2.00000
   31     -8.92690    2.00000
   32     -8.66963    2.00000
   33     -8.35365    2.00000
   34     -8.24279    2.00000
   35     -7.99792    2.00000
   36     -7.82127    2.00000
   37     -7.35445    2.00000
   38     -7.26357    2.00000
   39     -6.73972    2.00000
   40     -6.62027    2.00000
   41     -6.50616    2.00000
   42     -6.35017    2.00000
   43     -6.03448    2.00000
   44     -5.87920    2.00000
   45     -5.52019    1.99985
   46     -5.13890    1.99344
   47     -4.75894    1.74371
   48     -4.34634    0.19796
   49     -4.22353    0.06234
   50     -3.89307    0.00236
   51     -3.68681    0.00030
   52     -3.49325    0.00004
   53     -3.18868    0.00000
   54     -2.90421    0.00000
   55     -2.63868    0.00000
   56     -2.20470    0.00000
   57     -2.12979    0.00000
   58     -1.84953    0.00000
   59     -1.60572    0.00000
   60     -0.78092    0.00000
   61     -0.47953    0.00000
   62     -0.12861    0.00000
   63     -0.07767    0.00000
   64      0.19314    0.00000
   65      0.30835    0.00000
   66      0.70972    0.00000
   67      0.87197    0.00000
   68      1.68000    0.00000
   69      1.96885    0.00000
   70      2.21973    0.00000
   71      2.53451    0.00000
   72      2.67772    0.00000
   73      3.31735    0.00000
   74      3.55048    0.00000
   75      3.87921    0.00000
   76      4.32095    0.00000
   77      4.85913    0.00000
   78      5.50328    0.00000
   79      6.10081    0.00000
   80      6.43842    0.00000
   81      6.67015    0.00000
   82      6.80635    0.00000
   83      7.00242    0.00000
   84      7.48453    0.00000
   85      7.57524    0.00000
   86      7.73769    0.00000
   87      8.12788    0.00000
   88      8.20439    0.00000
   89      8.35786    0.00000
   90      8.50776    0.00000
   91      8.74374    0.00000
   92      8.92998    0.00000
   93      9.14652    0.00000
   94      9.29746    0.00000
   95      9.52502    0.00000
   96      9.69560    0.00000
   97      9.80212    0.00000


Forces in eV/Ang:
  0 C     0.02928    0.26346  -15.97089
  1 C     2.38692   -7.87763    3.81810
  2 C     1.77001    4.58323    6.41868
  3 C    -1.51981   -3.16718    8.15066
  4 C    -2.11030   -0.66005   -1.37420
  5 C     3.27060   -5.39252   -1.76899
  6 C     1.70663    3.44429    1.29147
  7 C    -1.26378   -2.97358   -2.11920
  8 C     5.37195    4.08373    1.42086
  9 C    -2.68109    3.01927    1.98105
 10 C     1.88834   -6.33832    1.09356
 11 C    -0.28187   -0.80848   -6.96979
 12 C     3.65231   10.73715   -5.00178
 13 C     9.88988    4.24053   -3.71217
 14 C    -3.44789   -1.87351    1.60162
 15 C    -0.93512    1.68877    1.06536
 16 C    -3.62082   -4.38074    2.65224
 17 C     0.63642   -0.48026    0.50808
 18 C    -1.64921    0.94519   -0.99569
 19 C    -2.58700    7.91475    0.39935
 20 C     1.16288    2.07619    1.01607
 21 C    -5.46257   -0.82848   10.59210
 22 C     0.47466   -2.33428   -1.95627
 23 C    -6.64772   -5.78997   -2.20769

System changes: positions 

Initializing position-dependent things.

Density initialized from wave functions
           .--------------------------------------.  
          /|                                      |  
         / |                                      |  
        /  |                                      |  
       /   |                                      |  
      /    |                                      |  
     /     |                                      |  
    /      |                                      |  
   /       |             C                        |  
  /        |           CC  C                      |  
 *         |      C     C     C                   |  
 |         |         C    C  C  C                 |  
 |         .-C----C---C-C--C-C-C------------------.  
 |        /    CCC                               /   
 |       /          C     C                     /    
 |      /                                      /     
 |     /                                      /      
 |    /                                      /       
 |   /                                      /        
 |  /                                      /         
 | /                                      /          
 |/                                      /           
 *--------------------------------------*            

Positions:
   0 C      6.745004   10.393426    4.550105
   1 C      4.183313    5.356018    4.956160
   2 C      7.030451    9.062063    5.711774
   3 C      9.648708    8.623666    5.676125
   4 C     10.251934    5.090074    5.503151
   5 C      7.351744    7.419902    4.862072
   6 C      9.091261    4.414245    4.530714
   7 C      4.722858    9.176485    4.825581
   8 C      7.945365   10.799670    5.225861
   9 C      5.075343    7.847557    4.391449
  10 C      7.086978    6.153582    4.974251
  11 C      9.064667    8.823469    4.274711
  12 C      4.369912    6.478991    4.368390
  13 C     10.375955    8.892923    4.675724
  14 C      3.188045    6.615944    4.991329
  15 C      6.589287    4.062679    4.757190
  16 C      8.912106    7.485199    4.543018
  17 C     10.938959    6.122662    4.975137
  18 C      5.415592    4.558326    5.191264
  19 C      7.840535    9.389070    4.474511
  20 C      6.816972   11.736174    5.277699
  21 C      6.352358   10.379692    5.785306
  22 C      9.157947    6.073787    4.880619
  23 C      6.293003    8.223500    5.066037

Unit cell:
           periodic     x           y           z      points  spacing
  1. axis:    yes   16.000000    0.000000    0.000000    80     0.2000
  2. axis:    yes    0.000000   16.000000    0.000000    80     0.2000
  3. axis:    yes    0.000000    0.000000   10.000000    48     0.2083

Effective grid spacing dv^(1/3) = 0.2027

                     log10-error:    total        iterations:
           time      wfs    density  energy       fermi  poisson
iter:   1  14:14:27          +inf  -146.683209    3      5      
iter:   2  14:14:28         -1.74  -146.513181    3      2      
iter:   3  14:14:28         -1.96  -146.454866    3      2      
iter:   4  14:14:29         -2.12  -146.452781    2      2      
iter:   5  14:14:29         -2.18  -146.431631    3      2      
iter:   6  14:14:30         -2.39  -146.437339    3      2      
iter:   7  14:14:30         -2.65  -146.436094    2      1      
iter:   8  14:14:31         -2.70  -146.431609    2      2      
iter:   9  14:14:31         -3.01  -146.432463    2      1      
iter:  10  14:14:32         -3.12  -146.432978    2      1      
iter:  11  14:14:32         -3.29  -146.433494    2      1      
iter:  12  14:14:33         -3.37  -146.433957    2      1      
iter:  13  14:14:33         -3.48  -146.433049    2      1      
iter:  14  14:14:34         -3.64  -146.433028    2      1      
iter:  15  14:14:34         -3.77  -146.433458    2      1      
iter:  16  14:14:35         -4.03  -146.432935    2      1      

Converged after 16 iterations.

Dipole moment: (-0.287479, -0.453854, -0.416529) |e|*Ang

Energy contributions relative to reference atoms: (reference = -24663.074771)

Kinetic:       +194.771266
Potential:     -166.681824
External:        +0.000000
XC:            -177.176214
Entropy (-ST):   -0.197520
Local:           +2.752598
--------------------------
Free energy:   -146.531695
Extrapolated:  -146.432935

Fermi level: -4.56678

 Band  Eigenvalues  Occupancy
    0    -29.08846    2.00000
    1    -26.06972    2.00000
    2    -24.75369    2.00000
    3    -23.96266    2.00000
    4    -22.87581    2.00000
    5    -21.67247    2.00000
    6    -21.37421    2.00000
    7    -19.79549    2.00000
    8    -19.34311    2.00000
    9    -18.88589    2.00000
   10    -18.37034    2.00000
   11    -16.84010    2.00000
   12    -16.38384    2.00000
   13    -16.18948    2.00000
   14    -15.43603    2.00000
   15    -15.14257    2.00000
   16    -14.46541    2.00000
   17    -14.02449    2.00000
   18    -13.73613    2.00000
   19    -12.58514    2.00000
   20    -12.36213    2.00000
   21    -11.90930    2.00000
   22    -11.47834    2.00000
   23    -11.01471    2.00000
   24    -10.79986    2.00000
   25    -10.47603    2.00000
   26    -10.21414    2.00000
   27     -9.99498    2.00000
   28     -9.69926    2.00000
   29     -9.54207    2.00000
   30     -9.08478    2.00000
   31     -9.01968    2.00000
   32     -8.71583    2.00000
   33     -8.40375    2.00000
   34     -8.30611    2.00000
   35     -8.04433    2.00000
   36     -7.85881    2.00000
   37     -7.33982    2.00000
   38     -7.29208    2.00000
   39     -6.77491    2.00000
   40     -6.64216    2.00000
   41     -6.51111    2.00000
   42     -6.38935    2.00000
   43     -6.01475    2.00000
   44     -5.85602    1.99999
   45     -5.52906    1.99987
   46     -5.15377    1.99437
   47     -4.73884    1.69640
   48     -4.34806    0.20181
   49     -4.27825    0.10577
   50     -3.84525    0.00147
   51     -3.67576    0.00027
   52     -3.51909    0.00006
   53     -3.12846    0.00000
   54     -2.89076    0.00000
   55     -2.60517    0.00000
   56     -2.19830    0.00000
   57     -2.13311    0.00000
   58     -1.83058    0.00000
   59     -1.55784    0.00000
   60     -0.74745    0.00000
   61     -0.44479    0.00000
   62     -0.13795    0.00000
   63     -0.01599    0.00000
   64      0.24858    0.00000
   65      0.40652    0.00000
   66      0.84755    0.00000
   67      1.10177    0.00000
   68      1.71564    0.00000
   69      2.02349    0.00000
   70      2.27625    0.00000
   71      2.49804    0.00000
   72      2.75853    0.00000
   73      3.33641    0.00000
   74      3.64800    0.00000
   75      3.87582    0.00000
   76      4.64519    0.00000
   77      4.87411    0.00000
   78      5.41196    0.00000
   79      6.23346    0.00000
   80      6.58835    0.00000
   81      6.64584    0.00000
   82      6.80934    0.00000
   83      7.16224    0.00000
   84      7.56466    0.00000
   85      7.67218    0.00000
   86      7.78715    0.00000
   87      8.14052    0.00000
   88      8.27856    0.00000
   89      8.39256    0.00000
   90      8.54168    0.00000
   91      8.70391    0.00000
   92      8.93340    0.00000
   93      9.14024    0.00000
   94      9.30235    0.00000
   95      9.50923    0.00000
   96      9.67511    0.00000
   97      9.78829    0.00000


Forces in eV/Ang:
  0 C    -0.08875    0.54089  -14.21805
  1 C     2.17055   -6.33814    3.03246
  2 C     1.44246    4.11764    5.36152
  3 C    -1.45039   -3.34278    7.22062
  4 C    -1.79539   -0.59796   -1.25258
  5 C     2.73244   -5.25472   -1.76312
  6 C     1.60727    3.34193    1.16243
  7 C    -1.37715   -2.38096   -1.89022
  8 C     4.63193    3.57284    1.28467
  9 C    -2.27483    2.62903    1.92482
 10 C     1.80105   -6.28966    1.02223
 11 C    -0.30738   -0.80033   -6.33937
 12 C     2.87420    9.23375   -3.99735
 13 C     8.74428    4.29685   -3.31799
 14 C    -2.98064   -2.06031    1.36367
 15 C    -0.72332    1.78286    0.97617
 16 C    -3.72839   -3.75364    2.59646
 17 C     0.66978   -0.48320    0.57750
 18 C    -1.45307    1.07610   -0.87304
 19 C    -1.65544    7.12085    0.69258
 20 C     1.09368    1.87003    0.93578
 21 C    -4.95282   -0.62390    9.26660
 22 C     0.42346   -2.32338   -1.98906
 23 C    -5.36871   -5.36147   -1.82306

System changes: positions 

Initializing position-dependent things.

Density initialized from wave functions
[...]
    7    -19.54612    2.00000
    8    -19.12942    2.00000
    9    -18.75720    2.00000
   10    -17.84690    2.00000
   11    -17.51192    2.00000
   12    -16.42477    2.00000
   13    -16.24052    2.00000
   14    -15.91050    2.00000
   15    -15.57279    2.00000
   16    -14.63578    2.00000
   17    -13.42968    2.00000
   18    -13.31250    2.00000
   19    -13.10864    2.00000
   20    -12.45911    2.00000
   21    -12.35929    2.00000
   22    -11.91909    2.00000
   23    -11.44755    2.00000
   24    -11.30450    2.00000
   25    -10.81667    2.00000
   26    -10.67204    2.00000
   27    -10.42549    2.00000
   28    -10.22501    2.00000
   29    -10.13954    2.00000
   30    -10.06182    2.00000
   31     -9.72398    2.00000
   32     -9.20772    2.00000
   33     -9.04039    2.00000
   34     -8.85596    2.00000
   35     -8.78317    2.00000
   36     -8.66719    2.00000
   37     -7.35649    2.00000
   38     -7.31026    2.00000
   39     -7.10781    2.00000
   40     -6.76825    2.00000
   41     -6.55920    2.00000
   42     -5.97396    2.00000
   43     -5.40030    1.99859
   44     -5.28271    1.99545
   45     -5.11173    1.97511
   46     -4.97218    1.90317
   47     -4.90477    1.81846
   48     -4.47871    0.24772
   49     -4.32688    0.06009
   50     -3.94832    0.00140
   51     -3.35155    0.00000
   52     -3.08961    0.00000
   53     -2.03918    0.00000
   54     -1.87144    0.00000
   55     -1.54706    0.00000
   56     -1.14356    0.00000
   57     -0.79264    0.00000
   58     -0.20592    0.00000
   59      0.37389    0.00000
   60      0.92162    0.00000
   61      1.08350    0.00000
   62      1.22381    0.00000
   63      1.74088    0.00000
   64      2.26617    0.00000
   65      2.51678    0.00000
   66      2.75954    0.00000
   67      3.19321    0.00000
   68      3.39023    0.00000
   69      3.48338    0.00000
   70      4.00774    0.00000
   71      4.36104    0.00000
   72      4.63415    0.00000
   73      4.87449    0.00000
   74      5.44232    0.00000
   75      6.00843    0.00000
   76      6.08803    0.00000
   77      6.34989    0.00000
   78      6.90359    0.00000
   79      7.46851    0.00000
   80      7.74768    0.00000
   81      8.02305    0.00000
   82      8.24937    0.00000
   83      8.49465    0.00000
   84      8.61221    0.00000
   85      8.82690    0.00000
   86      8.96718    0.00000
   87      9.01967    0.00000
   88      9.11782    0.00000
   89      9.16510    0.00000
   90      9.19444    0.00000
   91      9.30721    0.00000
   92      9.66245    0.00000
   93      9.85172    0.00000
   94      9.88291    0.00000
   95      9.93616    0.00000
   96     10.09716    0.00000
   97     10.17019    0.00000


Forces in eV/Ang:
  0 C     0.05731   -0.07823    0.01420
  1 C    -0.02169   -0.00976   -0.02681
  2 C    -0.01903    0.04281   -0.03900
  3 C    -0.09704   -0.00437   -0.08554
  4 C     0.02584   -0.04915    0.01586
  5 C     0.00720    0.00896    0.06351
  6 C     0.02077    0.00641   -0.04738
  7 C    -0.10762    0.02187    0.07735
  8 C    -0.02328    0.06787   -0.00606
  9 C    -0.00500   -0.01139    0.00979
 10 C    -0.01179    0.02746   -0.02211
 11 C    -0.04001   -0.02671    0.03017
 12 C    -0.01388    0.00947   -0.01639
 13 C     0.09483   -0.01023   -0.00750
 14 C    -0.06096   -0.03059   -0.05893
 15 C    -0.05171   -0.01548    0.01298
 16 C     0.02186   -0.04692    0.01880
 17 C    -0.06044    0.03386    0.04284
 18 C     0.06393    0.02038   -0.00287
 19 C     0.03915    0.02225    0.00387
 20 C    -0.00588   -0.05579   -0.00949
 21 C    -0.06635   -0.00310    0.03028
 22 C    -0.01759   -0.01162   -0.01397
 23 C     0.00578    0.01950    0.03160

System changes: positions 

Initializing position-dependent things.

Density initialized from wave functions
           .--------------------------------------.  
          /|                                      |  
         / |                                      |  
        /  |                                      |  
       /   |                                      |  
      /    |                                      |  
     /     |                                      |  
    /      |                                      |  
   /       |                                      |  
  /        |               C       C              |  
 *         |           C   C    C                 |  
 |         C      C  C C   C C                    |  
 |         .--CCC--C--CC-----C--------------------.  
 |        /              C  C  C                 /   
 |       /                                      /    
 |      /                                      /     
 |     /                                      /      
 |    /                                      /       
 |   /                                      /        
 |  /                                      /         
 | /                                      /          
 |/                                      /           
 *--------------------------------------*            

Positions:
   0 C      7.418274   12.070325    4.228829
   1 C      3.719295    5.614718    5.533356
   2 C      6.857163    9.002169    4.636870
   3 C     11.682732    9.463269    5.763019
   4 C      9.766899    4.830851    4.797637
   5 C      7.481310    6.726574    5.030601
   6 C      8.522837    4.504610    5.028190
   7 C      4.564833    9.177013    4.442347
   8 C      8.060520   10.919509    4.504115
   9 C      4.885542    7.846884    4.750345
  10 C      7.357072    5.224754    5.217807
  11 C      9.265255    8.660342    5.002157
  12 C      3.832915    6.956031    5.088420
  13 C     10.557152    9.082987    5.271515
  14 C      2.551597    6.441237    5.514156
  15 C      6.096322    4.687421    5.546442
  16 C      8.879300    7.248146    5.019116
  17 C     11.012099    5.491933    4.679150
  18 C      4.859654    4.863500    5.625371
  19 C      8.161345    9.531050    4.714814
  20 C      6.340934   11.198423    4.260924
  21 C      5.770194    9.952884    4.374253
  22 C      9.941550    6.339989    4.917712
  23 C      6.412223    7.657571    4.847395

Unit cell:
           periodic     x           y           z      points  spacing
  1. axis:    yes   16.000000    0.000000    0.000000    80     0.2000
  2. axis:    yes    0.000000   16.000000    0.000000    80     0.2000
  3. axis:    yes    0.000000    0.000000   10.000000    48     0.2083

Effective grid spacing dv^(1/3) = 0.2027

                     log10-error:    total        iterations:
           time      wfs    density  energy       fermi  poisson
iter:   1  14:35:54          +inf  -180.275171    3      5      
iter:   2  14:35:54         -2.11  -180.239762    2      2      
iter:   3  14:35:55         -2.57  -180.235138    2      1      
iter:   4  14:35:55         -2.66  -180.231008    2      2      
iter:   5  14:35:56         -2.79  -180.233540    2      2      
iter:   6  14:35:56         -2.92  -180.228131    2      2      
iter:   7  14:35:57         -2.70  -180.230746    2      1      
iter:   8  14:35:57         -3.25  -180.231501    2      1      
iter:   9  14:35:58         -3.34  -180.231311    1      1      
iter:  10  14:35:58         -3.48  -180.230642    2      1      
iter:  11  14:35:59         -3.51  -180.231294    2      1      
iter:  12  14:35:59         -3.70  -180.231359    2      1      
iter:  13  14:36:00         -3.76  -180.231007    2      1      
iter:  14  14:36:00         -3.94  -180.231010    2      1      
iter:  15  14:36:01         -4.28  -180.231165    2      1      

Converged after 15 iterations.

Dipole moment: (-0.527634, -0.684858, -0.321086) |e|*Ang

Energy contributions relative to reference atoms: (reference = -24663.074771)

Kinetic:       +114.293715
Potential:     -121.834921
External:        +0.000000
XC:            -175.528917
Entropy (-ST):   -0.219393
Local:           +2.948654
--------------------------
Free energy:   -180.340861
Extrapolated:  -180.231165

Fermi level: -4.66167

 Band  Eigenvalues  Occupancy
    0    -24.17831    2.00000
    1    -23.75018    2.00000
    2    -23.08347    2.00000
    3    -22.24530    2.00000
    4    -21.50719    2.00000
    5    -21.26202    2.00000
    6    -19.85472    2.00000
    7    -19.54549    2.00000
    8    -19.14091    2.00000
    9    -18.76937    2.00000
   10    -17.84975    2.00000
   11    -17.52430    2.00000
   12    -16.43044    2.00000
   13    -16.26257    2.00000
   14    -15.92164    2.00000
   15    -15.58579    2.00000
   16    -14.64581    2.00000
   17    -13.43397    2.00000
   18    -13.32770    2.00000
   19    -13.13314    2.00000
   20    -12.47057    2.00000
   21    -12.36784    2.00000
   22    -11.92121    2.00000
   23    -11.47332    2.00000
   24    -11.31949    2.00000
   25    -10.83183    2.00000
   26    -10.68169    2.00000
   27    -10.43381    2.00000
   28    -10.20856    2.00000
   29    -10.15178    2.00000
   30    -10.06389    2.00000
   31     -9.72313    2.00000
   32     -9.21202    2.00000
   33     -9.03869    2.00000
   34     -8.83569    2.00000
   35     -8.79044    2.00000
   36     -8.64436    2.00000
   37     -7.35668    2.00000
   38     -7.30204    2.00000
   39     -7.11742    2.00000
   40     -6.77991    2.00000
   41     -6.56586    2.00000
   42     -5.98452    2.00000
   43     -5.40813    1.99885
   44     -5.29816    1.99656
   45     -5.09995    1.97533
   46     -4.96160    1.90508
   47     -4.89099    1.81662
   48     -4.46432    0.24402
   49     -4.31730    0.06191
   50     -3.94973    0.00162
   51     -3.36006    0.00000
   52     -3.09281    0.00000
   53     -2.02882    0.00000
   54     -1.86132    0.00000
   55     -1.54731    0.00000
   56     -1.28185    0.00000
   57     -0.78910    0.00000
   58     -0.20602    0.00000
   59      0.38512    0.00000
   60      0.93681    0.00000
   61      1.11532    0.00000
   62      1.23083    0.00000
   63      1.76591    0.00000
   64      2.27853    0.00000
   65      2.51012    0.00000
   66      2.74497    0.00000
   67      3.20109    0.00000
   68      3.38036    0.00000
   69      3.49740    0.00000
   70      3.95592    0.00000
   71      4.39276    0.00000
   72      4.66147    0.00000
   73      4.91181    0.00000
   74      5.46443    0.00000
   75      6.02266    0.00000
   76      6.08015    0.00000
   77      6.34343    0.00000
   78      6.92561    0.00000
   79      7.52062    0.00000
   80      7.76663    0.00000
   81      8.04515    0.00000
   82      8.24568    0.00000
   83      8.49216    0.00000
   84      8.62660    0.00000
   85      8.81388    0.00000
   86      8.96711    0.00000
   87      9.02066    0.00000
   88      9.11034    0.00000
   89      9.16689    0.00000
   90      9.20096    0.00000
   91      9.30945    0.00000
   92      9.66189    0.00000
   93      9.85990    0.00000
   94      9.88039    0.00000
   95      9.95258    0.00000
   96     10.10594    0.00000
   97     10.17640    0.00000


Forces in eV/Ang:
  0 C    -0.05084    0.07095   -0.01214
  1 C    -0.02966    0.02802   -0.04977
  2 C     0.03731   -0.02964   -0.04558
  3 C     0.20278    0.08026    0.00443
  4 C     0.03393   -0.10752    0.03095
  5 C     0.00775    0.06635    0.03732
  6 C     0.04784   -0.05551   -0.02384
  7 C    -0.06328   -0.01566    0.04806
  8 C    -0.00670    0.05930   -0.02523
  9 C    -0.03177   -0.03743    0.02549
 10 C    -0.09434   -0.05053   -0.00046
 11 C    -0.05527   -0.03189    0.04600
 12 C    -0.08346   -0.00769   -0.03460
 13 C    -0.11154   -0.07984   -0.08506
 14 C     0.04984    0.00527   -0.03823
 15 C     0.09672   -0.00104    0.01041
 16 C    -0.01784    0.00308   -0.01061
 17 C    -0.00940    0.05477    0.02971
 18 C     0.03482   -0.01188    0.02879
 19 C     0.03241   -0.08915    0.02849
 20 C     0.05649    0.07183   -0.03824
 21 C    -0.08027   -0.02439    0.05443
 22 C    -0.02941    0.02768   -0.03251
 23 C     0.01834    0.04330    0.05146

System changes: positions 

Initializing position-dependent things.

Density initialized from wave functions
           .--------------------------------------.  
          /|                                      |  
         / |                                      |  
        /  |                                      |  
       /   |                                      |  
      /    |                                      |  
     /     |                                      |  
    /      |                                      |  
   /       |                                      |  
  /        |               C       C              |  
 *         |           C   C    C                 |  
 |         C      C  C C   C C                    |  
 |         .--CCC--C--CC-----C--------------------.  
 |        /              C  C  C                 /   
 |       /                                      /    
 |      /                                      /     
 |     /                                      /      
 |    /                                      /       
 |   /                                      /        
 |  /                                      /         
 | /                                      /          
 |/                                      /           
 *--------------------------------------*            

Positions:
   0 C      7.413422   12.077228    4.239050
   1 C      3.718805    5.616047    5.533008
   2 C      6.856736    9.002412    4.632187
   3 C     11.690298    9.451809    5.751752
   4 C      9.767213    4.829578    4.807371
   5 C      7.480179    6.727444    5.029163
   6 C      8.523733    4.503388    5.042301
   7 C      4.564239    9.177128    4.440093
   8 C      8.056057   10.923399    4.507322
   9 C      4.884440    7.846261    4.745929
  10 C      7.356721    5.225050    5.225057
  11 C      9.263980    8.660955    4.996592
  12 C      3.831377    6.956203    5.083859
  13 C     10.557394    9.080144    5.264782
  14 C      2.550468    6.441692    5.508433
  15 C      6.096767    4.689101    5.555042
  16 C      8.877250    7.249195    5.014348
  17 C     11.010208    5.493417    4.679672
  18 C      4.859544    4.865189    5.630928
  19 C      8.160077    9.532506    4.711798
  20 C      6.340138   11.201250    4.266017
  21 C      5.769277    9.954162    4.374073
  22 C      9.939568    6.341063    4.915685
  23 C      6.411325    7.658111    4.842992

Unit cell:
           periodic     x           y           z      points  spacing
  1. axis:    yes   16.000000    0.000000    0.000000    80     0.2000
  2. axis:    yes    0.000000   16.000000    0.000000    80     0.2000
  3. axis:    yes    0.000000    0.000000   10.000000    48     0.2083

Effective grid spacing dv^(1/3) = 0.2027

                     log10-error:    total        iterations:
           time      wfs    density  energy       fermi  poisson
iter:   1  14:36:03          +inf  -180.234334    2      5      
iter:   2  14:36:03         -2.72  -180.233176    2      1      
iter:   3  14:36:04         -3.12  -180.233542    2      1      
iter:   4  14:36:04         -3.19  -180.233818    2      1      
iter:   5  14:36:05         -3.27  -180.234887    2      1      
iter:   6  14:36:05         -3.35  -180.233965    2      1      
iter:   7  14:36:06         -3.37  -180.233257    2      1      
iter:   8  14:36:06         -3.46  -180.232970    2      1      
iter:   9  14:36:07         -3.89  -180.232980    2      1      
iter:  10  14:36:07         -3.98  -180.232924    2      1      
iter:  11  14:36:08         -4.04  -180.232825    2      1      

Converged after 11 iterations.

Dipole moment: (-0.531971, -0.684298, -0.315134) |e|*Ang

Energy contributions relative to reference atoms: (reference = -24663.074771)

Kinetic:       +113.861176
Potential:     -121.488020
External:        +0.000000
XC:            -175.428340
Entropy (-ST):   -0.220770
Local:           +2.932744
--------------------------
Free energy:   -180.343210
Extrapolated:  -180.232825

Fermi level: -4.66482

 Band  Eigenvalues  Occupancy
    0    -24.17328    2.00000
    1    -23.75032    2.00000
    2    -23.08586    2.00000
    3    -22.24762    2.00000
    4    -21.50418    2.00000
    5    -21.25914    2.00000
    6    -19.85651    2.00000
    7    -19.54376    2.00000
    8    -19.13776    2.00000
    9    -18.76396    2.00000
   10    -17.84728    2.00000
   11    -17.51827    2.00000
   12    -16.42681    2.00000
   13    -16.25551    2.00000
   14    -15.91622    2.00000
   15    -15.58179    2.00000
   16    -14.64220    2.00000
   17    -13.43032    2.00000
   18    -13.32157    2.00000
   19    -13.12787    2.00000
   20    -12.46680    2.00000
   21    -12.36502    2.00000
   22    -11.92002    2.00000
   23    -11.46659    2.00000
   24    -11.31677    2.00000
   25    -10.82820    2.00000
   26    -10.68231    2.00000
   27    -10.43104    2.00000
   28    -10.20687    2.00000
   29    -10.14853    2.00000
   30    -10.06382    2.00000
   31     -9.72234    2.00000
   32     -9.21277    2.00000
   33     -9.03859    2.00000
   34     -8.83889    2.00000
   35     -8.78968    2.00000
   36     -8.65173    2.00000
   37     -7.35774    2.00000
   38     -7.30211    2.00000
   39     -7.11369    2.00000
   40     -6.77606    2.00000
   41     -6.56369    2.00000
   42     -5.98047    2.00000
   43     -5.40423    1.99877
   44     -5.29264    1.99625
   45     -5.10290    1.97528
   46     -4.96374    1.90417
   47     -4.89345    1.81547
   48     -4.46832    0.24586
   49     -4.32167    0.06265
   50     -3.94810    0.00154
   51     -3.35741    0.00000
   52     -3.09172    0.00000
   53     -2.02907    0.00000
   54     -1.85901    0.00000
   55     -1.55132    0.00000
   56     -1.24954    0.00000
   57     -0.78863    0.00000
   58     -0.20864    0.00000
   59      0.38562    0.00000
   60      0.92574    0.00000
   61      1.10829    0.00000
   62      1.22421    0.00000
   63      1.76515    0.00000
   64      2.27183    0.00000
   65      2.50934    0.00000
   66      2.74946    0.00000
   67      3.19790    0.00000
   68      3.37891    0.00000
   69      3.48297    0.00000
   70      3.95719    0.00000
   71      4.37828    0.00000
   72      4.65476    0.00000
   73      4.89840    0.00000
   74      5.46518    0.00000
   75      6.01940    0.00000
   76      6.08109    0.00000
   77      6.34538    0.00000
   78      6.91324    0.00000
   79      7.50605    0.00000
   80      7.76161    0.00000
   81      8.03780    0.00000
   82      8.24536    0.00000
   83      8.49378    0.00000
   84      8.62282    0.00000
   85      8.81891    0.00000
   86      8.96704    0.00000
   87      9.02037    0.00000
   88      9.11232    0.00000
   89      9.16728    0.00000
   90      9.19941    0.00000
   91      9.30980    0.00000
   92      9.66516    0.00000
   93      9.85563    0.00000
   94      9.88068    0.00000
   95      9.94908    0.00000
   96     10.10629    0.00000
   97     10.17583    0.00000


Forces in eV/Ang:
  0 C    -0.01388    0.07056    0.02389
  1 C    -0.02028    0.01432   -0.04885
  2 C     0.01163   -0.01293   -0.04219
  3 C     0.06889    0.03417   -0.05092
  4 C     0.02753   -0.08717    0.02555
  5 C     0.00250    0.02750    0.04069
  6 C     0.03018   -0.03488   -0.03518
  7 C    -0.04645   -0.00564    0.04195
  8 C    -0.00966    0.03648   -0.02031
  9 C    -0.01750   -0.02073    0.02631
 10 C    -0.05481   -0.03341   -0.02552
 11 C    -0.03875   -0.01352    0.04981
 12 C    -0.06073   -0.01736   -0.04665
 13 C    -0.00127   -0.03675   -0.01913
 14 C     0.03725   -0.00584   -0.01558
 15 C     0.03712    0.00848    0.02835
 16 C    -0.00534   -0.01914    0.01200
 17 C    -0.00689    0.03346    0.02425
 18 C     0.03091    0.00011    0.02401
 19 C     0.02864   -0.03846    0.00620
 20 C     0.00524    0.01098   -0.04188
 21 C    -0.07264   -0.00428    0.04334
 22 C    -0.03634    0.02183   -0.03655
 23 C     0.01250    0.02318    0.05347

