   13
Geometry Step: 0
    C     14.30568620     13.07247281      9.00000000
    C     11.98684636     11.76046250      9.00000000
    C     11.47269397     11.66035120      9.00000000
    C     11.67777093     12.84772218      9.00000000
    C      9.96313916     11.19999093      9.00000000
    C     14.14507603     12.34374371      9.00000000
    C     10.18366853     10.45963974      9.00000000
    C     14.14940995     11.92474868      9.00000000
    C     10.92692574     11.42031002      9.00000000
    C      9.21230790     15.69344836      9.00000000
    C     14.44812739     10.29683293      9.00000000
    C     12.60865516      8.47774923      9.00000000
    C     14.06632472     11.45320148      9.00000000
