   13
Geometry Step: 0
    C     10.50458326     13.53687260      9.00000000
    C     11.06771019     10.00806341      9.00000000
    C      7.45015629      9.90610070      9.00000000
    C     13.58310501     10.88161900      9.00000000
    C     17.29580448     11.99026729      9.00000000
    C      8.57163958     10.40485083      9.00000000
    C     10.84604520     14.74396872      9.00000000
    C      9.90180677     10.94564045      9.00000000
    C     10.94789951      8.67285611      9.00000000
    C     14.80963469     11.26766814      9.00000000
    C     12.36713178     10.48960026      9.00000000
    C     16.09255283     11.64816132      9.00000000
    C     10.16615966     12.24427953      9.00000000
