   13
Geometry Step: 0
    C     11.69780606     12.59697387      9.00000000
    C      8.45922776     11.58151014      9.00000000
    C      9.74390831     12.14747167      9.00000000
    C     10.49913017     13.31218431      9.00000000
    C     13.58952223     11.59118070      9.00000000
    C     12.76329294     13.53047970      9.00000000
    C     13.28749682     10.34861669      9.00000000
    C     10.93044070     11.46773738      9.00000000
    C     12.26625861     11.33719009      9.00000000
    C      9.64313643     10.86069821      9.00000000
    C     14.00331006     12.89617528      9.00000000
    C     15.20998928     12.24753616      9.00000000
    C     14.72092084     10.95990326      9.00000000
